       N       E                     dE             d eps       ncg     rms          rms(c)
DAV:   1     0.518675422940E+03    0.51868E+03   -0.40649E+04  6108   0.130E+03
DAV:   2    -0.772844553668E+02   -0.59596E+03   -0.56178E+03  7920   0.254E+02
DAV:   3    -0.146214862728E+03   -0.68930E+02   -0.68504E+02  7186   0.927E+01
DAV:   4    -0.147695389589E+03   -0.14805E+01   -0.14771E+01  7248   0.149E+01
DAV:   5    -0.147733554063E+03   -0.38164E-01   -0.38137E-01  7834   0.233E+00    0.221E+01
DAV:   6    -0.132738494639E+03    0.14995E+02   -0.82441E+01  6966   0.290E+01    0.737E+00
DAV:   7    -0.132582744485E+03    0.15575E+00   -0.18421E+00  6670   0.497E+00    0.458E+00
DAV:   8    -0.132440472517E+03    0.14227E+00   -0.63231E-01  6964   0.389E+00    0.105E+00
DAV:   9    -0.132418792158E+03    0.21680E-01   -0.93947E-02  6988   0.131E+00    0.611E-01
DAV:  10    -0.132415642363E+03    0.31498E-02   -0.40543E-02  6960   0.673E-01    0.354E-01
DAV:  11    -0.132420360595E+03   -0.47182E-02   -0.21019E-02  7298   0.591E-01    0.251E-01
DAV:  12    -0.132421233487E+03   -0.87289E-03   -0.42039E-03  7494   0.297E-01    0.175E-01
DAV:  13    -0.132421503334E+03   -0.26985E-03   -0.50590E-03  7042   0.247E-01    0.943E-02
DAV:  14    -0.132421461061E+03    0.42272E-04   -0.16831E-03  6826   0.133E-01    0.583E-02
DAV:  15    -0.132421344117E+03    0.11694E-03   -0.56390E-04  6924   0.124E-01    0.320E-02
DAV:  16    -0.132420854976E+03    0.48914E-03   -0.79800E-04  7614   0.233E-01    0.330E-02
DAV:  17    -0.132420453813E+03    0.40116E-03   -0.46597E-04  7490   0.188E-01    0.269E-02
DAV:  18    -0.132419966477E+03    0.48734E-03   -0.26880E-04  9132   0.220E-01    0.174E-02
DAV:  19    -0.132419581225E+03    0.38525E-03   -0.38699E-04  8056   0.272E-01    0.256E-02
DAV:  20    -0.132419314686E+03    0.26654E-03   -0.68796E-04 10168   0.395E-01    0.224E-02
DAV:  21    -0.132419290237E+03    0.24449E-04   -0.86083E-04  7722   0.264E-01    0.295E-02
DAV:  22    -0.132419316217E+03   -0.25980E-04   -0.46820E-04  6794   0.799E-02    0.363E-02
DAV:  23    -0.132419326812E+03   -0.10594E-04   -0.11866E-05  3898   0.184E-02    0.392E-02
DAV:  24    -0.132419296732E+03    0.30080E-04   -0.22342E-04  6808   0.697E-02    0.134E-02
DAV:  25    -0.132419298712E+03   -0.19795E-05   -0.62866E-05  6540   0.508E-02
   1 F= -.13241930E+03 E0= -.13241532E+03  d E =-.132419E+03
       N       E                     dE             d eps       ncg     rms          rms(c)
DAV:   1    -0.132420029781E+03   -0.73305E-03   -0.15676E-02  6386   0.547E-01    0.447E-02
DAV:   2    -0.132420046598E+03   -0.16817E-04   -0.91974E-04  7128   0.142E-01    0.239E-02
DAV:   3    -0.132420040766E+03    0.58317E-05   -0.11585E-04  6978   0.429E-02    0.166E-02
DAV:   4    -0.132420034408E+03    0.63586E-05   -0.20566E-05  3868   0.135E-02    0.115E-02
DAV:   5    -0.132420029715E+03    0.46930E-05   -0.12735E-05  4064   0.138E-02    0.536E-03
DAV:   6    -0.132420027436E+03    0.22790E-05   -0.91423E-06  4452   0.178E-02
   2 F= -.13242003E+03 E0= -.13241603E+03  d E =-.728724E-03
       N       E                     dE             d eps       ncg     rms          rms(c)
DAV:   1    -0.132420593863E+03   -0.56415E-03   -0.71911E-02  6296   0.117E+00    0.544E-02
DAV:   2    -0.132420743043E+03   -0.14918E-03   -0.28632E-03  7144   0.229E-01    0.466E-02
DAV:   3    -0.132420699855E+03    0.43188E-04   -0.25407E-04  7050   0.576E-02    0.341E-02
DAV:   4    -0.132420682401E+03    0.17454E-04   -0.41852E-05  5368   0.213E-02    0.258E-02
DAV:   5    -0.132420654807E+03    0.27594E-04   -0.84611E-05  6848   0.371E-02    0.118E-02
DAV:   6    -0.132420647760E+03    0.70473E-05   -0.58167E-05  5066   0.272E-02
   3 F= -.13242065E+03 E0= -.13241663E+03  d E =-.134905E-02
       N       E                     dE             d eps       ncg     rms          rms(c)
DAV:   1    -0.132421094105E+03   -0.43930E-03   -0.11758E-02  6220   0.458E-01    0.191E-02
DAV:   2    -0.132421116734E+03   -0.22630E-04   -0.30812E-04  6652   0.674E-02    0.109E-02
DAV:   3    -0.132421114396E+03    0.23385E-05   -0.23462E-05  4368   0.126E-02    0.843E-03
DAV:   4    -0.132421112598E+03    0.17978E-05   -0.11382E-05  3602   0.971E-03    0.538E-03
DAV:   5    -0.132421111888E+03    0.70934E-06   -0.76078E-06  3880   0.113E-02    0.287E-03
DAV:   6    -0.132421111548E+03    0.34023E-06   -0.38417E-06  3200   0.622E-03
   4 F= -.13242111E+03 E0= -.13241711E+03  d E =-.463789E-03
       N       E                     dE             d eps       ncg     rms          rms(c)
DAV:   1    -0.132422104976E+03   -0.99309E-03   -0.10556E-01  6220   0.137E+00    0.502E-02
DAV:   2    -0.132422285772E+03   -0.18080E-03   -0.25495E-03  6790   0.202E-01    0.285E-02
DAV:   3    -0.132422269864E+03    0.15909E-04   -0.13236E-04  7176   0.440E-02    0.215E-02
DAV:   4    -0.132422258615E+03    0.11249E-04   -0.37717E-05  4678   0.211E-02    0.151E-02
DAV:   5    -0.132422248069E+03    0.10546E-04   -0.17065E-05  4210   0.208E-02    0.788E-03
DAV:   6    -0.132422243474E+03    0.45951E-05   -0.22532E-05  4174   0.237E-02
   5 F= -.13242224E+03 E0= -.13241827E+03  d E =-.159571E-02
       N       E                     dE             d eps       ncg     rms          rms(c)
DAV:   1    -0.132422742180E+03   -0.49411E-03   -0.42209E-01  6180   0.274E+00    0.101E-01
DAV:   2    -0.132423444772E+03   -0.70259E-03   -0.10182E-02  6784   0.405E-01    0.560E-02
DAV:   3    -0.132423378942E+03    0.65830E-04   -0.50815E-04  7224   0.921E-02    0.423E-02
DAV:   4    -0.132423336281E+03    0.42661E-04   -0.16346E-04  6880   0.446E-02    0.305E-02
DAV:   5    -0.132423285825E+03    0.50456E-04   -0.67286E-05  6448   0.404E-02    0.167E-02
DAV:   6    -0.132423253933E+03    0.31892E-04   -0.73081E-05  6254   0.544E-02    0.114E-02
DAV:   7    -0.132423243389E+03    0.10544E-04   -0.75883E-05  6212   0.339E-02    0.921E-03
DAV:   8    -0.132423218168E+03    0.25221E-04   -0.96593E-06  4612   0.431E-02    0.630E-03
DAV:   9    -0.132423187657E+03    0.30510E-04   -0.17209E-05  5386   0.564E-02    0.590E-03
DAV:  10    -0.132423140835E+03    0.46822E-04   -0.32404E-05  6266   0.101E-01    0.617E-03
DAV:  11    -0.132423119743E+03    0.21092E-04   -0.60474E-05  7278   0.882E-02    0.749E-03
DAV:  12    -0.132423122372E+03   -0.26288E-05   -0.80418E-05  5964   0.390E-02
   6 F= -.13242312E+03 E0= -.13241922E+03  d E =-.247461E-02
       N       E                     dE             d eps       ncg     rms          rms(c)
DAV:   1    -0.132423651298E+03   -0.53156E-03   -0.83474E-02  6390   0.121E+00    0.394E-02
DAV:   2    -0.132423815506E+03   -0.16421E-03   -0.18863E-03  6542   0.165E-01    0.222E-02
DAV:   3    -0.132423803072E+03    0.12433E-04   -0.61845E-05  5644   0.267E-02    0.168E-02
DAV:   4    -0.132423794392E+03    0.86808E-05   -0.14516E-05  3826   0.134E-02    0.113E-02
DAV:   5    -0.132423787069E+03    0.73228E-05   -0.14681E-05  4730   0.262E-02    0.364E-03
DAV:   6    -0.132423786820E+03    0.24911E-06   -0.10112E-05  3618   0.148E-02
   7 F= -.13242379E+03 E0= -.13241992E+03  d E =-.664448E-03
       N       E                     dE             d eps       ncg     rms          rms(c)
DAV:   1    -0.132423931163E+03   -0.14409E-03   -0.75392E-01  6188   0.363E+00    0.118E-01
DAV:   2    -0.132425451187E+03   -0.15200E-02   -0.17277E-02  6488   0.500E-01    0.678E-02
DAV:   3    -0.132425333230E+03    0.11796E-03   -0.54069E-04  7006   0.791E-02    0.507E-02
DAV:   4    -0.132425259122E+03    0.74107E-04   -0.11934E-04  6900   0.363E-02    0.346E-02
DAV:   5    -0.132425187127E+03    0.71996E-04   -0.11636E-04  6794   0.735E-02    0.119E-02
DAV:   6    -0.132425175733E+03    0.11394E-04   -0.80818E-05  7028   0.416E-02    0.997E-03
DAV:   7    -0.132425170086E+03    0.56471E-05   -0.13058E-05  4012   0.156E-02
   8 F= -.13242517E+03 E0= -.13242140E+03  d E =-.204771E-02
       N       E                     dE             d eps       ncg     rms          rms(c)
DAV:   1    -0.132420130650E+03    0.50451E-02   -0.30120E+00  6196   0.726E+00    0.233E-01
DAV:   2    -0.132426135877E+03   -0.60052E-02   -0.68823E-02  6464   0.995E-01    0.134E-01
DAV:   3    -0.132425634694E+03    0.50118E-03   -0.16883E-03  7006   0.153E-01    0.973E-02
DAV:   4    -0.132425383355E+03    0.25134E-03   -0.42259E-04  6924   0.712E-02    0.679E-02
DAV:   5    -0.132425058587E+03    0.32477E-03   -0.42741E-04  7464   0.147E-01    0.240E-02
DAV:   6    -0.132424980152E+03    0.78435E-04   -0.31569E-04  7184   0.901E-02    0.173E-02
DAV:   7    -0.132424937820E+03    0.42333E-04   -0.75120E-05  7076   0.391E-02    0.116E-02
DAV:   8    -0.132424868834E+03    0.68986E-04   -0.43007E-05  5290   0.430E-02    0.107E-02
DAV:   9    -0.132424801912E+03    0.66922E-04   -0.38238E-05  5854   0.540E-02    0.109E-02
DAV:  10    -0.132424689095E+03    0.11282E-03   -0.52445E-05  7012   0.110E-01    0.132E-02
DAV:  11    -0.132424571976E+03    0.11712E-03   -0.17155E-04  8674   0.179E-01    0.111E-02
DAV:  12    -0.132424535525E+03    0.36452E-04   -0.22256E-04  7318   0.145E-01    0.134E-02
DAV:  13    -0.132424526490E+03    0.90351E-05   -0.12426E-04  7130   0.771E-02    0.119E-02
DAV:  14    -0.132424527754E+03   -0.12643E-05   -0.40514E-05  5710   0.233E-02
   9 F= -.13242453E+03 E0= -.13242095E+03  d E =-.140538E-02
       N       E                     dE             d eps       ncg     rms          rms(c)
DAV:   1    -0.132423757666E+03    0.76882E-03   -0.99297E-01  6172   0.415E+00    0.139E-01
DAV:   2    -0.132425806609E+03   -0.20489E-02   -0.23374E-02  6472   0.569E-01    0.789E-02
DAV:   3    -0.132425638844E+03    0.16777E-03   -0.67637E-04  7022   0.907E-02    0.585E-02
DAV:   4    -0.132425545854E+03    0.92990E-04   -0.14387E-04  6950   0.439E-02    0.400E-02
DAV:   5    -0.132425447985E+03    0.97869E-04   -0.17510E-04  6828   0.910E-02    0.121E-02
DAV:   6    -0.132425440347E+03    0.76385E-05   -0.11114E-04  7074   0.448E-02    0.117E-02
DAV:   7    -0.132425434926E+03    0.54211E-05   -0.13121E-05  4044   0.154E-02
  10 F= -.13242543E+03 E0= -.13242174E+03  d E =-.231255E-02
       N       E                     dE             d eps       ncg     rms          rms(c)
DAV:   1    -0.132425402172E+03    0.38174E-04   -0.36433E-02  6168   0.796E-01    0.263E-02
DAV:   2    -0.132425472308E+03   -0.70136E-04   -0.90544E-04  6806   0.111E-01    0.180E-02
DAV:   3    -0.132425455496E+03    0.16813E-04   -0.79417E-05  5114   0.239E-02    0.123E-02
DAV:   4    -0.132425447929E+03    0.75669E-05   -0.91266E-06  3870   0.117E-02    0.882E-03
DAV:   5    -0.132425431330E+03    0.16599E-04   -0.89011E-06  4538   0.256E-02    0.489E-03
DAV:   6    -0.132425422584E+03    0.87461E-05   -0.18582E-05  4500   0.229E-02
  11 F= -.13242542E+03 E0= -.13242170E+03  d E =-.230021E-02
       N       E                     dE             d eps       ncg     rms          rms(c)
DAV:   1    -0.132426014367E+03   -0.58304E-03   -0.21461E-01  6100   0.197E+00    0.625E-02
DAV:   2    -0.132426419983E+03   -0.40562E-03   -0.47367E-03  6742   0.272E-01    0.347E-02
DAV:   3    -0.132426391912E+03    0.28071E-04   -0.89936E-05  7410   0.399E-02    0.237E-02
DAV:   4    -0.132426379189E+03    0.12722E-04   -0.27497E-05  4326   0.186E-02    0.176E-02
DAV:   5    -0.132426358446E+03    0.20743E-04   -0.48731E-05  6858   0.356E-02    0.882E-03
DAV:   6    -0.132426354015E+03    0.44310E-05   -0.11813E-05  4156   0.183E-02
  12 F= -.13242635E+03 E0= -.13242267E+03  d E =-.931431E-03
       N       E                     dE             d eps       ncg     rms          rms(c)
DAV:   1    -0.132424897713E+03    0.14607E-02   -0.15081E+00  6116   0.522E+00    0.167E-01
DAV:   2    -0.132427802857E+03   -0.29051E-02   -0.33324E-02  6736   0.721E-01    0.893E-02
DAV:   3    -0.132427641322E+03    0.16154E-03   -0.57818E-04  7466   0.101E-01    0.605E-02
DAV:   4    -0.132427579132E+03    0.62190E-04   -0.31053E-04  7070   0.610E-02    0.410E-02
DAV:   5    -0.132427507165E+03    0.71967E-04   -0.30714E-04  7064   0.714E-02    0.211E-02
DAV:   6    -0.132427493189E+03    0.13977E-04   -0.55820E-05  6760   0.361E-02    0.178E-02
DAV:   7    -0.132427472708E+03    0.20481E-04   -0.53079E-05  6260   0.438E-02    0.972E-03
DAV:   8    -0.132427458252E+03    0.14456E-04   -0.33820E-05  5006   0.320E-02    0.926E-03
DAV:   9    -0.132427450171E+03    0.80803E-05   -0.90899E-06  3822   0.162E-02
  13 F= -.13242745E+03 E0= -.13242389E+03  d E =-.202759E-02
       N       E                     dE             d eps       ncg     rms          rms(c)
DAV:   1    -0.132427862070E+03   -0.40382E-03   -0.22568E-01  6100   0.203E+00    0.660E-02
DAV:   2    -0.132428360013E+03   -0.49794E-03   -0.56025E-03  6808   0.296E-01    0.406E-02
DAV:   3    -0.132428321277E+03    0.38736E-04   -0.18481E-04  7094   0.511E-02    0.286E-02
DAV:   4    -0.132428301556E+03    0.19721E-04   -0.30862E-05  4610   0.197E-02    0.207E-02
DAV:   5    -0.132428277516E+03    0.24040E-04   -0.47943E-05  6604   0.347E-02    0.968E-03
DAV:   6    -0.132428269241E+03    0.82747E-05   -0.11551E-05  3926   0.263E-02
  14 F= -.13242827E+03 E0= -.13242469E+03  d E =-.819070E-03
       N       E                     dE             d eps       ncg     rms          rms(c)
DAV:   1    -0.132427471628E+03    0.80589E-03   -0.72086E-01  6092   0.362E+00    0.117E-01
DAV:   2    -0.132429071427E+03   -0.15998E-02   -0.17603E-02  6806   0.524E-01    0.707E-02
DAV:   3    -0.132428964768E+03    0.10666E-03   -0.50742E-04  7068   0.794E-02    0.506E-02
DAV:   4    -0.132428913405E+03    0.51363E-04   -0.10248E-04  6696   0.337E-02    0.360E-02
DAV:   5    -0.132428863207E+03    0.50198E-04   -0.16224E-04  6964   0.600E-02    0.155E-02
DAV:   6    -0.132428856650E+03    0.65568E-05   -0.41320E-05  5964   0.341E-02
  15 F= -.13242886E+03 E0= -.13242523E+03  d E =-.140648E-02
       N       E                     dE             d eps       ncg     rms          rms(c)
DAV:   1    -0.132428923518E+03   -0.60310E-04   -0.34771E-01  6156   0.249E+00    0.761E-02
DAV:   2    -0.132429636113E+03   -0.71260E-03   -0.77235E-03  6780   0.337E-01    0.418E-02
DAV:   3    -0.132429597788E+03    0.38326E-04   -0.24764E-04  7300   0.449E-02    0.293E-02
DAV:   4    -0.132429579614E+03    0.18174E-04   -0.90055E-05  4872   0.244E-02    0.213E-02
DAV:   5    -0.132429562806E+03    0.16808E-04   -0.95048E-05  6840   0.447E-02    0.830E-03
DAV:   6    -0.132429563009E+03   -0.20315E-06   -0.31458E-05  4800   0.206E-02
  16 F= -.13242956E+03 E0= -.13242591E+03  d E =-.706359E-03
       N       E                     dE             d eps       ncg     rms          rms(c)
DAV:   1    -0.132424867682E+03    0.46951E-02   -0.30718E+00  6164   0.741E+00    0.217E-01
DAV:   2    -0.132431057111E+03   -0.61894E-02   -0.66482E-02  6772   0.996E-01    0.124E-01
DAV:   3    -0.132430707309E+03    0.34980E-03   -0.90577E-04  7306   0.121E-01    0.848E-02
DAV:   4    -0.132430579067E+03    0.12824E-03   -0.44709E-04  6866   0.839E-02    0.600E-02
DAV:   5    -0.132430387563E+03    0.19150E-03   -0.51172E-04  7084   0.132E-01    0.173E-02
DAV:   6    -0.132430395126E+03   -0.75637E-05   -0.21844E-04  6848   0.605E-02    0.214E-02
DAV:   7    -0.132430388954E+03    0.61726E-05   -0.15711E-05  3778   0.149E-02
  17 F= -.13243039E+03 E0= -.13242666E+03  d E =-.153230E-02
       N       E                     dE             d eps       ncg     rms          rms(c)
DAV:   1    -0.132429821191E+03    0.57394E-03   -0.73641E-01  6172   0.364E+00    0.110E-01
DAV:   2    -0.132431347142E+03   -0.15260E-02   -0.16422E-02  6590   0.494E-01    0.620E-02
DAV:   3    -0.132431257990E+03    0.89153E-04   -0.51788E-04  7312   0.675E-02    0.442E-02
DAV:   4    -0.132431218698E+03    0.39292E-04   -0.26772E-04  6842   0.405E-02    0.323E-02
DAV:   5    -0.132431135510E+03    0.83188E-04   -0.19043E-04  7042   0.971E-02    0.910E-03
DAV:   6    -0.132431128955E+03    0.65558E-05   -0.98482E-05  6646   0.428E-02
  18 F= -.13243113E+03 E0= -.13242737E+03  d E =-.740001E-03
       N       E                     dE             d eps       ncg     rms          rms(c)
DAV:   1    -0.132427810428E+03    0.33251E-02   -0.20576E+00  6172   0.608E+00    0.182E-01
DAV:   2    -0.132432067820E+03   -0.42574E-02   -0.45689E-02  6532   0.827E-01    0.103E-01
DAV:   3    -0.132431814115E+03    0.25370E-03   -0.48665E-04  7312   0.107E-01    0.718E-02
DAV:   4    -0.132431672597E+03    0.14152E-03   -0.62072E-04  6982   0.108E-01    0.420E-02
DAV:   5    -0.132431540754E+03    0.13184E-03   -0.82405E-04  7038   0.129E-01    0.242E-02
DAV:   6    -0.132431519720E+03    0.21034E-04   -0.17484E-04  6808   0.536E-02    0.239E-02
DAV:   7    -0.132431512476E+03    0.72442E-05   -0.87325E-06  3770   0.114E-02
  19 F= -.13243151E+03 E0= -.13242770E+03  d E =-.112352E-02
       N       E                     dE             d eps       ncg     rms          rms(c)
DAV:   1    -0.132431964021E+03   -0.44430E-03   -0.95723E-02  6288   0.128E+00    0.397E-02
DAV:   2    -0.132432107681E+03   -0.14366E-03   -0.19140E-03  6932   0.177E-01    0.261E-02
DAV:   3    -0.132432089114E+03    0.18567E-04   -0.53219E-05  6294   0.338E-02    0.188E-02
DAV:   4    -0.132432082297E+03    0.68170E-05   -0.29336E-05  3962   0.192E-02    0.142E-02
DAV:   5    -0.132432068952E+03    0.13344E-04   -0.38201E-05  5866   0.354E-02    0.586E-03
DAV:   6    -0.132432066389E+03    0.25632E-05   -0.18634E-05  3818   0.199E-02
  20 F= -.13243207E+03 E0= -.13242824E+03  d E =-.553913E-03
       N       E                     dE             d eps       ncg     rms          rms(c)
DAV:   1    -0.132432134690E+03   -0.65737E-04   -0.95893E-02  6260   0.128E+00    0.400E-02
DAV:   2    -0.132432274393E+03   -0.13970E-03   -0.19942E-03  6960   0.184E-01    0.258E-02
DAV:   3    -0.132432256967E+03    0.17425E-04   -0.88381E-05  6800   0.375E-02    0.204E-02
DAV:   4    -0.132432249209E+03    0.77584E-05   -0.17945E-05  3870   0.135E-02    0.159E-02
DAV:   5    -0.132432234751E+03    0.14458E-04   -0.39614E-05  6050   0.253E-02    0.874E-03
DAV:   6    -0.132432227827E+03    0.69237E-05   -0.19798E-05  4130   0.245E-02
  21 F= -.13243223E+03 E0= -.13242838E+03  d E =-.715351E-03
       N       E                     dE             d eps       ncg     rms          rms(c)
DAV:   1    -0.132432393278E+03   -0.15853E-03   -0.89246E-02  6292   0.126E+00    0.434E-02
DAV:   2    -0.132432523641E+03   -0.13036E-03   -0.22423E-03  6930   0.193E-01    0.299E-02
DAV:   3    -0.132432483804E+03    0.39838E-04   -0.20133E-04  7150   0.473E-02    0.235E-02
DAV:   4    -0.132432465712E+03    0.18092E-04   -0.20894E-05  4320   0.163E-02    0.187E-02
DAV:   5    -0.132432410434E+03    0.55278E-04   -0.46763E-05  6470   0.385E-02    0.119E-02
DAV:   6    -0.132432368682E+03    0.41752E-04   -0.53131E-05  6292   0.479E-02    0.108E-02
DAV:   7    -0.132432359887E+03    0.87948E-05   -0.25728E-05  5014   0.217E-02
  22 F= -.13243236E+03 E0= -.13242852E+03  d E =-.132060E-03
       N       E                     dE             d eps       ncg     rms          rms(c)
DAV:   1    -0.132432329097E+03    0.39585E-04   -0.10892E-02  6416   0.440E-01    0.169E-02
DAV:   2    -0.132432342638E+03   -0.13542E-04   -0.27149E-04  6952   0.725E-02    0.998E-03
DAV:   3    -0.132432337242E+03    0.53959E-05   -0.14877E-05  3910   0.200E-02    0.752E-03
DAV:   4    -0.132432334791E+03    0.24512E-05   -0.33734E-06  3578   0.865E-03    0.629E-03
DAV:   5    -0.132432327628E+03    0.71630E-05   -0.41342E-06  3882   0.183E-02    0.368E-03
DAV:   6    -0.132432318519E+03    0.91096E-05   -0.60800E-06  4038   0.296E-02
  23 F= -.13243232E+03 E0= -.13242848E+03  d E =-.906911E-04
       N       E                     dE             d eps       ncg     rms          rms(c)
DAV:   1    -0.132432442634E+03   -0.11501E-03   -0.11805E-01  6212   0.138E+00    0.395E-02
DAV:   2    -0.132432615674E+03   -0.17304E-03   -0.22004E-03  6780   0.179E-01    0.264E-02
DAV:   3    -0.132432595470E+03    0.20204E-04   -0.46662E-05  6434   0.309E-02    0.190E-02
DAV:   4    -0.132432587202E+03    0.82676E-05   -0.33156E-05  4112   0.216E-02    0.128E-02
DAV:   5    -0.132432576250E+03    0.10953E-04   -0.41478E-05  5882   0.326E-02    0.519E-03
DAV:   6    -0.132432576135E+03    0.11408E-06   -0.14667E-05  3572   0.151E-02
  24 F= -.13243258E+03 E0= -.13242875E+03  d E =-.257617E-03
       N       E                     dE             d eps       ncg     rms          rms(c)
DAV:   1    -0.132432577797E+03   -0.15475E-05   -0.10970E-02  6176   0.420E-01    0.134E-02
DAV:   2    -0.132432591814E+03   -0.14017E-04   -0.21042E-04  6722   0.567E-02    0.831E-03
DAV:   3    -0.132432588689E+03    0.31251E-05   -0.68785E-06  3750   0.141E-02    0.634E-03
DAV:   4    -0.132432587357E+03    0.13314E-05   -0.37597E-06  3488   0.824E-03    0.487E-03
DAV:   5    -0.132432583885E+03    0.34717E-05   -0.34499E-06  3822   0.167E-02    0.242E-03
DAV:   6    -0.132432582094E+03    0.17916E-05   -0.44610E-06  3842   0.152E-02
  25 F= -.13243258E+03 E0= -.13242877E+03  d E =-.263575E-03
       N       E                     dE             d eps       ncg     rms          rms(c)
DAV:   1    -0.132432596731E+03   -0.12846E-04   -0.62204E-02  6468   0.105E+00    0.348E-02
DAV:   2    -0.132432719713E+03   -0.12298E-03   -0.15924E-03  6864   0.157E-01    0.249E-02
DAV:   3    -0.132432694316E+03    0.25397E-04   -0.83411E-05  6362   0.327E-02    0.187E-02
DAV:   4    -0.132432684404E+03    0.99125E-05   -0.11198E-05  3834   0.142E-02    0.145E-02
DAV:   5    -0.132432656152E+03    0.28252E-04   -0.21764E-05  5548   0.388E-02    0.779E-03
DAV:   6    -0.132432642910E+03    0.13242E-04   -0.21031E-05  4770   0.326E-02    0.636E-03
DAV:   7    -0.132432640930E+03    0.19796E-05   -0.13828E-05  3658   0.148E-02
  26 F= -.13243264E+03 E0= -.13242885E+03  d E =-.588367E-04
