 vasp.5.3.5 31Mar14 (build Apr 08 2024 10:12:10) complex                        
  
 executed on             LinuxIFC date 2024.07.31  10:55:33
 running on    8 total cores
 distrk:  each k-point on    8 cores,    1 groups
 distr:  one band on NCORES_PER_BAND=   4 cores,    2 groups


--------------------------------------------------------------------------------------------------------


 INCAR:
 POTCAR:    PAW_PBE O 08Apr2002                   
 POTCAR:    PAW_PBE Mg 13Apr2007                  
 POTCAR:    PAW_PBE Al 04Jan2001                  
 POTCAR:    PAW_PBE O 08Apr2002                   
   VRHFIN =O: s2p4                                                              
   LEXCH  = PE                                                                  
   EATOM  =   432.3788 eV,   31.7789 Ry                                         
                                                                                
   TITEL  = PAW_PBE O 08Apr2002                                                 
   LULTRA =        F    use ultrasoft PP ?                                      
   IUNSCR =        1    unscreen: 0-lin 1-nonlin 2-no                           
   RPACOR =    1.200    partial core radius                                     
   POMASS =   16.000; ZVAL   =    6.000    mass and valenz                      
   RCORE  =    1.520    outmost cutoff radius                                   
   RWIGS  =    1.550; RWIGS  =    0.820    wigner-seitz radius (au A)           
   ENMAX  =  400.000; ENMIN  =  300.000 eV                                      
   ICORE  =        2    local potential                                         
   LCOR   =        T    correct aug charges                                     
   LPAW   =        T    paw PP                                                  
   EAUG   =  605.392                                                            
   DEXC   =    0.000                                                            
   RMAX   =    1.553    core radius for proj-oper                               
   RAUG   =    1.300    factor for augmentation sphere                          
   RDEP   =    1.550    radius for radial grids                                 
   RDEPT  =    1.329    core radius for aug-charge                              
                                                                                
   Atomic configuration                                                         
    4 entries                                                                   
     n  l   j            E        occ.                                          
     1  0  0.50      -514.6923   2.0000                                         
     2  0  0.50       -23.9615   2.0000                                         
     2  1  0.50        -9.0305   4.0000                                         
     3  2  1.50        -9.5241   0.0000                                         
   Description                                                                  
     l       E           TYP  RCUT    TYP  RCUT                                 
     0    -23.9615318     23  1.200                                             
     0     -9.5240782     23  1.200                                             
     1     -9.0304911     23  1.520                                             
     1      8.1634956     23  1.520                                             
     2     -9.5240782      7  1.500                                             
  local pseudopotential read in
  partial core-charges read in
  partial kinetic energy density read in
  kinetic energy density of atom read in
  atomic valenz-charges read in
  non local Contribution for L=           0  read in
    real space projection operators read in
  non local Contribution for L=           0  read in
    real space projection operators read in
  non local Contribution for L=           1  read in
    real space projection operators read in
  non local Contribution for L=           1  read in
    real space projection operators read in
    PAW grid and wavefunctions read in
 
   number of l-projection  operators is LMAX  =           4
   number of lm-projection operators is LMMAX =           8
 
 POTCAR:    PAW_PBE Mg 13Apr2007                  
   VRHFIN =Mg: s2p0                                                             
   LEXCH  = PE                                                                  
   EATOM  =    23.0369 eV,    1.6932 Ry                                         
                                                                                
   TITEL  = PAW_PBE Mg 13Apr2007                                                
   LULTRA =        F    use ultrasoft PP ?                                      
   IUNSCR =        1    unscreen: 0-lin 1-nonlin 2-no                           
   RPACOR =    1.500    partial core radius                                     
   POMASS =   24.305; ZVAL   =    2.000    mass and valenz                      
   RCORE  =    2.000    outmost cutoff radius                                   
   RWIGS  =    2.880; RWIGS  =    1.524    wigner-seitz radius (au A)           
   ENMAX  =  200.000; ENMIN  =  100.000 eV                                      
   RCLOC  =    1.506    cutoff for local pot                                    
   LCOR   =        T    correct aug charges                                     
   LPAW   =        T    paw PP                                                  
   EAUG   =  454.734                                                            
   DEXC   =    0.000                                                            
   RMAX   =    2.045    core radius for proj-oper                               
   RAUG   =    1.300    factor for augmentation sphere                          
   RDEP   =    2.025    radius for radial grids                                 
   RDEPT  =    1.942    core radius for aug-charge                              
                                                                                
   Atomic configuration                                                         
    6 entries                                                                   
     n  l   j            E        occ.                                          
     1  0  0.50     -1259.6230   2.0000                                         
     2  0  0.50       -79.8442   2.0000                                         
     2  1  1.50       -46.6121   6.0000                                         
     3  0  0.50        -4.7055   2.0000                                         
     3  1  0.50        -1.3660   0.0000                                         
     3  2  1.50        -1.3606   0.0000                                         
   Description                                                                  
     l       E           TYP  RCUT    TYP  RCUT                                 
     0     -4.7054661     23  2.000                                             
     0     27.2116520     23  2.000                                             
     1      1.3605826     23  2.000                                             
     1     27.2116520     23  2.000                                             
     2     -1.3605826     23  2.000                                             
  local pseudopotential read in
  partial core-charges read in
  partial kinetic energy density read in
  atomic valenz-charges read in
  non local Contribution for L=           0  read in
    real space projection operators read in
  non local Contribution for L=           0  read in
    real space projection operators read in
  non local Contribution for L=           1  read in
    real space projection operators read in
  non local Contribution for L=           1  read in
    real space projection operators read in
  non local Contribution for L=           2  read in
    real space projection operators read in
    PAW grid and wavefunctions read in
 
   number of l-projection  operators is LMAX  =           5
   number of lm-projection operators is LMMAX =          13
 
 POTCAR:    PAW_PBE Al 04Jan2001                  
   VRHFIN =Al: s2p1                                                             
   LEXCH  = PE                                                                  
   EATOM  =    53.5387 eV,    3.9350 Ry                                         
                                                                                
   TITEL  = PAW_PBE Al 04Jan2001                                                
   LULTRA =        F    use ultrasoft PP ?                                      
   IUNSCR =        1    unscreen: 0-lin 1-nonlin 2-no                           
   RPACOR =    1.500    partial core radius                                     
   POMASS =   26.981; ZVAL   =    3.000    mass and valenz                      
   RCORE  =    1.900    outmost cutoff radius                                   
   RWIGS  =    2.650; RWIGS  =    1.402    wigner-seitz radius (au A)           
   ENMAX  =  240.300; ENMIN  =  180.225 eV                                      
   ICORE  =        2    local potential                                         
   LCOR   =        T    correct aug charges                                     
   LPAW   =        T    paw PP                                                  
   EAUG   =  291.052                                                            
   DEXC   =    0.000                                                            
   RMAX   =    1.939    core radius for proj-oper                               
   RAUG   =    1.300    factor for augmentation sphere                          
   RDEP   =    1.966    radius for radial grids                                 
   RDEPT  =    1.856    core radius for aug-charge                              
                                                                                
   Atomic configuration                                                         
    6 entries                                                                   
     n  l   j            E        occ.                                          
     1  0  0.50     -1511.1048   2.0000                                         
     2  0  0.50      -108.1629   2.0000                                         
     2  1  1.50       -69.6402   6.0000                                         
     3  0  0.50        -7.7528   2.0000                                         
     3  1  1.50        -2.7121   1.0000                                         
     3  2  2.50        -2.7212   0.0000                                         
   Description                                                                  
     l       E           TYP  RCUT    TYP  RCUT                                 
     0     -7.7528455     23  1.900                                             
     0     -3.3096929     23  1.900                                             
     1     -2.7120682     23  1.900                                             
     1     13.6058260     23  1.900                                             
     2     -2.7211652      7  1.900                                             
  local pseudopotential read in
  partial core-charges read in
  partial kinetic energy density read in
  atomic valenz-charges read in
  non local Contribution for L=           0  read in
    real space projection operators read in
  non local Contribution for L=           0  read in
    real space projection operators read in
  non local Contribution for L=           1  read in
    real space projection operators read in
  non local Contribution for L=           1  read in
    real space projection operators read in
    PAW grid and wavefunctions read in
 
   number of l-projection  operators is LMAX  =           4
   number of lm-projection operators is LMMAX =           8
 

 ----------------------------------------------------------------------------- 
|                                                                             |
|  ADVICE TO THIS USER RUNNING 'VASP/VAMP'   (HEAR YOUR MASTER'S VOICE ...):  |
|                                                                             |
|      You have a (more or less) 'large supercell' and for larger cells       |
|      it might be more efficient to use real space projection opertators     |
|      So try LREAL= Auto  in the INCAR   file.                               |
|      Mind: At the moment your POTCAR file does not contain real space       |
|       projectors, and has to be modified,  BUT if you                       |
|      want to do an extremely  accurate calculation you might also keep the  |
|      reciprocal projection scheme          (i.e. LREAL=.FALSE.)             |
|                                                                             |
 ----------------------------------------------------------------------------- 

  PAW_PBE O 08Apr2002                   :
 energy of atom  1       EATOM= -432.3788
 kinetic energy error for atom=    0.0208 (will be added to EATOM!!)
  PAW_PBE Mg 13Apr2007                  :
 energy of atom  2       EATOM=  -23.0369
 kinetic energy error for atom=    0.0000 (will be added to EATOM!!)
  PAW_PBE Al 04Jan2001                  :
 energy of atom  3       EATOM=  -53.5387
 kinetic energy error for atom=    0.0002 (will be added to EATOM!!)
 
 
 POSCAR: Layer                                   
  positions in direct lattice
  velocities in cartesian coordinates
 exchange correlation table for  LEXCH =        8
   RHO(1)=    0.500       N(1)  =     2000
   RHO(2)=  100.500       N(2)  =     4000
 


--------------------------------------------------------------------------------------------------------


 ion  position               nearest neighbor table
   1  0.552  0.448  0.372-  14 2.12  15 2.12  14 2.13  14 2.13  15 2.13  15 2.13
   2  0.500  0.500  0.526-  17 2.13  16 2.13  17 2.13  17 2.13  16 2.13  16 2.13
   3  0.448  0.552  0.680-  19 2.12  18 2.12  19 2.13  19 2.13  18 2.13  18 2.13
   4  0.236  0.764  0.321-  14 2.12  14 2.12  14 2.12  10 2.14  10 2.14  10 2.14
   5  0.868  0.132  0.423-  15 2.12  11 2.13  15 2.13  15 2.13  11 2.13  11 2.13
   6  0.184  0.816  0.474-  16 2.13  11 2.13  16 2.13  16 2.13  11 2.13  11 2.13
   7  0.816  0.184  0.577-  17 2.13  12 2.13  17 2.13  17 2.13  12 2.13  12 2.13
   8  0.132  0.868  0.628-  18 2.12  12 2.13  18 2.13  18 2.13  12 2.13  12 2.13
   9  0.764  0.236  0.731-  19 2.12  19 2.12  19 2.12  13 2.14  13 2.14  13 2.14
  10  0.578  0.422  0.295-   4 2.14   4 2.14   4 2.14  21 2.98  21 2.98  21 2.98  14 3.04  14 3.04
                            14 3.04
  11  0.526  0.474  0.449-   5 2.13   6 2.13   5 2.13   5 2.13   6 2.13   6 2.13  15 3.02  15 3.02
                            15 3.02  16 3.02  16 3.02  16 3.02
  12  0.474  0.526  0.603-   8 2.13   7 2.13   8 2.13   8 2.13   7 2.13   7 2.13  18 3.02  18 3.02
                            18 3.02  17 3.02  17 3.02  17 3.02
  13  0.422  0.578  0.757-   9 2.14   9 2.14   9 2.14  24 2.98  24 2.98  24 2.98  19 3.04  19 3.04
                            19 3.04
  14  0.894  0.106  0.346-   4 2.12   4 2.12   4 2.12   1 2.12   1 2.13   1 2.13  15 3.02  15 3.02
                            15 3.02  10 3.04  10 3.04  10 3.04
  15  0.210  0.790  0.398-   1 2.12   5 2.12   1 2.13   1 2.13   5 2.13   5 2.13  14 3.02  14 3.02
                            14 3.02  11 3.02  11 3.02  11 3.02
  16  0.842  0.158  0.500-   6 2.13   2 2.13   6 2.13   6 2.13   2 2.13   2 2.13  11 3.02  11 3.02
                            17 3.02  17 3.02  11 3.02  17 3.02
  17  0.158  0.842  0.551-   7 2.13   2 2.13   7 2.13   7 2.13   2 2.13   2 2.13  12 3.02  12 3.02
                            16 3.02  16 3.02  12 3.02  16 3.02
  18  0.790  0.210  0.654-   3 2.12   8 2.12   3 2.13   3 2.13   8 2.13   8 2.13  19 3.02  19 3.02
                            19 3.02  12 3.02  12 3.02  12 3.02
  19  0.106  0.894  0.705-   9 2.12   9 2.12   9 2.12   3 2.12   3 2.13   3 2.13  18 3.02  18 3.02
                            18 3.02  13 3.04  13 3.04  13 3.04
  20  1.000  0.000  0.026-  25 2.79  23 2.79  25 2.79  25 2.79  23 2.79  23 2.79
  21  0.929  0.071  0.244-  10 2.98  10 2.98  10 2.98
  22  0.635  0.365  0.118-  23 2.83  23 2.83  23 2.83
  23  0.318  0.682  0.071-  20 2.79  20 2.79  20 2.79  22 2.83  22 2.83  22 2.83
  24  0.071  0.929  0.807-  13 2.98  13 2.98  13 2.98
  25  0.682  0.318  0.980-  20 2.79  20 2.79  20 2.79  26 2.83  26 2.83  26 2.83
  26  0.365  0.635  0.934-  25 2.83  25 2.83  25 2.83
 
  LATTYP: Found a base centered monoclinic cell.
 ALAT       =     5.1835214829
 B/A-ratio  =     0.5778353023
 C/A-ratio  =     9.4679543750
 COS(beta)  =    -0.1513933022
  
  Lattice vectors:
  
 A1 = (  -2.5925900058,   1.4952752266,  -0.0518951648)
 A2 = (   0.0013482762,   2.9928857368,  -0.0518951490)
 A3 = (   4.7735158528,  -8.2679694689, -48.1397965290)


Analysis of symmetry for initial positions (statically):
=====================================================================
 Subroutine PRICEL returns:
 Original cell was already a primitive cell.
 

 Routine SETGRP: Setting up the symmetry group for a 
 base centered monoclinic supercell.


 Subroutine GETGRP returns: Found  2 space group operations
 (whereof  2 operations were pure point group operations)
 out of a pool of  4 trial point group operations.


The static configuration has the point symmetry C_1h.


Analysis of symmetry for dynamics (positions and initial velocities):
=====================================================================
 Subroutine PRICEL returns:
 Original cell was already a primitive cell.
 

 Routine SETGRP: Setting up the symmetry group for a 
 base centered monoclinic supercell.


 Subroutine GETGRP returns: Found  2 space group operations
 (whereof  2 operations were pure point group operations)
 out of a pool of  4 trial point group operations.


The dynamic configuration has the point symmetry C_1h.


Analysis of constrained symmetry for selective dynamics:
=====================================================================
 Subroutine PRICEL returns:
 Original cell was already a primitive cell.
 

 Routine SETGRP: Setting up the symmetry group for a 
 base centered monoclinic supercell.


 Subroutine GETGRP returns: Found  2 space group operations
 (whereof  2 operations were pure point group operations)
 out of a pool of  4 trial point group operations.


The constrained configuration has the point symmetry C_1h.
 
 
 KPOINTS: K-Spacing Value to Generate K-Mesh: 0.02

Automatic generation of k-mesh.
Space group operators:
 irot       det(A)        alpha          n_x          n_y          n_z        tau_x        tau_y        tau_z
    1     1.000000     0.000000     1.000000     0.000000     0.000000     0.000000     0.000000     0.000000
    2    -1.000000   180.000000     0.866025     0.500000     0.000000     0.000000     0.000000     0.000000
 
 Subroutine IBZKPT returns following result:
 ===========================================
 
 Found     49 irreducible k-points:
 
 Following reciprocal coordinates:
            Coordinates               Weight
  0.000000  0.000000  0.000000      1.000000
  0.076923 -0.000000  0.000000      4.000000
  0.153846 -0.000000  0.000000      4.000000
  0.230769 -0.000000  0.000000      4.000000
  0.307692 -0.000000  0.000000      4.000000
  0.384615 -0.000000  0.000000      4.000000
  0.461538 -0.000000  0.000000      4.000000
  0.076923  0.076923 -0.000000      2.000000
  0.153846  0.076923 -0.000000      4.000000
  0.230769  0.076923  0.000000      4.000000
  0.307692  0.076923  0.000000      4.000000
  0.384615  0.076923 -0.000000      4.000000
  0.461538  0.076923 -0.000000      4.000000
 -0.461538  0.076923  0.000000      4.000000
 -0.384615  0.076923  0.000000      4.000000
 -0.307692  0.076923  0.000000      4.000000
 -0.230769  0.076923  0.000000      4.000000
 -0.153846  0.076923 -0.000000      4.000000
 -0.076923  0.076923 -0.000000      2.000000
  0.153846  0.153846  0.000000      2.000000
  0.230769  0.153846 -0.000000      4.000000
  0.307692  0.153846 -0.000000      4.000000
  0.384615  0.153846  0.000000      4.000000
  0.461538  0.153846 -0.000000      4.000000
 -0.461538  0.153846  0.000000      4.000000
 -0.384615  0.153846  0.000000      4.000000
 -0.307692  0.153846  0.000000      4.000000
 -0.230769  0.153846  0.000000      4.000000
 -0.153846  0.153846  0.000000      2.000000
  0.230769  0.230769  0.000000      2.000000
  0.307692  0.230769  0.000000      4.000000
  0.384615  0.230769 -0.000000      4.000000
  0.461538  0.230769  0.000000      4.000000
 -0.461538  0.230769  0.000000      4.000000
 -0.384615  0.230769  0.000000      4.000000
 -0.307692  0.230769  0.000000      4.000000
 -0.230769  0.230769  0.000000      2.000000
  0.307692  0.307692 -0.000000      2.000000
  0.384615  0.307692 -0.000000      4.000000
  0.461538  0.307692 -0.000000      4.000000
 -0.461538  0.307692 -0.000000      4.000000
 -0.384615  0.307692  0.000000      4.000000
 -0.307692  0.307692  0.000000      2.000000
  0.384615  0.384615  0.000000      2.000000
  0.461538  0.384615  0.000000      4.000000
 -0.461538  0.384615 -0.000000      4.000000
 -0.384615  0.384615 -0.000000      2.000000
  0.461538  0.461538  0.000000      2.000000
 -0.461538  0.461538  0.000000      2.000000
 
 Following cartesian coordinates:
            Coordinates               Weight
  0.000000  0.000000  0.000000      1.000000
  0.029665 -0.000018 -0.000251      4.000000
  0.059330 -0.000035 -0.000502      4.000000
  0.088996 -0.000053 -0.000754      4.000000
  0.118661 -0.000071 -0.001005      4.000000
  0.148326 -0.000089 -0.001256      4.000000
  0.177991 -0.000106 -0.001507      4.000000
  0.044482  0.025682  0.000000      2.000000
  0.074148  0.025664 -0.000251      4.000000
  0.103813  0.025646 -0.000502      4.000000
  0.133478  0.025629 -0.000754      4.000000
  0.163143  0.025611 -0.001005      4.000000
  0.192808  0.025593 -0.001256      4.000000
 -0.163174  0.025806  0.001758      4.000000
 -0.133509  0.025788  0.001507      4.000000
 -0.103843  0.025771  0.001256      4.000000
 -0.074178  0.025753  0.001005      4.000000
 -0.044513  0.025735  0.000754      4.000000
 -0.014848  0.025717  0.000502      2.000000
  0.088965  0.051364  0.000000      2.000000
  0.118630  0.051346 -0.000251      4.000000
  0.148295  0.051328 -0.000502      4.000000
  0.177960  0.051311 -0.000754      4.000000
  0.207625  0.051293 -0.001005      4.000000
 -0.148357  0.051506  0.002010      4.000000
 -0.118691  0.051488  0.001758      4.000000
 -0.089026  0.051470  0.001507      4.000000
 -0.059361  0.051452  0.001256      4.000000
 -0.029696  0.051435  0.001005      2.000000
  0.133447  0.077046  0.000000      2.000000
  0.163112  0.077028 -0.000251      4.000000
  0.192778  0.077010 -0.000502      4.000000
  0.222443  0.076993 -0.000754      4.000000
 -0.133539  0.077205  0.002261      4.000000
 -0.103874  0.077188  0.002010      4.000000
 -0.074209  0.077170  0.001758      4.000000
 -0.044544  0.077152  0.001507      2.000000
  0.177930  0.102728  0.000000      2.000000
  0.207595  0.102710 -0.000251      4.000000
  0.237260  0.102692 -0.000502      4.000000
 -0.118722  0.102905  0.002512      4.000000
 -0.089057  0.102887  0.002261      4.000000
 -0.059392  0.102870  0.002010      2.000000
  0.222412  0.128410  0.000000      2.000000
  0.252077  0.128392 -0.000251      4.000000
 -0.103905  0.128605  0.002763      4.000000
 -0.074240  0.128587  0.002512      2.000000
  0.266894  0.154092  0.000000      2.000000
 -0.089088  0.154304  0.003014      2.000000
 


--------------------------------------------------------------------------------------------------------




 Dimension of arrays:
   k-points           NKPTS =     49   k-points in BZ     NKDIM =     49   number of bands    NBANDS=     62
   number of dos      NEDOS =    301   number of ions     NIONS =     26
   non local maximal  LDIM  =      5   non local SUM 2l+1 LMDIM =     13
   total plane-waves  NPLWV = 207360
   max r-space proj   IRMAX =      1   max aug-charges    IRDMAX= 188038
   dimension x,y,z NGX =    24 NGY =   24 NGZ =  360
   dimension x,y,z NGXF=    48 NGYF=   48 NGZF=  720
   support grid    NGXF=    96 NGYF=   96 NGZF= 1440
   ions per type =               9  10   7
 NGX,Y,Z   is equivalent  to a cutoff of  13.33, 13.33, 12.38 a.u.
 NGXF,Y,Z  is equivalent  to a cutoff of  26.66, 26.66, 24.75 a.u.


 I would recommend the setting:
   dimension x,y,z NGX =    22 NGY =   22 NGZ =  360
 SYSTEM =  unknown system                          
 POSCAR =  Layer                                   

 Startparameter for this run:
   NWRITE =      2    write-flag & timer
   PREC   = accura    normal or accurate (medium, high low for compatibility)
   ISTART =      0    job   : 0-new  1-cont  2-samecut
   ICHARG =      2    charge: 1-file 2-atom 10-const
   ISPIN  =      1    spin polarized calculation?
   LNONCOLLINEAR =      F non collinear calculations
   LSORBIT =      F    spin-orbit coupling
   INIWAV =      1    electr: 0-lowe 1-rand  2-diag
   LASPH  =      F    aspherical Exc in radial PAW
   METAGGA=      F    non-selfconsistent MetaGGA calc.

 Electronic Relaxation 1
   ENCUT  =  520.0 eV  38.22 Ry    6.18 a.u.   5.57  5.57 89.91*2*pi/ulx,y,z
   ENINI  =  520.0     initial cutoff
   ENAUG  =  605.4 eV  augmentation charge cutoff
   NELM   =    100;   NELMIN=  6; NELMDL=  0     # of ELM steps 
   EDIFF  = 0.1E-04   stopping-criterion for ELM
   LREAL  =      F    real-space projection
   NLSPLINE    = F    spline interpolate recip. space projectors
   LCOMPAT=      F    compatible to vasp.4.4
   GGA_COMPAT  = T    GGA compatible to vasp.4.4-vasp.4.6
   LMAXPAW     = -100 max onsite density
   LMAXMIX     =    2 max onsite mixed and CHGCAR
   VOSKOWN=      0    Vosko Wilk Nusair interpolation
   ROPT   =    0.00000   0.00000   0.00000
 Ionic relaxation
   EDIFFG = -.2E-01   stopping-criterion for IOM
   NSW    =    500    number of steps for IOM
   NBLOCK =      1;   KBLOCK =    500    inner block; outer block 
   IBRION =      2    ionic relax: 0-MD 1-quasi-New 2-CG
   NFREE  =      1    steps in history (QN), initial steepest desc. (CG)
   ISIF   =      2    stress and relaxation
   IWAVPR =     11    prediction:  0-non 1-charg 2-wave 3-comb
   ISYM   =      2    0-nonsym 1-usesym 2-fastsym
   LCORR  =      T    Harris-Foulkes like correction to forces

   POTIM  = 0.5000    time-step for ionic-motion
   TEIN   =    0.0    initial temperature
   TEBEG  =    0.0;   TEEND  =   0.0 temperature during run
   SMASS  =  -3.00    Nose mass-parameter (am)
   estimated Nose-frequenzy (Omega)   =  0.10E-29 period in steps =****** mass=  -0.205E-27a.u.
   SCALEE = 1.0000    scale energy and forces
   NPACO  =    256;   APACO  = 16.0  distance and # of slots for P.C.
   PSTRESS=    0.0 pullay stress

  Mass of Ions in am
   POMASS =  16.00 24.30 26.98
  Ionic Valenz
   ZVAL   =   6.00  2.00  3.00
  Atomic Wigner-Seitz radii
   RWIGS  =  -1.00 -1.00 -1.00
  virtual crystal weights 
   VCA    =   1.00  1.00  1.00
   NELECT =      95.0000    total number of electrons
   NUPDOWN=      -1.0000    fix difference up-down

 DOS related values:
   EMIN   =  10.00;   EMAX   =-10.00  energy-range for DOS
   EFERMI =   0.00
   ISMEAR =     0;   SIGMA  =   0.05  broadening in eV -4-tet -1-fermi 0-gaus

 Electronic relaxation 2 (details)
   IALGO  =     38    algorithm
   LDIAG  =      T    sub-space diagonalisation (order eigenvalues)
   LSUBROT=      F    optimize rotation matrix (better conditioning)
   TURBO    =      0    0=normal 1=particle mesh
   IRESTART =      0    0=no restart 2=restart with 2 vectors
   NREBOOT  =      0    no. of reboots
   NMIN     =      0    reboot dimension
   EREF     =   0.00    reference energy to select bands
   IMIX   =      4    mixing-type and parameters
     AMIX     =   0.40;   BMIX     =  1.00
     AMIX_MAG =   1.60;   BMIX_MAG =  1.00
     AMIN     =   0.01
     WC   =   100.;   INIMIX=   1;  MIXPRE=   1;  MAXMIX= -45

 Intra band minimization:
   WEIMIN = 0.0010     energy-eigenvalue tresh-hold
   EBREAK =  0.40E-07  absolut break condition
   DEPER  =   0.30     relativ break condition  

   TIME   =   0.40     timestep for ELM

  volume/ion in A,a.u.               =      14.43        97.36
  Fermi-wavevector in a.u.,A,eV,Ry     =   1.035766  1.957315 14.596496  1.072812
  Thomas-Fermi vector in A             =   2.170125
 
 Write flags
   LWAVE  =      F    write WAVECAR
   LCHARG =      T    write CHGCAR
   LVTOT  =      F    write LOCPOT, total local potential
   LVHAR  =      F    write LOCPOT, Hartree potential only
   LELF   =      F    write electronic localiz. function (ELF)
   LORBIT =      0    0 simple, 1 ext, 2 COOP (PROOUT)


 Dipole corrections
   LMONO  =      F    monopole corrections only (constant potential shift)
   LDIPOL =      F    correct potential (dipole corrections)
   IDIPOL =      0    1-x, 2-y, 3-z, 4-all directions 
   EPSILON=  1.0000000 bulk dielectric constant

 Exchange correlation treatment:
   GGA     =    --    GGA type
   LEXCH   =     8    internal setting for exchange type
   VOSKOWN=      0    Vosko Wilk Nusair interpolation
   LHFCALC =     F    Hartree Fock is set to
   LHFONE  =     F    Hartree Fock one center treatment
   AEXX    =    0.0000 exact exchange contribution

 Linear response parameters
   LEPSILON=     F    determine dielectric tensor
   LRPA    =     F    only Hartree local field effects (RPA)
   LNABLA  =     F    use nabla operator in PAW spheres
   LVEL    =     F    velocity operator in full k-point grid
   LINTERFAST=   F  fast interpolation
   KINTER  =     0    interpolate to denser k-point grid
   CSHIFT  =0.1000    complex shift for real part using Kramers Kronig
   OMEGAMAX=  -1.0    maximum frequency
   DEG_THRESHOLD= 0.2000000E-02 threshold for treating states as degnerate
   RTIME   =    0.100 relaxation time in fs

 Orbital magnetization related:
   ORBITALMAG=     F  switch on orbital magnetization
   LCHIMAG   =     F  perturbation theory with respect to B field
   DQ        =  0.001000  dq finite difference perturbation B field



--------------------------------------------------------------------------------------------------------


 conjugate gradient relaxation of ions
   using selective dynamics as specified on POSCAR
 charge density and potential will be updated during run
 non-spin polarized calculation
 Variant of blocked Davidson
 Davidson routine will perform the subspace rotation
 perform sub-space diagonalisation
    after iterative eigenvector-optimisation
 modified Broyden-mixing scheme, WC =      100.0
 initial mixing is a Kerker type mixing with AMIX =  0.4000 and BMIX =      1.0000
 Hartree-type preconditioning will be used
 using additional bands           14
 reciprocal scheme for non local part
 use partial core corrections
 calculate Harris-corrections to forces 
   (improved forces if not selfconsistent)
 use gradient corrections 
 use of overlap-Matrix (Vanderbilt PP)
 Gauss-broadening in eV      SIGMA  =   0.05


--------------------------------------------------------------------------------------------------------


  energy-cutoff  :      520.00
  volume of cell :      375.11
      direct lattice vectors                 reciprocal lattice vectors
     2.592590006 -1.495275227  0.051895165     0.385647179 -0.000230354 -0.003265542
     0.001348276  2.992885737 -0.051895149     0.192624097  0.334095533  0.003265542
     0.408967606 -0.708352458 48.347377156    -0.000207187  0.000358859  0.020690656

  length of vectors
     2.993336608  2.993335925 48.354295524     0.385661074  0.385661162  0.020694805


 
 k-points in units of 2pi/SCALE and weight: K-Spacing Value to Generate K-Mesh: 0.02
   0.00000000  0.00000000  0.00000000       0.006
   0.02966517 -0.00001772 -0.00025120       0.024
   0.05933034 -0.00003544 -0.00050239       0.024
   0.08899550 -0.00005316 -0.00075359       0.024
   0.11866067 -0.00007088 -0.00100478       0.024
   0.14832584 -0.00008860 -0.00125598       0.024
   0.17799101 -0.00010632 -0.00150717       0.024
   0.04448241  0.02568194  0.00000000       0.012
   0.07414757  0.02566422 -0.00025120       0.024
   0.10381274  0.02564650 -0.00050239       0.024
   0.13347791  0.02562878 -0.00075359       0.024
   0.16314308  0.02561106 -0.00100478       0.024
   0.19280824  0.02559334 -0.00125598       0.024
  -0.16317377  0.02580597  0.00175837       0.024
  -0.13350860  0.02578825  0.00150717       0.024
  -0.10384343  0.02577053  0.00125598       0.024
  -0.07417826  0.02575282  0.00100478       0.024
  -0.04451310  0.02573510  0.00075359       0.024
  -0.01484793  0.02571738  0.00050239       0.012
   0.08896481  0.05136387  0.00000000       0.012
   0.11862998  0.05134615 -0.00025120       0.024
   0.14829515  0.05132843 -0.00050239       0.024
   0.17796031  0.05131071 -0.00075359       0.024
   0.20762548  0.05129300 -0.00100478       0.024
  -0.14835653  0.05150563  0.00200956       0.024
  -0.11869136  0.05148791  0.00175837       0.024
  -0.08902619  0.05147019  0.00150717       0.024
  -0.05936103  0.05145247  0.00125598       0.024
  -0.02969586  0.05143475  0.00100478       0.012
   0.13344722  0.07704581  0.00000000       0.012
   0.16311239  0.07702809 -0.00025120       0.024
   0.19277755  0.07701037 -0.00050239       0.024
   0.22244272  0.07699265 -0.00075359       0.024
  -0.13353929  0.07720529  0.00226076       0.024
  -0.10387412  0.07718757  0.00200956       0.024
  -0.07420896  0.07716985  0.00175837       0.024
  -0.04454379  0.07715213  0.00150717       0.012
   0.17792962  0.10272775  0.00000000       0.012
   0.20759479  0.10271003 -0.00025120       0.024
   0.23725996  0.10269231 -0.00050239       0.024
  -0.11872205  0.10290494  0.00251196       0.024
  -0.08905689  0.10288722  0.00226076       0.024
  -0.05939172  0.10286950  0.00200956       0.012
   0.22241203  0.12840968  0.00000000       0.012
   0.25207720  0.12839196 -0.00025120       0.024
  -0.10390481  0.12860460  0.00276315       0.024
  -0.07423965  0.12858688  0.00251196       0.012
   0.26689444  0.15409162  0.00000000       0.012
  -0.08908758  0.15430426  0.00301435       0.012
 
 k-points in reciprocal lattice and weights: K-Spacing Value to Generate K-Mesh: 0.02
   0.00000000  0.00000000  0.00000000       0.006
   0.07692308 -0.00000000  0.00000000       0.024
   0.15384615 -0.00000000  0.00000000       0.024
   0.23076923 -0.00000000  0.00000000       0.024
   0.30769231 -0.00000000  0.00000000       0.024
   0.38461538 -0.00000000  0.00000000       0.024
   0.46153846 -0.00000000  0.00000000       0.024
   0.07692308  0.07692308 -0.00000000       0.012
   0.15384615  0.07692308 -0.00000000       0.024
   0.23076923  0.07692308  0.00000000       0.024
   0.30769231  0.07692308  0.00000000       0.024
   0.38461538  0.07692308 -0.00000000       0.024
   0.46153846  0.07692308 -0.00000000       0.024
  -0.46153846  0.07692308  0.00000000       0.024
  -0.38461538  0.07692308  0.00000000       0.024
  -0.30769231  0.07692308  0.00000000       0.024
  -0.23076923  0.07692308  0.00000000       0.024
  -0.15384615  0.07692308 -0.00000000       0.024
  -0.07692308  0.07692308 -0.00000000       0.012
   0.15384615  0.15384615  0.00000000       0.012
   0.23076923  0.15384615 -0.00000000       0.024
   0.30769231  0.15384615 -0.00000000       0.024
   0.38461538  0.15384615  0.00000000       0.024
   0.46153846  0.15384615 -0.00000000       0.024
  -0.46153846  0.15384615  0.00000000       0.024
  -0.38461538  0.15384615  0.00000000       0.024
  -0.30769231  0.15384615  0.00000000       0.024
  -0.23076923  0.15384615  0.00000000       0.024
  -0.15384615  0.15384615  0.00000000       0.012
   0.23076923  0.23076923  0.00000000       0.012
   0.30769231  0.23076923  0.00000000       0.024
   0.38461538  0.23076923 -0.00000000       0.024
   0.46153846  0.23076923  0.00000000       0.024
  -0.46153846  0.23076923  0.00000000       0.024
  -0.38461538  0.23076923  0.00000000       0.024
  -0.30769231  0.23076923  0.00000000       0.024
  -0.23076923  0.23076923  0.00000000       0.012
   0.30769231  0.30769231 -0.00000000       0.012
   0.38461538  0.30769231 -0.00000000       0.024
   0.46153846  0.30769231 -0.00000000       0.024
  -0.46153846  0.30769231 -0.00000000       0.024
  -0.38461538  0.30769231  0.00000000       0.024
  -0.30769231  0.30769231  0.00000000       0.012
   0.38461538  0.38461538  0.00000000       0.012
   0.46153846  0.38461538  0.00000000       0.024
  -0.46153846  0.38461538 -0.00000000       0.024
  -0.38461538  0.38461538 -0.00000000       0.012
   0.46153846  0.46153846  0.00000000       0.012
  -0.46153846  0.46153846  0.00000000       0.012
 
 position of ions in fractional coordinates (direct lattice) 
   0.55209304  0.44790696  0.37197153
   0.50002116  0.49997884  0.52576374
   0.44795388  0.55204612  0.67954486
   0.23614989  0.76385011  0.32085787
   0.86803688  0.13196312  0.42318309
   0.18401125  0.81598875  0.47447487
   0.81603431  0.18396569  0.57704541
   0.13200998  0.86799002  0.62833571
   0.76389795  0.23610205  0.73065683
   0.57840482  0.42159518  0.29461757
   0.52601822  0.47398178  0.44881968
   0.47402827  0.52597173  0.60270126
   0.42164364  0.57835636  0.75689683
   0.89412083  0.10587917  0.34637737
   0.21005202  0.78994798  0.39757369
   0.84201966  0.15798034  0.50010644
   0.15802610  0.84197390  0.55141454
   0.78999501  0.21000499  0.65394503
   0.10592537  0.89407463  0.70514060
   0.99990226  0.00009774  0.02591407
   0.92899099  0.07100901  0.24428071
   0.63495385  0.36504615  0.11774445
   0.31766702  0.68233298  0.07134160
   0.07105839  0.92894161  0.80723354
   0.68213679  0.31786321  0.98048729
   0.36484843  0.63515157  0.93408642
 
 position of ions in cartesian coordinates  (Angst):
   1.58407912  0.25151634 17.98925475
   1.51204430  0.37628426 25.41930021
   1.44001690  0.50103934 32.84880957
   0.74449019  1.70572658 15.48525119
   2.42370985 -1.20276630 20.49799133
   0.67221077  1.83091817 22.90681878
   2.35188331 -1.07835913 27.93143354
   0.60038700  1.95532054 30.34018962
   2.27960749 -0.95317377 35.35273156
   1.62062403  0.18821871 14.25212448
   1.54794134  0.31410879 21.70195474
   1.47615539  0.43844566 29.13632961
   1.40347515  0.56433148 36.58584365
   2.45988861 -1.26542973 16.78734327
   0.70823861  1.76851614 19.19155148
   2.38775209 -1.14048565 24.21433277
   0.63634280  1.89304330 26.62395319
   2.31585864 -1.01596258 31.64662555
   0.56420617  2.01798756 34.05079724
   2.60293474 -1.51319283  1.30476227
   2.50849138 -1.34961218 11.85485672
   1.69482085  0.05970609  5.70664224
   0.85367672  1.51661001  3.43025507
   0.51561011  2.10215837 38.98310450
   2.16991713 -0.76318455 47.42289303
   1.32876984  0.69372484 45.14660106
 


--------------------------------------------------------------------------------------------------------


 k-point  1 :   0.0000 0.0000 0.0000  plane waves:   10233
 k-point  2 :   0.0769-0.0000 0.0000  plane waves:   10227
 k-point  3 :   0.1538-0.0000 0.0000  plane waves:   10197
 k-point  4 :   0.2308-0.0000 0.0000  plane waves:   10161
 k-point  5 :   0.3077-0.0000 0.0000  plane waves:   10100
 k-point  6 :   0.3846-0.0000 0.0000  plane waves:   10038
 k-point  7 :   0.4615-0.0000 0.0000  plane waves:   10060
 k-point  8 :   0.0769 0.0769-0.0000  plane waves:   10219
 k-point  9 :   0.1538 0.0769-0.0000  plane waves:   10178
 k-point 10 :   0.2308 0.0769 0.0000  plane waves:   10124
 k-point 11 :   0.3077 0.0769 0.0000  plane waves:   10095
 k-point 12 :   0.3846 0.0769-0.0000  plane waves:   10049
 k-point 13 :   0.4615 0.0769-0.0000  plane waves:   10013
 k-point 14 :  -0.4615 0.0769 0.0000  plane waves:   10047
 k-point 15 :  -0.3846 0.0769 0.0000  plane waves:   10096
 k-point 16 :  -0.3077 0.0769 0.0000  plane waves:   10120
 k-point 17 :  -0.2308 0.0769 0.0000  plane waves:   10177
 k-point 18 :  -0.1538 0.0769-0.0000  plane waves:   10207
 k-point 19 :  -0.0769 0.0769-0.0000  plane waves:   10227
 k-point 20 :   0.1538 0.1538 0.0000  plane waves:   10137
 k-point 21 :   0.2308 0.1538-0.0000  plane waves:   10104
 k-point 22 :   0.3077 0.1538-0.0000  plane waves:   10080
 k-point 23 :   0.3846 0.1538 0.0000  plane waves:   10036
 k-point 24 :   0.4615 0.1538-0.0000  plane waves:   10037
 k-point 25 :  -0.4615 0.1538 0.0000  plane waves:   10081
 k-point 26 :  -0.3846 0.1538 0.0000  plane waves:   10095
 k-point 27 :  -0.3077 0.1538 0.0000  plane waves:   10132
 k-point 28 :  -0.2308 0.1538 0.0000  plane waves:   10180
 k-point 29 :  -0.1538 0.1538 0.0000  plane waves:   10201
 k-point 30 :   0.2308 0.2308 0.0000  plane waves:   10086
 k-point 31 :   0.3077 0.2308 0.0000  plane waves:   10046
 k-point 32 :   0.3846 0.2308-0.0000  plane waves:   10065
 k-point 33 :   0.4615 0.2308 0.0000  plane waves:   10052
 k-point 34 :  -0.4615 0.2308 0.0000  plane waves:   10092
 k-point 35 :  -0.3846 0.2308 0.0000  plane waves:   10108
 k-point 36 :  -0.3077 0.2308 0.0000  plane waves:   10121
 k-point 37 :  -0.2308 0.2308 0.0000  plane waves:   10166
 k-point 38 :   0.3077 0.3077-0.0000  plane waves:   10098
 k-point 39 :   0.3846 0.3077-0.0000  plane waves:   10084
 k-point 40 :   0.4615 0.3077-0.0000  plane waves:   10045
 k-point 41 :  -0.4615 0.3077-0.0000  plane waves:   10080
 k-point 42 :  -0.3846 0.3077 0.0000  plane waves:   10089
 k-point 43 :  -0.3077 0.3077 0.0000  plane waves:   10108
 k-point 44 :   0.3846 0.3846 0.0000  plane waves:   10078
 k-point 45 :   0.4615 0.3846 0.0000  plane waves:   10036
 k-point 46 :  -0.4615 0.3846-0.0000  plane waves:   10048
 k-point 47 :  -0.3846 0.3846-0.0000  plane waves:   10045
 k-point 48 :   0.4615 0.4615 0.0000  plane waves:   10014
 k-point 49 :  -0.4615 0.4615 0.0000  plane waves:   10050

 maximum and minimum number of plane-waves per node :      2582     2471

 maximum number of plane-waves:     10233
 maximum index in each direction: 
   IXMAX=    6   IYMAX=    5   IZMAX=   89
   IXMIN=   -6   IYMIN=   -6   IZMIN=  -89

 WARNING: aliasing errors must be expected set NGX to  26 to avoid them
 NGY is ok and might be reduce to  24
 NGZ is ok and might be reduce to 358
 aliasing errors are usually negligible using standard VASP settings
 and one can safely disregard these warnings

 parallel 3D FFT for wavefunctions:
    minimum data exchange during FFTs selected (reduces bandwidth)
 parallel 3D FFT for charge:
    minimum data exchange during FFTs selected (reduces bandwidth)


 total amount of memory used by VASP on root node   221424. kBytes
========================================================================

   base      :      30000. kBytes
   nonl-proj :      40296. kBytes
   fftplans  :      62076. kBytes
   grid      :      24883. kBytes
   one-center:         56. kBytes
   wavefun   :      64113. kBytes
 
     INWAV:  cpu time    0.00: real time    0.00
 Broyden mixing: mesh for mixing (old mesh)
   NGX = 11   NGY = 11   NGZ =179
  (NGX  = 48   NGY  = 48   NGZ  =720)
  gives a total of  21659 points

 initial charge density was supplied:
 charge density of overlapping atoms calculated
 number of electron      95.0000000 magnetization 
 keeping initial charge density in first step


--------------------------------------------------------------------------------------------------------


 Maximum index for augmentation-charges        22912 (set IRDMAX)


--------------------------------------------------------------------------------------------------------


 First call to EWALD:  gamma=   0.246
 Maximum number of real-space cells 7x 7x 1
 Maximum number of reciprocal cells 1x 1x16

 FEWALD executed in parallel
    FEWALD:  cpu time    0.00: real time    0.00


----------------------------------------- Iteration    1(   1)  ---------------------------------------


    POTLOK:  cpu time    0.11: real time    0.11
    SETDIJ:  cpu time    0.10: real time    0.10
     EDDAV:  cpu time   10.39: real time   10.40
       DOS:  cpu time    0.00: real time    0.00
    --------------------------------------------
      LOOP:  cpu time   10.61: real time   10.62

 eigenvalue-minimisations  :  6108
 total energy-change (2. order) : 0.5186754E+03  (-0.4064873E+04)
 number of electron      95.0000000 magnetization 
 augmentation part       95.0000000 magnetization 

 Free energy of the ion-electron system (eV)
  ---------------------------------------------------
  alpha Z        PSCENC =       107.79190663
  Ewald energy   TEWEN  =     32342.04400090
  -Hartree energ DENC   =    -36926.89354709
  -exchange      EXHF   =         0.00000000
  -V(xc)+E(xc)   XCENC  =      -419.67232067
  PAW double counting   =      4235.41334458    -3509.29226066
  entropy T*S    EENTRO =        -0.00647637
  eigenvalues    EBANDS =       192.93105980
  atomic energy  EATOM  =      4496.35971583
  ---------------------------------------------------
  free energy    TOTEN  =       518.67542294 eV

  energy without entropy =      518.68189932  energy(sigma->0) =      518.67866113


--------------------------------------------------------------------------------------------------------




----------------------------------------- Iteration    1(   2)  ---------------------------------------


     EDDAV:  cpu time   12.30: real time   12.31
       DOS:  cpu time    0.00: real time    0.00
    --------------------------------------------
      LOOP:  cpu time   12.30: real time   12.31

 eigenvalue-minimisations  :  7920
 total energy-change (2. order) :-0.5959599E+03  (-0.5617806E+03)
 number of electron      95.0000000 magnetization 
 augmentation part       95.0000000 magnetization 

 Free energy of the ion-electron system (eV)
  ---------------------------------------------------
  alpha Z        PSCENC =       107.79190663
  Ewald energy   TEWEN  =     32342.04400090
  -Hartree energ DENC   =    -36926.89354709
  -exchange      EXHF   =         0.00000000
  -V(xc)+E(xc)   XCENC  =      -419.67232067
  PAW double counting   =      4235.41334458    -3509.29226066
  entropy T*S    EENTRO =        -0.00434318
  eigenvalues    EBANDS =      -403.03095170
  atomic energy  EATOM  =      4496.35971583
  ---------------------------------------------------
  free energy    TOTEN  =       -77.28445537 eV

  energy without entropy =      -77.28011219  energy(sigma->0) =      -77.28228378


--------------------------------------------------------------------------------------------------------




----------------------------------------- Iteration    1(   3)  ---------------------------------------


     EDDAV:  cpu time   11.39: real time   11.40
       DOS:  cpu time    0.00: real time    0.00
    --------------------------------------------
      LOOP:  cpu time   11.39: real time   11.40

 eigenvalue-minimisations  :  7186
 total energy-change (2. order) :-0.6893041E+02  (-0.6850415E+02)
 number of electron      95.0000000 magnetization 
 augmentation part       95.0000000 magnetization 

 Free energy of the ion-electron system (eV)
  ---------------------------------------------------
  alpha Z        PSCENC =       107.79190663
  Ewald energy   TEWEN  =     32342.04400090
  -Hartree energ DENC   =    -36926.89354709
  -exchange      EXHF   =         0.00000000
  -V(xc)+E(xc)   XCENC  =      -419.67232067
  PAW double counting   =      4235.41334458    -3509.29226066
  entropy T*S    EENTRO =        -0.00884814
  eigenvalues    EBANDS =      -471.95685409
  atomic energy  EATOM  =      4496.35971583
  ---------------------------------------------------
  free energy    TOTEN  =      -146.21486273 eV

  energy without entropy =     -146.20601458  energy(sigma->0) =     -146.21043866


--------------------------------------------------------------------------------------------------------




----------------------------------------- Iteration    1(   4)  ---------------------------------------


     EDDAV:  cpu time   11.37: real time   11.37
       DOS:  cpu time    0.00: real time    0.00
    --------------------------------------------
      LOOP:  cpu time   11.37: real time   11.38

 eigenvalue-minimisations  :  7248
 total energy-change (2. order) :-0.1480527E+01  (-0.1477070E+01)
 number of electron      95.0000000 magnetization 
 augmentation part       95.0000000 magnetization 

 Free energy of the ion-electron system (eV)
  ---------------------------------------------------
  alpha Z        PSCENC =       107.79190663
  Ewald energy   TEWEN  =     32342.04400090
  -Hartree energ DENC   =    -36926.89354709
  -exchange      EXHF   =         0.00000000
  -V(xc)+E(xc)   XCENC  =      -419.67232067
  PAW double counting   =      4235.41334458    -3509.29226066
  entropy T*S    EENTRO =        -0.00915779
  eigenvalues    EBANDS =      -473.43707131
  atomic energy  EATOM  =      4496.35971583
  ---------------------------------------------------
  free energy    TOTEN  =      -147.69538959 eV

  energy without entropy =     -147.68623180  energy(sigma->0) =     -147.69081070


--------------------------------------------------------------------------------------------------------




----------------------------------------- Iteration    1(   5)  ---------------------------------------


     EDDAV:  cpu time   12.08: real time   12.08
       DOS:  cpu time    0.00: real time    0.00
    CHARGE:  cpu time    0.79: real time    0.79
    MIXING:  cpu time    0.00: real time    0.00
    --------------------------------------------
      LOOP:  cpu time   12.88: real time   12.88

 eigenvalue-minimisations  :  7834
 total energy-change (2. order) :-0.3816447E-01  (-0.3813668E-01)
 number of electron      95.0000001 magnetization 
 augmentation part        6.9453162 magnetization 

 Broyden mixing:
  rms(total) = 0.22064E+01    rms(broyden)= 0.22059E+01
  rms(prec ) = 0.22568E+01
  weight for this iteration     100.00

 Free energy of the ion-electron system (eV)
  ---------------------------------------------------
  alpha Z        PSCENC =       107.79190663
  Ewald energy   TEWEN  =     32342.04400090
  -Hartree energ DENC   =    -36926.89354709
  -exchange      EXHF   =         0.00000000
  -V(xc)+E(xc)   XCENC  =      -419.67232067
  PAW double counting   =      4235.41334458    -3509.29226066
  entropy T*S    EENTRO =        -0.00917029
  eigenvalues    EBANDS =      -473.47522328
  atomic energy  EATOM  =      4496.35971583
  ---------------------------------------------------
  free energy    TOTEN  =      -147.73355406 eV

  energy without entropy =     -147.72438377  energy(sigma->0) =     -147.72896892


--------------------------------------------------------------------------------------------------------




----------------------------------------- Iteration    1(   6)  ---------------------------------------


    POTLOK:  cpu time    0.11: real time    0.11
    SETDIJ:  cpu time    0.10: real time    0.10
     EDDAV:  cpu time   11.06: real time   11.07
       DOS:  cpu time    0.00: real time    0.00
    CHARGE:  cpu time    0.76: real time    0.76
    MIXING:  cpu time    0.00: real time    0.00
    --------------------------------------------
      LOOP:  cpu time   12.04: real time   12.05

 eigenvalue-minimisations  :  6966
 total energy-change (2. order) : 0.1499506E+02  (-0.8244129E+01)
 number of electron      95.0000001 magnetization 
 augmentation part        5.6392569 magnetization 

 Broyden mixing:
  rms(total) = 0.73681E+00    rms(broyden)= 0.73586E+00
  rms(prec ) = 0.74415E+00
  weight for this iteration     100.00

 eigenvalues of (default mixing * dielectric matrix)
  average eigenvalue GAMMA=   0.8509
  0.8509

 Free energy of the ion-electron system (eV)
  ---------------------------------------------------
  alpha Z        PSCENC =       107.79190663
  Ewald energy   TEWEN  =     32342.04400090
  -Hartree energ DENC   =    -37104.32516281
  -exchange      EXHF   =         0.00000000
  -V(xc)+E(xc)   XCENC  =      -407.51592103
  PAW double counting   =      5032.49047953    -4309.54362638
  entropy T*S    EENTRO =        -0.00334457
  eigenvalues    EBANDS =      -290.03654275
  atomic energy  EATOM  =      4496.35971583
  ---------------------------------------------------
  free energy    TOTEN  =      -132.73849464 eV

  energy without entropy =     -132.73515007  energy(sigma->0) =     -132.73682235


--------------------------------------------------------------------------------------------------------




----------------------------------------- Iteration    1(   7)  ---------------------------------------


    POTLOK:  cpu time    0.11: real time    0.11
    SETDIJ:  cpu time    0.10: real time    0.10
     EDDAV:  cpu time   10.72: real time   10.73
       DOS:  cpu time    0.00: real time    0.00
    CHARGE:  cpu time    0.77: real time    0.77
    MIXING:  cpu time    0.00: real time    0.00
    --------------------------------------------
      LOOP:  cpu time   11.71: real time   11.71

 eigenvalue-minimisations  :  6670
 total energy-change (2. order) : 0.1557502E+00  (-0.1842127E+00)
 number of electron      95.0000001 magnetization 
 augmentation part        5.6609834 magnetization 

 Broyden mixing:
  rms(total) = 0.45825E+00    rms(broyden)= 0.45823E+00
  rms(prec ) = 0.46335E+00
  weight for this iteration     100.00

 eigenvalues of (default mixing * dielectric matrix)
  average eigenvalue GAMMA=   1.5904
  0.9936  2.1873

 Free energy of the ion-electron system (eV)
  ---------------------------------------------------
  alpha Z        PSCENC =       107.79190663
  Ewald energy   TEWEN  =     32342.04400090
  -Hartree energ DENC   =    -37107.25573706
  -exchange      EXHF   =         0.00000000
  -V(xc)+E(xc)   XCENC  =      -406.99425555
  PAW double counting   =      5326.39755020    -4603.07334643
  entropy T*S    EENTRO =        -0.00467657
  eigenvalues    EBANDS =      -287.84790243
  atomic energy  EATOM  =      4496.35971583
  ---------------------------------------------------
  free energy    TOTEN  =      -132.58274448 eV

  energy without entropy =     -132.57806791  energy(sigma->0) =     -132.58040620


--------------------------------------------------------------------------------------------------------




----------------------------------------- Iteration    1(   8)  ---------------------------------------


    POTLOK:  cpu time    0.11: real time    0.11
    SETDIJ:  cpu time    0.10: real time    0.10
     EDDAV:  cpu time   11.06: real time   11.06
       DOS:  cpu time    0.00: real time    0.00
    CHARGE:  cpu time    0.76: real time    0.76
    MIXING:  cpu time    0.00: real time    0.00
    --------------------------------------------
      LOOP:  cpu time   12.04: real time   12.04

 eigenvalue-minimisations  :  6964
 total energy-change (2. order) : 0.1422720E+00  (-0.6323060E-01)
 number of electron      95.0000001 magnetization 
 augmentation part        5.7153752 magnetization 

 Broyden mixing:
  rms(total) = 0.10473E+00    rms(broyden)= 0.10468E+00
  rms(prec ) = 0.12320E+00
  weight for this iteration     100.00

 eigenvalues of (default mixing * dielectric matrix)
  average eigenvalue GAMMA=   1.3534
  2.4033  0.9424  0.7146

 Free energy of the ion-electron system (eV)
  ---------------------------------------------------
  alpha Z        PSCENC =       107.79190663
  Ewald energy   TEWEN  =     32342.04400090
  -Hartree energ DENC   =    -37117.12588820
  -exchange      EXHF   =         0.00000000
  -V(xc)+E(xc)   XCENC  =      -405.60647551
  PAW double counting   =      5788.17333228    -5064.58539663
  entropy T*S    EENTRO =        -0.00315340
  eigenvalues    EBANDS =      -279.48851441
  atomic energy  EATOM  =      4496.35971583
  ---------------------------------------------------
  free energy    TOTEN  =      -132.44047252 eV

  energy without entropy =     -132.43731912  energy(sigma->0) =     -132.43889582


--------------------------------------------------------------------------------------------------------




----------------------------------------- Iteration    1(   9)  ---------------------------------------


    POTLOK:  cpu time    0.11: real time    0.11
    SETDIJ:  cpu time    0.10: real time    0.10
     EDDAV:  cpu time   11.10: real time   11.10
       DOS:  cpu time    0.00: real time    0.00
    CHARGE:  cpu time    0.77: real time    0.77
    MIXING:  cpu time    0.00: real time    0.00
    --------------------------------------------
      LOOP:  cpu time   12.08: real time   12.09

 eigenvalue-minimisations  :  6988
 total energy-change (2. order) : 0.2168036E-01  (-0.9394664E-02)
 number of electron      95.0000001 magnetization 
 augmentation part        5.6911768 magnetization 

 Broyden mixing:
  rms(total) = 0.61111E-01    rms(broyden)= 0.61110E-01
  rms(prec ) = 0.69224E-01
  weight for this iteration     100.00

 eigenvalues of (default mixing * dielectric matrix)
  average eigenvalue GAMMA=   1.2979
  2.4235  0.9830  0.8925  0.8925

 Free energy of the ion-electron system (eV)
  ---------------------------------------------------
  alpha Z        PSCENC =       107.79190663
  Ewald energy   TEWEN  =     32342.04400090
  -Hartree energ DENC   =    -37123.11341563
  -exchange      EXHF   =         0.00000000
  -V(xc)+E(xc)   XCENC  =      -405.13909350
  PAW double counting   =      5837.18295742    -5113.63170937
  entropy T*S    EENTRO =        -0.00826427
  eigenvalues    EBANDS =      -273.90489016
  atomic energy  EATOM  =      4496.35971583
  ---------------------------------------------------
  free energy    TOTEN  =      -132.41879216 eV

  energy without entropy =     -132.41052788  energy(sigma->0) =     -132.41466002


--------------------------------------------------------------------------------------------------------




----------------------------------------- Iteration    1(  10)  ---------------------------------------


    POTLOK:  cpu time    0.11: real time    0.11
    SETDIJ:  cpu time    0.10: real time    0.10
     EDDAV:  cpu time   11.06: real time   11.06
       DOS:  cpu time    0.00: real time    0.00
    CHARGE:  cpu time    0.76: real time    0.76
    MIXING:  cpu time    0.00: real time    0.00
    --------------------------------------------
      LOOP:  cpu time   12.04: real time   12.04

 eigenvalue-minimisations  :  6960
 total energy-change (2. order) : 0.3149795E-02  (-0.4054278E-02)
 number of electron      95.0000001 magnetization 
 augmentation part        5.6829696 magnetization 

 Broyden mixing:
  rms(total) = 0.35376E-01    rms(broyden)= 0.35369E-01
  rms(prec ) = 0.41560E-01
  weight for this iteration     100.00

 eigenvalues of (default mixing * dielectric matrix)
  average eigenvalue GAMMA=   1.2782
  2.5123  1.7515  0.9008  0.8216  0.4049

 Free energy of the ion-electron system (eV)
  ---------------------------------------------------
  alpha Z        PSCENC =       107.79190663
  Ewald energy   TEWEN  =     32342.04400090
  -Hartree energ DENC   =    -37124.53467965
  -exchange      EXHF   =         0.00000000
  -V(xc)+E(xc)   XCENC  =      -405.03185035
  PAW double counting   =      5832.35938324    -5108.82497462
  entropy T*S    EENTRO =        -0.00727757
  eigenvalues    EBANDS =      -272.57186677
  atomic energy  EATOM  =      4496.35971583
  ---------------------------------------------------
  free energy    TOTEN  =      -132.41564236 eV

  energy without entropy =     -132.40836480  energy(sigma->0) =     -132.41200358


--------------------------------------------------------------------------------------------------------




----------------------------------------- Iteration    1(  11)  ---------------------------------------


    POTLOK:  cpu time    0.11: real time    0.11
    SETDIJ:  cpu time    0.10: real time    0.10
     EDDAV:  cpu time   11.45: real time   11.45
       DOS:  cpu time    0.00: real time    0.00
    CHARGE:  cpu time    0.77: real time    0.77
    MIXING:  cpu time    0.01: real time    0.01
    --------------------------------------------
      LOOP:  cpu time   12.43: real time   12.43

 eigenvalue-minimisations  :  7298
 total energy-change (2. order) :-0.4718232E-02  (-0.2101948E-02)
 number of electron      95.0000001 magnetization 
 augmentation part        5.6733877 magnetization 

 Broyden mixing:
  rms(total) = 0.25142E-01    rms(broyden)= 0.25132E-01
  rms(prec ) = 0.27845E-01
  weight for this iteration     100.00

 eigenvalues of (default mixing * dielectric matrix)
  average eigenvalue GAMMA=   1.2646
  2.5776  2.0164  0.9595  0.8027  0.8027  0.4287

 Free energy of the ion-electron system (eV)
  ---------------------------------------------------
  alpha Z        PSCENC =       107.79190663
  Ewald energy   TEWEN  =     32342.04400090
  -Hartree energ DENC   =    -37127.84786274
  -exchange      EXHF   =         0.00000000
  -V(xc)+E(xc)   XCENC  =      -404.85025610
  PAW double counting   =      5803.62890676    -5080.11592067
  entropy T*S    EENTRO =        -0.00778987
  eigenvalues    EBANDS =      -269.42306134
  atomic energy  EATOM  =      4496.35971583
  ---------------------------------------------------
  free energy    TOTEN  =      -132.42036059 eV

  energy without entropy =     -132.41257073  energy(sigma->0) =     -132.41646566


--------------------------------------------------------------------------------------------------------




----------------------------------------- Iteration    1(  12)  ---------------------------------------


    POTLOK:  cpu time    0.11: real time    0.11
    SETDIJ:  cpu time    0.10: real time    0.10
     EDDAV:  cpu time   11.69: real time   11.69
       DOS:  cpu time    0.00: real time    0.00
    CHARGE:  cpu time    0.77: real time    0.77
    MIXING:  cpu time    0.00: real time    0.00
    --------------------------------------------
      LOOP:  cpu time   12.67: real time   12.68

 eigenvalue-minimisations  :  7494
 total energy-change (2. order) :-0.8728926E-03  (-0.4203853E-03)
 number of electron      95.0000001 magnetization 
 augmentation part        5.6752090 magnetization 

 Broyden mixing:
  rms(total) = 0.17483E-01    rms(broyden)= 0.17483E-01
  rms(prec ) = 0.25392E-01
  weight for this iteration     100.00

 eigenvalues of (default mixing * dielectric matrix)
  average eigenvalue GAMMA=   1.3180
  2.8013  2.3551  0.9706  0.9706  0.9756  0.7644  0.3887

 Free energy of the ion-electron system (eV)
  ---------------------------------------------------
  alpha Z        PSCENC =       107.79190663
  Ewald energy   TEWEN  =     32342.04400090
  -Hartree energ DENC   =    -37128.60050636
  -exchange      EXHF   =         0.00000000
  -V(xc)+E(xc)   XCENC  =      -404.83030202
  PAW double counting   =      5792.19065556    -5068.67934941
  entropy T*S    EENTRO =        -0.00720529
  eigenvalues    EBANDS =      -268.69014932
  atomic energy  EATOM  =      4496.35971583
  ---------------------------------------------------
  free energy    TOTEN  =      -132.42123349 eV

  energy without entropy =     -132.41402819  energy(sigma->0) =     -132.41763084


--------------------------------------------------------------------------------------------------------




----------------------------------------- Iteration    1(  13)  ---------------------------------------


    POTLOK:  cpu time    0.11: real time    0.11
    SETDIJ:  cpu time    0.10: real time    0.10
     EDDAV:  cpu time   11.15: real time   11.16
       DOS:  cpu time    0.00: real time    0.00
    CHARGE:  cpu time    0.76: real time    0.76
    MIXING:  cpu time    0.00: real time    0.00
    --------------------------------------------
      LOOP:  cpu time   12.14: real time   12.14

 eigenvalue-minimisations  :  7042
 total energy-change (2. order) :-0.2698462E-03  (-0.5059022E-03)
 number of electron      95.0000001 magnetization 
 augmentation part        5.6762707 magnetization 

 Broyden mixing:
  rms(total) = 0.94320E-02    rms(broyden)= 0.94292E-02
  rms(prec ) = 0.18881E-01
  weight for this iteration     100.00

 eigenvalues of (default mixing * dielectric matrix)
  average eigenvalue GAMMA=   1.2273
  2.8971  2.4312  0.9640  0.9640  0.9626  0.7442  0.3858  0.4692

 Free energy of the ion-electron system (eV)
  ---------------------------------------------------
  alpha Z        PSCENC =       107.79190663
  Ewald energy   TEWEN  =     32342.04400090
  -Hartree energ DENC   =    -37129.48223360
  -exchange      EXHF   =         0.00000000
  -V(xc)+E(xc)   XCENC  =      -404.82010484
  PAW double counting   =      5783.29836858    -5059.78738888
  entropy T*S    EENTRO =        -0.00735736
  eigenvalues    EBANDS =      -267.81841060
  atomic energy  EATOM  =      4496.35971583
  ---------------------------------------------------
  free energy    TOTEN  =      -132.42150333 eV

  energy without entropy =     -132.41414597  energy(sigma->0) =     -132.41782465


--------------------------------------------------------------------------------------------------------




----------------------------------------- Iteration    1(  14)  ---------------------------------------


    POTLOK:  cpu time    0.11: real time    0.11
    SETDIJ:  cpu time    0.10: real time    0.10
     EDDAV:  cpu time   10.91: real time   10.92
       DOS:  cpu time    0.00: real time    0.00
    CHARGE:  cpu time    0.77: real time    0.77
    MIXING:  cpu time    0.00: real time    0.00
    --------------------------------------------
      LOOP:  cpu time   11.90: real time   11.90

 eigenvalue-minimisations  :  6826
 total energy-change (2. order) : 0.4227221E-04  (-0.1683062E-03)
 number of electron      95.0000001 magnetization 
 augmentation part        5.6765837 magnetization 

 Broyden mixing:
  rms(total) = 0.58300E-02    rms(broyden)= 0.58295E-02
  rms(prec ) = 0.12570E-01
  weight for this iteration     100.00

 eigenvalues of (default mixing * dielectric matrix)
  average eigenvalue GAMMA=   1.1688
  2.9489  2.4823  0.9422  0.9463  0.9463  0.7351  0.7351  0.3778  0.4049

 Free energy of the ion-electron system (eV)
  ---------------------------------------------------
  alpha Z        PSCENC =       107.79190663
  Ewald energy   TEWEN  =     32342.04400090
  -Hartree energ DENC   =    -37130.10096224
  -exchange      EXHF   =         0.00000000
  -V(xc)+E(xc)   XCENC  =      -404.81824318
  PAW double counting   =      5777.80916211    -5054.29740761
  entropy T*S    EENTRO =        -0.00761699
  eigenvalues    EBANDS =      -267.20201650
  atomic energy  EATOM  =      4496.35971583
  ---------------------------------------------------
  free energy    TOTEN  =      -132.42146106 eV

  energy without entropy =     -132.41384407  energy(sigma->0) =     -132.41765257


--------------------------------------------------------------------------------------------------------




----------------------------------------- Iteration    1(  15)  ---------------------------------------


    POTLOK:  cpu time    0.11: real time    0.11
    SETDIJ:  cpu time    0.10: real time    0.10
     EDDAV:  cpu time   11.04: real time   11.04
       DOS:  cpu time    0.00: real time    0.00
    CHARGE:  cpu time    0.77: real time    0.77
    MIXING:  cpu time    0.00: real time    0.00
    --------------------------------------------
      LOOP:  cpu time   12.03: real time   12.03

 eigenvalue-minimisations  :  6924
 total energy-change (2. order) : 0.1169439E-03  (-0.5638970E-04)
 number of electron      95.0000001 magnetization 
 augmentation part        5.6777067 magnetization 

 Broyden mixing:
  rms(total) = 0.31978E-02    rms(broyden)= 0.31971E-02
  rms(prec ) = 0.86996E-02
  weight for this iteration     100.00

 eigenvalues of (default mixing * dielectric matrix)
  average eigenvalue GAMMA=   1.2671
  3.3550  2.5714  1.5350  0.9340  0.9340  0.9122  0.8470  0.8470  0.3903  0.3450

 Free energy of the ion-electron system (eV)
  ---------------------------------------------------
  alpha Z        PSCENC =       107.79190663
  Ewald energy   TEWEN  =     32342.04400090
  -Hartree energ DENC   =    -37130.78213741
  -exchange      EXHF   =         0.00000000
  -V(xc)+E(xc)   XCENC  =      -404.82656385
  PAW double counting   =      5773.97446021    -5050.45946550
  entropy T*S    EENTRO =        -0.00778004
  eigenvalues    EBANDS =      -266.51548088
  atomic energy  EATOM  =      4496.35971583
  ---------------------------------------------------
  free energy    TOTEN  =      -132.42134412 eV

  energy without entropy =     -132.41356407  energy(sigma->0) =     -132.41745410


--------------------------------------------------------------------------------------------------------




----------------------------------------- Iteration    1(  16)  ---------------------------------------


    POTLOK:  cpu time    0.11: real time    0.11
    SETDIJ:  cpu time    0.10: real time    0.10
     EDDAV:  cpu time   11.87: real time   11.88
       DOS:  cpu time    0.00: real time    0.00
    CHARGE:  cpu time    0.77: real time    0.77
    MIXING:  cpu time    0.01: real time    0.01
    --------------------------------------------
      LOOP:  cpu time   12.86: real time   12.86

 eigenvalue-minimisations  :  7614
 total energy-change (2. order) : 0.4891416E-03  (-0.7980005E-04)
 number of electron      95.0000001 magnetization 
 augmentation part        5.6780493 magnetization 

 Broyden mixing:
  rms(total) = 0.32987E-02    rms(broyden)= 0.32981E-02
  rms(prec ) = 0.61431E-02
  weight for this iteration     100.00

 eigenvalues of (default mixing * dielectric matrix)
  average eigenvalue GAMMA=   1.3525
  3.9075  2.6414  2.2352  0.9437  0.9437  0.9354  0.9014  0.9014  0.7246  0.3892
  0.3540

 Free energy of the ion-electron system (eV)
  ---------------------------------------------------
  alpha Z        PSCENC =       107.79190663
  Ewald energy   TEWEN  =     32342.04400090
  -Hartree energ DENC   =    -37132.45675719
  -exchange      EXHF   =         0.00000000
  -V(xc)+E(xc)   XCENC  =      -404.82800740
  PAW double counting   =      5770.58740298    -5047.06963210
  entropy T*S    EENTRO =        -0.00796638
  eigenvalues    EBANDS =      -264.84151825
  atomic energy  EATOM  =      4496.35971583
  ---------------------------------------------------
  free energy    TOTEN  =      -132.42085498 eV

  energy without entropy =     -132.41288860  energy(sigma->0) =     -132.41687179


--------------------------------------------------------------------------------------------------------




----------------------------------------- Iteration    1(  17)  ---------------------------------------


    POTLOK:  cpu time    0.11: real time    0.11
    SETDIJ:  cpu time    0.10: real time    0.10
     EDDAV:  cpu time   11.73: real time   11.73
       DOS:  cpu time    0.00: real time    0.00
    CHARGE:  cpu time    0.76: real time    0.77
    MIXING:  cpu time    0.01: real time    0.01
    --------------------------------------------
      LOOP:  cpu time   12.72: real time   12.72

 eigenvalue-minimisations  :  7490
 total energy-change (2. order) : 0.4011627E-03  (-0.4659737E-04)
 number of electron      95.0000001 magnetization 
 augmentation part        5.6780543 magnetization 

 Broyden mixing:
  rms(total) = 0.26931E-02    rms(broyden)= 0.26927E-02
  rms(prec ) = 0.53504E-02
  weight for this iteration     100.00

 eigenvalues of (default mixing * dielectric matrix)
  average eigenvalue GAMMA=   1.3852
  4.2997  2.6559  2.2466  1.0057  1.0057  1.0404  1.0404  1.0410  0.7709  0.7709
  0.3901  0.3546

 Free energy of the ion-electron system (eV)
  ---------------------------------------------------
  alpha Z        PSCENC =       107.79190663
  Ewald energy   TEWEN  =     32342.04400090
  -Hartree energ DENC   =    -37133.52972729
  -exchange      EXHF   =         0.00000000
  -V(xc)+E(xc)   XCENC  =      -404.82484851
  PAW double counting   =      5772.45641630    -5048.93828259
  entropy T*S    EENTRO =        -0.00794529
  eigenvalues    EBANDS =      -263.77168980
  atomic energy  EATOM  =      4496.35971583
  ---------------------------------------------------
  free energy    TOTEN  =      -132.42045381 eV

  energy without entropy =     -132.41250852  energy(sigma->0) =     -132.41648117


--------------------------------------------------------------------------------------------------------




----------------------------------------- Iteration    1(  18)  ---------------------------------------


    POTLOK:  cpu time    0.11: real time    0.11
    SETDIJ:  cpu time    0.10: real time    0.10
     EDDAV:  cpu time   13.69: real time   13.69
       DOS:  cpu time    0.00: real time    0.00
    CHARGE:  cpu time    0.77: real time    0.77
    MIXING:  cpu time    0.01: real time    0.01
    --------------------------------------------
      LOOP:  cpu time   14.68: real time   14.68

 eigenvalue-minimisations  :  9132
 total energy-change (2. order) : 0.4873360E-03  (-0.2688021E-04)
 number of electron      95.0000001 magnetization 
 augmentation part        5.6773083 magnetization 

 Broyden mixing:
  rms(total) = 0.17399E-02    rms(broyden)= 0.17394E-02
  rms(prec ) = 0.37518E-02
  weight for this iteration     100.00

 eigenvalues of (default mixing * dielectric matrix)
  average eigenvalue GAMMA=   1.4896
  5.0697  2.9924  2.5356  1.7542  0.9343  0.9343  0.9713  0.9713  0.9271  0.7649
  0.7649  0.3898  0.3545

 Free energy of the ion-electron system (eV)
  ---------------------------------------------------
  alpha Z        PSCENC =       107.79190663
  Ewald energy   TEWEN  =     32342.04400090
  -Hartree energ DENC   =    -37134.87632537
  -exchange      EXHF   =         0.00000000
  -V(xc)+E(xc)   XCENC  =      -404.81810210
  PAW double counting   =      5773.96981445    -5050.45294594
  entropy T*S    EENTRO =        -0.00796102
  eigenvalues    EBANDS =      -262.43006986
  atomic energy  EATOM  =      4496.35971583
  ---------------------------------------------------
  free energy    TOTEN  =      -132.41996648 eV

  energy without entropy =     -132.41200546  energy(sigma->0) =     -132.41598597


--------------------------------------------------------------------------------------------------------




----------------------------------------- Iteration    1(  19)  ---------------------------------------


    POTLOK:  cpu time    0.11: real time    0.11
    SETDIJ:  cpu time    0.10: real time    0.10
     EDDAV:  cpu time   12.41: real time   12.41
       DOS:  cpu time    0.00: real time    0.00
    CHARGE:  cpu time    0.77: real time    0.77
    MIXING:  cpu time    0.01: real time    0.01
    --------------------------------------------
      LOOP:  cpu time   13.39: real time   13.40

 eigenvalue-minimisations  :  8056
 total energy-change (2. order) : 0.3852523E-03  (-0.3869892E-04)
 number of electron      95.0000001 magnetization 
 augmentation part        5.6767873 magnetization 

 Broyden mixing:
  rms(total) = 0.25561E-02    rms(broyden)= 0.25555E-02
  rms(prec ) = 0.40190E-02
  weight for this iteration     100.00

 eigenvalues of (default mixing * dielectric matrix)
  average eigenvalue GAMMA=   1.5208
  5.1405  3.2822  2.5935  1.7250  1.1773  1.1773  1.0221  1.0221  1.0339  0.8250
  0.8250  0.7227  0.3898  0.3544

 Free energy of the ion-electron system (eV)
  ---------------------------------------------------
  alpha Z        PSCENC =       107.79190663
  Ewald energy   TEWEN  =     32342.04400090
  -Hartree energ DENC   =    -37136.19666991
  -exchange      EXHF   =         0.00000000
  -V(xc)+E(xc)   XCENC  =      -404.81577543
  PAW double counting   =      5776.50570683    -5052.98966811
  entropy T*S    EENTRO =        -0.00788543
  eigenvalues    EBANDS =      -261.11091253
  atomic energy  EATOM  =      4496.35971583
  ---------------------------------------------------
  free energy    TOTEN  =      -132.41958122 eV

  energy without entropy =     -132.41169579  energy(sigma->0) =     -132.41563851


--------------------------------------------------------------------------------------------------------




----------------------------------------- Iteration    1(  20)  ---------------------------------------


    POTLOK:  cpu time    0.11: real time    0.11
    SETDIJ:  cpu time    0.10: real time    0.10
     EDDAV:  cpu time   14.93: real time   14.93
       DOS:  cpu time    0.00: real time    0.00
    CHARGE:  cpu time    0.76: real time    0.76
    MIXING:  cpu time    0.01: real time    0.01
    --------------------------------------------
      LOOP:  cpu time   15.91: real time   15.91

 eigenvalue-minimisations  : 10168
 total energy-change (2. order) : 0.2665385E-03  (-0.6879575E-04)
 number of electron      95.0000001 magnetization 
 augmentation part        5.6768743 magnetization 

 Broyden mixing:
  rms(total) = 0.22360E-02    rms(broyden)= 0.22352E-02
  rms(prec ) = 0.32774E-02
  weight for this iteration     100.00

 eigenvalues of (default mixing * dielectric matrix)
  average eigenvalue GAMMA=   1.6505
  6.5733  3.7295  2.7004  2.4027  1.2487  1.2103  0.9601  0.9601  0.9811  0.8148
  0.8148  0.8882  0.7288  0.3898  0.3545

 Free energy of the ion-electron system (eV)
  ---------------------------------------------------
  alpha Z        PSCENC =       107.79190663
  Ewald energy   TEWEN  =     32342.04400090
  -Hartree energ DENC   =    -37137.40160075
  -exchange      EXHF   =         0.00000000
  -V(xc)+E(xc)   XCENC  =      -404.82296301
  PAW double counting   =      5776.36593717    -5052.84914957
  entropy T*S    EENTRO =        -0.00789908
  eigenvalues    EBANDS =      -259.89926281
  atomic energy  EATOM  =      4496.35971583
  ---------------------------------------------------
  free energy    TOTEN  =      -132.41931469 eV

  energy without entropy =     -132.41141561  energy(sigma->0) =     -132.41536515


--------------------------------------------------------------------------------------------------------




----------------------------------------- Iteration    1(  21)  ---------------------------------------


    POTLOK:  cpu time    0.11: real time    0.11
    SETDIJ:  cpu time    0.10: real time    0.10
     EDDAV:  cpu time   11.99: real time   11.99
       DOS:  cpu time    0.00: real time    0.00
    CHARGE:  cpu time    0.77: real time    0.77
    MIXING:  cpu time    0.01: real time    0.01
    --------------------------------------------
      LOOP:  cpu time   12.98: real time   12.99

 eigenvalue-minimisations  :  7722
 total energy-change (2. order) : 0.2444897E-04  (-0.8608280E-04)
 number of electron      95.0000001 magnetization 
 augmentation part        5.6773850 magnetization 

 Broyden mixing:
  rms(total) = 0.29516E-02    rms(broyden)= 0.29510E-02
  rms(prec ) = 0.30313E-02
  weight for this iteration     100.00

 eigenvalues of (default mixing * dielectric matrix)
  average eigenvalue GAMMA=   1.5615
  6.6776  3.7393  2.7029  2.4056  1.2589  1.1908  0.9592  0.9592  0.9994  0.8029
  0.8029  0.8734  0.7271  0.3898  0.3545  0.1408

 Free energy of the ion-electron system (eV)
  ---------------------------------------------------
  alpha Z        PSCENC =       107.79190663
  Ewald energy   TEWEN  =     32342.04400090
  -Hartree energ DENC   =    -37138.23122580
  -exchange      EXHF   =         0.00000000
  -V(xc)+E(xc)   XCENC  =      -404.82754760
  PAW double counting   =      5774.86599725    -5051.34847636
  entropy T*S    EENTRO =        -0.00796672
  eigenvalues    EBANDS =      -259.06569436
  atomic energy  EATOM  =      4496.35971583
  ---------------------------------------------------
  free energy    TOTEN  =      -132.41929024 eV

  energy without entropy =     -132.41132351  energy(sigma->0) =     -132.41530688


[...]
     58       8.7769      0.00000
     59       9.2634      0.00000
     60       9.4610      0.00000
     61       9.5965      0.00000
     62       9.6711      0.00000

 k-point    47 :      -0.3846    0.3846   -0.0000
  band No.  band energies     occupation 
      1     -14.7019      2.00000
      2     -14.6722      2.00000
      3     -14.6221      2.00000
      4     -14.5569      2.00000
      5     -14.4795      2.00000
      6     -14.4005      2.00000
      7     -14.3263      2.00000
      8     -14.2670      2.00000
      9     -14.2273      2.00000
     10      -2.6827      2.00000
     11      -2.5704      2.00000
     12      -2.4503      2.00000
     13      -2.3957      2.00000
     14      -2.3501      2.00000
     15      -2.2453      2.00000
     16      -2.1893      2.00000
     17      -2.0916      2.00000
     18      -1.9971      2.00000
     19      -1.9584      2.00000
     20      -1.6456      2.00000
     21      -1.2615      2.00000
     22      -1.0128      2.00000
     23      -0.6634      2.00000
     24      -0.4436      2.00000
     25      -0.3043      2.00000
     26       0.0039      2.00000
     27       0.2091      2.00000
     28       0.2356      2.00000
     29       0.2432      2.00000
     30       0.2758      2.00000
     31       0.3395      2.00000
     32       0.3427      2.00000
     33       0.4295      2.00000
     34       0.4423      2.00000
     35       0.5326      2.00000
     36       0.6096      2.00000
     37       0.6388      2.00000
     38       0.7393      2.00000
     39       0.7935      2.00000
     40       0.8203      2.00000
     41       0.8747      2.00000
     42       1.1550      2.00000
     43       2.4151      2.00000
     44       3.0548      2.00000
     45       3.5073      2.00000
     46       4.4630      2.00000
     47       4.5670      2.00000
     48       4.5683      2.00000
     49       5.1405      0.00000
     50       5.1858      0.00000
     51       5.2031      0.00000
     52       6.0368      0.00000
     53       7.7637      0.00000
     54       8.2471      0.00000
     55       8.8638      0.00000
     56       8.8951      0.00000
     57       9.2862      0.00000
     58       9.5315      0.00000
     59       9.6163      0.00000
     60       9.6848      0.00000
     61       9.7202      0.00000
     62       9.7647      0.00000

 k-point    48 :       0.4615    0.4615    0.0000
  band No.  band energies     occupation 
      1     -14.4574      2.00000
      2     -14.4471      2.00000
      3     -14.4267      2.00000
      4     -14.3983      2.00000
      5     -14.3615      2.00000
      6     -14.3229      2.00000
      7     -14.2844      2.00000
      8     -14.2534      2.00000
      9     -14.2315      2.00000
     10      -2.9718      2.00000
     11      -2.8571      2.00000
     12      -2.6797      2.00000
     13      -2.4767      2.00000
     14      -2.4662      2.00000
     15      -2.3805      2.00000
     16      -2.3131      2.00000
     17      -2.2509      2.00000
     18      -2.2164      2.00000
     19      -0.5542      2.00000
     20      -0.5329      2.00000
     21      -0.3919      2.00000
     22      -0.3252      2.00000
     23      -0.1803      2.00000
     24      -0.1751      2.00000
     25      -0.1656      2.00000
     26      -0.0387      2.00000
     27      -0.0117      2.00000
     28       0.0140      2.00000
     29       0.0837      2.00000
     30       0.1365      2.00000
     31       0.2542      2.00000
     32       0.2676      2.00000
     33       0.4047      2.00000
     34       0.4652      2.00000
     35       0.5489      2.00000
     36       0.5802      2.00000
     37       0.5991      2.00000
     38       0.6770      2.00000
     39       0.6891      2.00000
     40       0.7383      2.00000
     41       1.6223      2.00000
     42       1.9601      2.00000
     43       2.2845      2.00000
     44       2.2849      2.00000
     45       2.5147      2.00000
     46       2.5151      2.00000
     47       3.2970      2.00000
     48       3.6372      2.00000
     49       5.4662      0.00000
     50       5.7199      0.00000
     51       6.1783      0.00000
     52       6.1796      0.00000
     53       6.9991      0.00000
     54       7.4881      0.00000
     55       7.6877      0.00000
     56       7.6883      0.00000
     57       7.8248      0.00000
     58       8.5828      0.00000
     59       9.4965      0.00000
     60       9.6638      0.00000
     61       9.7380      0.00000
     62       9.7734      0.00000

 k-point    49 :      -0.4615    0.4615    0.0000
  band No.  band energies     occupation 
      1     -14.5067      2.00000
      2     -14.4921      2.00000
      3     -14.4652      2.00000
      4     -14.4292      2.00000
      5     -14.3844      2.00000
      6     -14.3381      2.00000
      7     -14.2930      2.00000
      8     -14.2569      2.00000
      9     -14.2318      2.00000
     10      -2.9919      2.00000
     11      -2.8767      2.00000
     12      -2.6983      2.00000
     13      -2.5022      2.00000
     14      -2.4922      2.00000
     15      -2.4076      2.00000
     16      -2.3305      2.00000
     17      -2.2648      2.00000
     18      -2.2286      2.00000
     19      -1.0567      2.00000
     20      -0.7330      2.00000
     21      -0.5866      2.00000
     22      -0.3608      2.00000
     23      -0.2619      2.00000
     24      -0.1773      2.00000
     25      -0.1233      2.00000
     26       0.0474      2.00000
     27       0.1126      2.00000
     28       0.1657      2.00000
     29       0.2060      2.00000
     30       0.2732      2.00000
     31       0.3603      2.00000
     32       0.4415      2.00000
     33       0.4638      2.00000
     34       0.5649      2.00000
     35       0.5705      2.00000
     36       0.6714      2.00000
     37       0.6990      2.00000
     38       0.7528      2.00000
     39       0.8075      2.00000
     40       0.9263      2.00000
     41       1.3464      2.00000
     42       1.5666      2.00000
     43       1.5670      2.00000
     44       2.3443      2.00000
     45       2.8047      2.00000
     46       3.1173      2.00000
     47       3.1178      2.00000
     48       4.1788      2.00000
     49       4.7799      1.99998
     50       5.8500      0.00000
     51       5.8518      0.00000
     52       6.2458      0.00000
     53       6.5297      0.00000
     54       7.8810      0.00000
     55       7.8852      0.00000
     56       8.0263      0.00000
     57       9.1521      0.00000
     58       9.2939      0.00000
     59       9.4588      0.00000
     60       9.5355      0.00000
     61       9.7627      0.00000
     62      10.0203      0.00000


--------------------------------------------------------------------------------------------------------


 soft charge-density along one line, spin component           1
         0         1         2         3         4         5         6         7         8         9
 total charge-density along one line
 
 pseudopotential strength for first ion, spin component:           1
 12.367   0.000 -15.062   0.000  -0.000   0.000  -0.000   0.000   0.000   0.000   0.000   0.000   0.000   0.000  -0.000   0.000
-15.062   0.000  18.365   0.000   0.000   0.000   0.000   0.000  -0.000   0.000  -0.000   0.000  -0.000   0.000   0.000   0.000
 -0.000   0.000   0.000   0.000  -8.558   0.000  -0.000   0.000  -0.000   0.000  10.295   0.000   0.000   0.000   0.000   0.000
 -0.000   0.000   0.000   0.000  -0.000   0.000  -8.560   0.000   0.000   0.000   0.000   0.000  10.297   0.000  -0.000   0.000
  0.000   0.000  -0.000   0.000  -0.000   0.000   0.000   0.000  -8.558   0.000   0.000   0.000  -0.000   0.000  10.296   0.000
  0.000   0.000  -0.000   0.000  10.295   0.000   0.000   0.000   0.000   0.000 -12.235   0.000  -0.000   0.000  -0.000   0.000
  0.000   0.000  -0.000   0.000   0.000   0.000  10.297   0.000  -0.000   0.000  -0.000   0.000 -12.238   0.000   0.000   0.000
 -0.000   0.000   0.000   0.000   0.000   0.000  -0.000   0.000  10.296   0.000  -0.000   0.000   0.000   0.000 -12.235   0.000
 total augmentation occupancy for first ion, spin component:           1
  2.608   0.366   0.000   0.000  -0.000   0.000   0.000  -0.000
  0.366   0.068   0.000   0.000  -0.000  -0.000  -0.000   0.000
  0.000   0.000   2.166   0.000  -0.000   0.261   0.000  -0.000
  0.000   0.000   0.000   2.165  -0.000   0.000   0.263  -0.000
 -0.000  -0.000  -0.000  -0.000   2.166  -0.000  -0.000   0.261
  0.000  -0.000   0.261   0.000  -0.000   0.034   0.000  -0.000
  0.000  -0.000   0.000   0.263  -0.000   0.000   0.034  -0.000
 -0.000   0.000  -0.000  -0.000   0.261  -0.000  -0.000   0.034


------------------------ aborting loop because EDIFF is reached ----------------------------------------


    CHARGE:  cpu time    0.83: real time    0.83
    FORLOC:  cpu time    0.08: real time    0.08
    FORNL :  cpu time    7.39: real time    7.39
    STRESS:  cpu time    9.09: real time    9.09
    FORCOR:  cpu time    0.16: real time    0.16
    FORHAR:  cpu time    0.06: real time    0.06
    MIXING:  cpu time    0.00: real time    0.00
    OFIELD:  cpu time    0.00: real time    0.00

  FORCE on cell =-STRESS in cart. coord.  units (eV):
  Direction    XX          YY          ZZ          XY          YZ          ZX
  --------------------------------------------------------------------------------------
  Alpha Z   107.79191   107.79191   107.79191
  Ewald   35660.48383 35646.33459-38116.12764    12.25383 -1279.05850   738.46483
  Hartree 37128.30225 37113.78190-36250.61492    12.57493 -1272.84388   734.87702
  E(xc)    -389.13580  -389.14307  -389.92580     0.00628    -0.01996     0.01153
  Local  -73912.59853-73883.91313 73242.87908   -24.84205  2551.93555 -1473.36107
  n-local   -25.85852   -32.92849   -26.58260    -2.09680     1.70003     2.73225
  augment    53.64606    53.64815    53.36773    -0.00184    -0.00759     0.00439
  Kinetic  1389.52954  1365.41506  1378.42990    -6.99967     0.75338     1.35099
  Fock        0.00000     0.00000     0.00000     0.00000     0.00000     0.00000
  -------------------------------------------------------------------------------------
  Total      -3.47218    -3.38018    -0.78235    -0.07968     0.07751    -0.04475
  in kB     -14.83032   -14.43735    -3.34155    -0.34031     0.33107    -0.19115
  external pressure =      -10.87 kB  Pullay stress =        0.00 kB


 VOLUME and BASIS-vectors are now :
 -----------------------------------------------------------------------------
  energy-cutoff  :      520.00
  volume of cell :      375.11
      direct lattice vectors                 reciprocal lattice vectors
     2.592590006 -1.495275227  0.051895165     0.385647179 -0.000230354 -0.003265542
     0.001348276  2.992885737 -0.051895149     0.192624097  0.334095533  0.003265542
     0.408967606 -0.708352458 48.347377156    -0.000207187  0.000358859  0.020690656

  length of vectors
     2.993336608  2.993335925 48.354295524     0.385661074  0.385661162  0.020694805


 FORCES acting on ions
    electron-ion (+dipol)            ewald-force                    non-local-force                 convergence-correction
 -----------------------------------------------------------------------------------------------
   -.133E+02 0.230E+02 0.133E+04   0.133E+02 -.230E+02 -.133E+04   -.307E-03 0.532E-03 0.508E-01   0.137E-02 -.238E-02 -.137E+00
   0.353E-02 -.612E-02 -.353E+00   -.319E-02 0.553E-02 0.319E+00   0.211E-05 -.366E-05 -.268E-03   -.349E-03 0.604E-03 0.348E-01
   0.133E+02 -.230E+02 -.133E+04   -.133E+02 0.230E+02 0.133E+04   0.351E-03 -.607E-03 -.554E-01   -.186E-02 0.322E-02 0.185E+00
   -.177E+02 0.306E+02 0.177E+04   0.177E+02 -.307E+02 -.177E+04   -.682E-02 0.118E-01 0.739E+00   0.140E-02 -.242E-02 -.140E+00
   -.886E+01 0.154E+02 0.885E+03   0.886E+01 -.154E+02 -.885E+03   0.698E-04 -.121E-03 0.257E-02   0.103E-02 -.178E-02 -.102E+00
   -.443E+01 0.767E+01 0.442E+03   0.443E+01 -.767E+01 -.442E+03   -.848E-04 0.147E-03 0.134E-01   0.486E-03 -.842E-03 -.487E-01
   0.444E+01 -.768E+01 -.443E+03   -.444E+01 0.768E+01 0.443E+03   0.419E-04 -.726E-04 -.927E-02   -.115E-02 0.199E-02 0.115E+00
   0.887E+01 -.154E+02 -.886E+03   -.887E+01 0.154E+02 0.886E+03   -.667E-04 0.116E-03 -.305E-02   -.165E-02 0.286E-02 0.164E+00
   0.177E+02 -.307E+02 -.177E+04   -.177E+02 0.307E+02 0.177E+04   0.681E-02 -.118E-01 -.738E+00   -.173E-02 0.300E-02 0.172E+00
   -.648E+01 0.112E+02 0.645E+03   0.648E+01 -.112E+02 -.645E+03   -.303E-03 0.524E-03 0.226E+00   0.490E-03 -.849E-03 -.490E-01
   -.222E+01 0.384E+01 0.221E+03   0.222E+01 -.384E+01 -.221E+03   0.255E-05 -.441E-05 0.113E-01   0.260E-03 -.450E-03 -.260E-01
   0.222E+01 -.384E+01 -.221E+03   -.222E+01 0.384E+01 0.221E+03   0.102E-04 -.177E-04 -.130E-01   -.484E-03 0.838E-03 0.483E-01
   0.648E+01 -.112E+02 -.645E+03   -.648E+01 0.112E+02 0.646E+03   0.296E-03 -.513E-03 -.225E+00   -.545E-03 0.945E-03 0.545E-01
   -.518E+01 0.896E+01 0.517E+03   0.517E+01 -.896E+01 -.517E+03   0.489E-03 -.846E-03 0.132E-03   0.480E-03 -.832E-03 -.480E-01
   -.369E+01 0.640E+01 0.369E+03   0.369E+01 -.640E+01 -.369E+03   0.791E-04 -.137E-03 0.148E-01   0.398E-03 -.690E-03 -.398E-01
   -.738E+00 0.128E+01 0.736E+02   0.738E+00 -.128E+01 -.736E+02   -.312E-04 0.541E-04 0.716E-02   0.484E-04 -.838E-04 -.481E-02
   0.740E+00 -.128E+01 -.739E+02   -.740E+00 0.128E+01 0.739E+02   0.595E-04 -.103E-03 -.949E-02   -.270E-03 0.467E-03 0.269E-01
   0.370E+01 -.640E+01 -.369E+03   -.370E+01 0.640E+01 0.369E+03   -.838E-04 0.145E-03 -.147E-01   -.585E-03 0.101E-02 0.584E-01
   0.518E+01 -.897E+01 -.517E+03   -.518E+01 0.897E+01 0.517E+03   -.537E-03 0.931E-03 0.400E-02   -.616E-03 0.107E-02 0.615E-01
   -.861E-02 0.149E-01 0.859E+00   0.845E-02 -.146E-01 -.843E+00   0.157E-05 -.273E-05 0.960E-05   0.160E-03 -.277E-03 -.160E-01
   -.839E+01 0.145E+02 0.838E+03   0.836E+01 -.145E+02 -.835E+03   0.328E-01 -.568E-01 -.328E+01   0.847E-03 -.147E-02 -.846E-01
   -.191E+01 0.331E+01 0.191E+03   0.192E+01 -.333E+01 -.192E+03   -.160E-01 0.277E-01 0.152E+01   0.677E-03 -.117E-02 -.676E-01
   -.931E+00 0.161E+01 0.931E+02   0.931E+00 -.161E+01 -.931E+02   -.863E-03 0.149E-02 -.152E-02   0.455E-03 -.789E-03 -.455E-01
   0.840E+01 -.145E+02 -.838E+03   -.836E+01 0.145E+02 0.835E+03   -.328E-01 0.568E-01 0.328E+01   -.714E-03 0.124E-02 0.713E-01
   0.914E+00 -.158E+01 -.914E+02   -.914E+00 0.158E+01 0.914E+02   0.868E-03 -.150E-02 0.155E-02   -.144E-03 0.249E-03 0.144E-01
   0.189E+01 -.328E+01 -.189E+03   -.191E+01 0.330E+01 0.190E+03   0.160E-01 -.277E-01 -.152E+01   -.387E-03 0.671E-03 0.387E-01
 -----------------------------------------------------------------------------------------------
   0.239E-02 -.414E-02 -.237E+00   -.440E-13 -.298E-13 0.199E-12   -.879E-05 0.152E-04 0.859E-03   -.238E-02 0.412E-02 0.237E+00
 
 
 POSITION                                       TOTAL-FORCE (eV/Angst)
 -----------------------------------------------------------------------------------
      1.58387      0.25188     18.04330         0.000107     -0.000186      0.003522
      1.51205      0.37628     25.41909        -0.000005      0.000008      0.000403
      1.44023      0.50067     32.79499        -0.000070      0.000121     -0.006366
      0.74422      1.70619     15.55638         0.000203     -0.000352     -0.006665
      2.42360     -1.20257     20.53704         0.000214     -0.000370     -0.010079
      0.67219      1.83096     22.92562         0.000031     -0.000053      0.002004
      2.35191     -1.07841     27.91239        -0.000069      0.000119      0.001099
      0.60050      1.95512     30.30109        -0.000215      0.000373      0.010306
      2.27987     -0.95363     35.28202        -0.000202      0.000350      0.006266
      1.62032      0.18875     14.33149         0.000127     -0.000220     -0.000524
      1.54789      0.31420     21.73041        -0.000038      0.000067      0.004351
      1.47621      0.43835     29.10780         0.000050     -0.000087     -0.005528
      1.40377      0.56381     36.50694        -0.000096      0.000166     -0.002550
      2.45967     -1.26504     16.84746        -0.000139      0.000242      0.016215
      0.70810      1.76875     19.23705        -0.000050      0.000086      0.005464
      2.38774     -1.14046     24.22375        -0.000080      0.000139      0.007467
      0.63636      1.89302     26.61458         0.000112     -0.000194     -0.010251
      2.31599     -1.01620     31.60113         0.000046     -0.000079     -0.005222
      0.56443      2.01760     33.99051         0.000075     -0.000130     -0.010208
      2.60294     -1.51319      1.30460         0.000000     -0.000000      0.000029
      2.50823     -1.34917     11.95311         0.000003     -0.000005      0.007957
      1.69465      0.06001      5.70147        -0.000024      0.000041      0.001842
      0.85361      1.51673      3.43084        -0.000014      0.000025     -0.000071
      0.51585      2.10174     38.88540        -0.000004      0.000006     -0.007730
      2.16999     -0.76331     47.42195         0.000014     -0.000024      0.000133
      1.32895      0.69341     45.15135         0.000023     -0.000040     -0.001863
 -----------------------------------------------------------------------------------
    total drift:                                0.000000     -0.000000      0.000384


--------------------------------------------------------------------------------------------------------



  FREE ENERGIE OF THE ION-ELECTRON SYSTEM (eV)
  ---------------------------------------------------
  free  energy   TOTEN  =      -132.43264093 eV

  energy  without entropy=     -132.42506015  energy(sigma->0) =     -132.42885054
 
 d Force = 0.9769799E-04[-0.524E-04, 0.248E-03]  d Energy = 0.5883665E-04 0.389E-04
 d Force =-0.1022627E+02[-0.102E+02,-0.102E+02]  d Ewald  =-0.1022627E+02 0.222E-06


--------------------------------------------------------------------------------------------------------


    POTLOK:  cpu time    0.29: real time    0.29


--------------------------------------------------------------------------------------------------------


 Conjugate gradient step on ions:
 trial-energy change:   -0.000059  1 .order   -0.000098   -0.000248    0.000052
  (g-gl).g = 0.171E-03      g.g   = 0.210E-03  gl.gl    = 0.355E-03
 g(Force)  = 0.210E-03   g(Stress)= 0.000E+00 ortho     =-0.123E-04
 gamma     =   0.48088
 trial     =   1.21347
 opt step  =   1.00155  (harmonic =   1.00155) maximal distance =0.00117942
 next E    =  -132.432684   (d E  =  -0.00010)


--------------------------------------------------------------------------------------------------------


  
 reached required accuracy - stopping structural energy minimisation
     LOOP+:  cpu time  102.63: real time  102.67
    4ORBIT:  cpu time    0.00: real time    0.00

 total amount of memory used by VASP on root node   221424. kBytes
========================================================================

   base      :      30000. kBytes
   nonl-proj :      40296. kBytes
   fftplans  :      62076. kBytes
   grid      :      24883. kBytes
   one-center:         56. kBytes
   wavefun   :      64113. kBytes
 
  
  
 General timing and accounting informations for this job:
 ========================================================
  
                  Total CPU time used (sec):     3018.699
                            User time (sec):     2981.988
                          System time (sec):       36.711
                         Elapsed time (sec):     3019.863
  
                   Maximum memory used (kb):      329068.
                   Average memory used (kb):           0.
  
                          Minor page faults:      1975996
                          Major page faults:            0
                 Voluntary context switches:          113
