       N       E                     dE             d eps       ncg     rms          rms(c)
DAV:   1     0.475294871807E+03    0.47529E+03   -0.41401E+04  2620   0.132E+03
DAV:   2    -0.919515536267E+02   -0.56725E+03   -0.53769E+03  3364   0.251E+02
DAV:   3    -0.147340636944E+03   -0.55389E+02   -0.55039E+02  3042   0.844E+01
DAV:   4    -0.148086353463E+03   -0.74572E+00   -0.74418E+00  3064   0.106E+01
DAV:   5    -0.148098214530E+03   -0.11861E-01   -0.11856E-01  3098   0.132E+00    0.219E+01
DAV:   6    -0.133378062812E+03    0.14720E+02   -0.83994E+01  2910   0.290E+01    0.745E+00
DAV:   7    -0.133215463117E+03    0.16260E+00   -0.14737E+00  2932   0.503E+00    0.450E+00
DAV:   8    -0.133122224059E+03    0.93239E-01   -0.44690E-01  3006   0.370E+00    0.749E-01
DAV:   9    -0.133101303965E+03    0.20920E-01   -0.82304E-02  2908   0.112E+00    0.423E-01
DAV:  10    -0.133102124675E+03   -0.82071E-03   -0.40623E-02  2980   0.844E-01    0.278E-01
DAV:  11    -0.133101644389E+03    0.48029E-03   -0.34673E-03  2952   0.301E-01    0.178E-01
DAV:  12    -0.133101535082E+03    0.10931E-03   -0.44875E-03  3214   0.331E-01    0.720E-02
DAV:  13    -0.133101460653E+03    0.74429E-04   -0.80238E-04  3018   0.133E-01    0.584E-02
DAV:  14    -0.133101379164E+03    0.81490E-04   -0.34523E-04  3082   0.922E-02    0.271E-02
DAV:  15    -0.133101329344E+03    0.49820E-04   -0.94080E-05  2974   0.582E-02    0.120E-02
DAV:  16    -0.133101284898E+03    0.44445E-04   -0.30174E-05  2412   0.486E-02    0.706E-03
DAV:  17    -0.133101221475E+03    0.63424E-04   -0.39971E-05  2612   0.780E-02    0.620E-03
DAV:  18    -0.133101175740E+03    0.45735E-04   -0.63839E-05  3004   0.920E-02    0.759E-03
DAV:  19    -0.133101151677E+03    0.24063E-04   -0.46412E-05  2842   0.913E-02    0.574E-03
DAV:  20    -0.133101139639E+03    0.12037E-04   -0.51737E-05  2782   0.879E-02    0.478E-03
DAV:  21    -0.133101134304E+03    0.53357E-05   -0.28867E-05  2396   0.599E-02
   1 F= -.13310113E+03 E0= -.13309816E+03  d E =-.133101E+03
       N       E                     dE             d eps       ncg     rms          rms(c)
DAV:   1    -0.133102007835E+03   -0.86820E-03   -0.24196E-02  2764   0.676E-01    0.257E-02
DAV:   2    -0.133102041942E+03   -0.34106E-04   -0.67802E-04  3038   0.111E-01    0.191E-02
DAV:   3    -0.133102028214E+03    0.13727E-04   -0.21563E-05  2410   0.286E-02    0.136E-02
DAV:   4    -0.133102006796E+03    0.21418E-04   -0.39104E-05  2650   0.464E-02    0.700E-03
DAV:   5    -0.133101996550E+03    0.10246E-04   -0.16952E-05  1926   0.317E-02    0.726E-03
DAV:   6    -0.133101985764E+03    0.10787E-04   -0.99042E-06  1768   0.298E-02    0.345E-03
DAV:   7    -0.133101971711E+03    0.14052E-04   -0.73299E-06  1986   0.455E-02    0.473E-03
DAV:   8    -0.133101962755E+03    0.89564E-05   -0.11654E-05  1948   0.394E-02
   2 F= -.13310196E+03 E0= -.13309897E+03  d E =-.828451E-03
       N       E                     dE             d eps       ncg     rms          rms(c)
DAV:   1    -0.133102368081E+03   -0.39637E-03   -0.40081E-02  2672   0.869E-01    0.304E-02
DAV:   2    -0.133102418395E+03   -0.50314E-04   -0.10579E-03  3022   0.138E-01    0.223E-02
DAV:   3    -0.133102392580E+03    0.25815E-04   -0.29419E-05  2648   0.346E-02    0.159E-02
DAV:   4    -0.133102342344E+03    0.50236E-04   -0.67110E-05  2788   0.698E-02    0.913E-03
DAV:   5    -0.133102321069E+03    0.21275E-04   -0.42410E-05  2844   0.460E-02    0.110E-02
DAV:   6    -0.133102303397E+03    0.17672E-04   -0.19578E-05  1916   0.331E-02    0.510E-03
DAV:   7    -0.133102267504E+03    0.35893E-04   -0.17815E-05  2152   0.723E-02    0.785E-03
DAV:   8    -0.133102242247E+03    0.25257E-04   -0.27847E-05  2370   0.697E-02    0.824E-03
DAV:   9    -0.133102215079E+03    0.27169E-04   -0.34608E-05  2592   0.107E-01    0.486E-03
DAV:  10    -0.133102210151E+03    0.49274E-05   -0.61696E-05  2818   0.731E-02
   3 F= -.13310221E+03 E0= -.13309917E+03  d E =-.107585E-02
       N       E                     dE             d eps       ncg     rms          rms(c)
DAV:   1    -0.133102603514E+03   -0.38844E-03   -0.67648E-02  2680   0.112E+00    0.339E-02
DAV:   2    -0.133102734901E+03   -0.13139E-03   -0.15019E-03  2942   0.156E-01    0.188E-02
DAV:   3    -0.133102726813E+03    0.80884E-05   -0.20556E-05  2058   0.241E-02    0.126E-02
DAV:   4    -0.133102720129E+03    0.66843E-05   -0.13249E-05  1684   0.218E-02    0.504E-03
DAV:   5    -0.133102718242E+03    0.18863E-05   -0.74824E-06  1664   0.194E-02    0.380E-03
DAV:   6    -0.133102718017E+03    0.22524E-06   -0.41938E-06  1590   0.103E-02
   4 F= -.13310272E+03 E0= -.13309966E+03  d E =-.507866E-03
       N       E                     dE             d eps       ncg     rms          rms(c)
DAV:   1    -0.133102448816E+03    0.26943E-03   -0.61005E-01  2620   0.336E+00    0.100E-01
DAV:   2    -0.133103653788E+03   -0.12050E-02   -0.13589E-02  2936   0.467E-01    0.567E-02
DAV:   3    -0.133103578174E+03    0.75615E-04   -0.17572E-04  3096   0.682E-02    0.386E-02
DAV:   4    -0.133103509400E+03    0.68774E-04   -0.12096E-04  2960   0.641E-02    0.158E-02
DAV:   5    -0.133103488682E+03    0.20717E-04   -0.53814E-05  2886   0.576E-02    0.117E-02
DAV:   6    -0.133103480143E+03    0.85392E-05   -0.34067E-05  2414   0.390E-02
   5 F= -.13310348E+03 E0= -.13310037E+03  d E =-.126999E-02
       N       E                     dE             d eps       ncg     rms          rms(c)
DAV:   1    -0.133103927375E+03   -0.43869E-03   -0.23378E-01  2692   0.208E+00    0.626E-02
DAV:   2    -0.133104368411E+03   -0.44104E-03   -0.52791E-03  2918   0.289E-01    0.381E-02
DAV:   3    -0.133104320076E+03    0.48336E-04   -0.68043E-05  3058   0.467E-02    0.280E-02
DAV:   4    -0.133104264381E+03    0.55695E-04   -0.11943E-04  2952   0.711E-02    0.110E-02
DAV:   5    -0.133104244097E+03    0.20283E-04   -0.60115E-05  2802   0.432E-02    0.128E-02
DAV:   6    -0.133104233553E+03    0.10544E-04   -0.15482E-05  1742   0.217E-02    0.706E-03
DAV:   7    -0.133104201253E+03    0.32301E-04   -0.31518E-05  2528   0.524E-02    0.997E-03
DAV:   8    -0.133104180356E+03    0.20897E-04   -0.21041E-05  2234   0.525E-02    0.156E-02
DAV:   9    -0.133104148878E+03    0.31477E-04   -0.35121E-05  2614   0.835E-02    0.800E-03
DAV:  10    -0.133104126515E+03    0.22363E-04   -0.62686E-05  3140   0.106E-01    0.907E-03
DAV:  11    -0.133104120563E+03    0.59521E-05   -0.49679E-05  2694   0.519E-02
   6 F= -.13310412E+03 E0= -.13310106E+03  d E =-.640420E-03
       N       E                     dE             d eps       ncg     rms          rms(c)
DAV:   1    -0.133104111639E+03    0.14876E-04   -0.17131E-01  2696   0.178E+00    0.509E-02
DAV:   2    -0.133104435812E+03   -0.32417E-03   -0.37638E-03  2890   0.240E-01    0.323E-02
DAV:   3    -0.133104408068E+03    0.27744E-04   -0.47338E-05  2994   0.356E-02    0.236E-02
DAV:   4    -0.133104381196E+03    0.26872E-04   -0.74572E-05  2834   0.514E-02    0.873E-03
DAV:   5    -0.133104375036E+03    0.61596E-05   -0.26174E-05  2280   0.235E-02    0.843E-03
DAV:   6    -0.133104366443E+03    0.85927E-05   -0.16622E-05  2056   0.214E-02
   7 F= -.13310437E+03 E0= -.13310132E+03  d E =-.886300E-03
       N       E                     dE             d eps       ncg     rms          rms(c)
DAV:   1    -0.133104351284E+03    0.23752E-04   -0.18323E-02  2772   0.581E-01    0.163E-02
DAV:   2    -0.133104381251E+03   -0.29967E-04   -0.39616E-04  2930   0.784E-02    0.122E-02
DAV:   3    -0.133104374888E+03    0.63634E-05   -0.56054E-06  1694   0.151E-02    0.815E-03
DAV:   4    -0.133104365122E+03    0.97652E-05   -0.87517E-06  1850   0.225E-02    0.347E-03
DAV:   5    -0.133104360714E+03    0.44082E-05   -0.84898E-06  1676   0.165E-02    0.298E-03
DAV:   6    -0.133104350396E+03    0.10318E-04   -0.50830E-06  1878   0.324E-02    0.331E-03
DAV:   7    -0.133104342086E+03    0.83100E-05   -0.87956E-06  2006   0.353E-02
   8 F= -.13310434E+03 E0= -.13310132E+03  d E =-.861943E-03
       N       E                     dE             d eps       ncg     rms          rms(c)
DAV:   1    -0.133104746819E+03   -0.39642E-03   -0.11860E-01  2652   0.149E+00    0.469E-02
DAV:   2    -0.133104974755E+03   -0.22794E-03   -0.27379E-03  2932   0.217E-01    0.283E-02
DAV:   3    -0.133104957921E+03    0.16834E-04   -0.69098E-05  2972   0.448E-02    0.218E-02
DAV:   4    -0.133104942969E+03    0.14951E-04   -0.38266E-05  2496   0.361E-02    0.101E-02
DAV:   5    -0.133104931704E+03    0.11265E-04   -0.11943E-05  1922   0.407E-02    0.747E-03
DAV:   6    -0.133104925895E+03    0.58086E-05   -0.17004E-05  1978   0.376E-02
   9 F= -.13310493E+03 E0= -.13310192E+03  d E =-.583809E-03
       N       E                     dE             d eps       ncg     rms          rms(c)
DAV:   1    -0.133104936418E+03   -0.47142E-05   -0.11941E-01  2648   0.150E+00    0.486E-02
DAV:   2    -0.133105163814E+03   -0.22740E-03   -0.29200E-03  2926   0.228E-01    0.316E-02
DAV:   3    -0.133105136507E+03    0.27307E-04   -0.88085E-05  2968   0.536E-02    0.248E-02
DAV:   4    -0.133105107474E+03    0.29032E-04   -0.45657E-05  2738   0.435E-02    0.119E-02
DAV:   5    -0.133105075175E+03    0.32299E-04   -0.21488E-05  2228   0.657E-02    0.104E-02
DAV:   6    -0.133105059565E+03    0.15611E-04   -0.35543E-05  2564   0.528E-02    0.109E-02
DAV:   7    -0.133105045494E+03    0.14071E-04   -0.29416E-05  2370   0.492E-02    0.541E-03
DAV:   8    -0.133105019026E+03    0.26468E-04   -0.17172E-05  2160   0.890E-02    0.842E-03
DAV:   9    -0.133105005731E+03    0.13295E-04   -0.33390E-05  2522   0.600E-02    0.876E-03
DAV:  10    -0.133104998776E+03    0.69548E-05   -0.18343E-05  2078   0.356E-02
  10 F= -.13310500E+03 E0= -.13310201E+03  d E =-.656690E-03
       N       E                     dE             d eps       ncg     rms          rms(c)
DAV:   1    -0.133105427684E+03   -0.42195E-03   -0.74484E-02  2640   0.116E+00    0.345E-02
DAV:   2    -0.133105555289E+03   -0.12761E-03   -0.15959E-03  3010   0.161E-01    0.218E-02
DAV:   3    -0.133105540089E+03    0.15200E-04   -0.25535E-05  2394   0.287E-02    0.150E-02
DAV:   4    -0.133105522131E+03    0.17958E-04   -0.57712E-05  2806   0.436E-02    0.899E-03
DAV:   5    -0.133105518434E+03    0.36977E-05   -0.15861E-05  1958   0.218E-02    0.101E-02
DAV:   6    -0.133105513523E+03    0.49107E-05   -0.81359E-06  1632   0.195E-02
  11 F= -.13310551E+03 E0= -.13310251E+03  d E =-.514747E-03
       N       E                     dE             d eps       ncg     rms          rms(c)
DAV:   1    -0.133105284217E+03    0.23422E-03   -0.61031E-01  2604   0.333E+00    0.950E-02
DAV:   2    -0.133106286152E+03   -0.10019E-02   -0.12086E-02  2990   0.444E-01    0.543E-02
DAV:   3    -0.133106185115E+03    0.10104E-03   -0.16817E-04  3178   0.672E-02    0.366E-02
DAV:   4    -0.133106063675E+03    0.12144E-03   -0.33448E-04  3030   0.100E-01    0.212E-02
DAV:   5    -0.133106044902E+03    0.18773E-04   -0.97163E-05  2970   0.511E-02    0.223E-02
DAV:   6    -0.133106031818E+03    0.13084E-04   -0.27842E-05  2238   0.278E-02    0.145E-02
DAV:   7    -0.133105991932E+03    0.39887E-04   -0.12132E-05  2076   0.472E-02    0.103E-02
DAV:   8    -0.133105952188E+03    0.39743E-04   -0.35547E-05  2540   0.664E-02    0.692E-03
DAV:   9    -0.133105914838E+03    0.37350E-04   -0.56105E-05  2928   0.938E-02    0.951E-03
DAV:  10    -0.133105890728E+03    0.24110E-04   -0.49446E-05  2844   0.862E-02    0.103E-02
DAV:  11    -0.133105875223E+03    0.15505E-04   -0.26092E-05  2420   0.633E-02    0.820E-03
DAV:  12    -0.133105867625E+03    0.75976E-05   -0.21908E-05  2172   0.444E-02
  12 F= -.13310587E+03 E0= -.13310278E+03  d E =-.868849E-03
       N       E                     dE             d eps       ncg     rms          rms(c)
DAV:   1    -0.133106129642E+03   -0.25442E-03   -0.14506E-01  2672   0.165E+00    0.481E-02
DAV:   2    -0.133106422736E+03   -0.29309E-03   -0.31700E-03  2934   0.226E-01    0.275E-02
DAV:   3    -0.133106405236E+03    0.17501E-04   -0.28444E-05  2380   0.294E-02    0.187E-02
DAV:   4    -0.133106392257E+03    0.12979E-04   -0.59410E-05  2880   0.505E-02    0.616E-03
DAV:   5    -0.133106393712E+03   -0.14556E-05   -0.23429E-05  2082   0.201E-02    0.784E-03
DAV:   6    -0.133106392996E+03    0.71646E-06   -0.15085E-06  1530   0.537E-03
  13 F= -.13310639E+03 E0= -.13310329E+03  d E =-.525371E-03
       N       E                     dE             d eps       ncg     rms          rms(c)
DAV:   1    -0.133105132867E+03    0.12608E-02   -0.13021E+00  2660   0.494E+00    0.138E-01
DAV:   2    -0.133107666941E+03   -0.25341E-02   -0.27189E-02  2934   0.665E-01    0.791E-02
DAV:   3    -0.133107507791E+03    0.15915E-03   -0.22756E-04  3130   0.853E-02    0.527E-02
DAV:   4    -0.133107351670E+03    0.15612E-03   -0.37345E-04  3048   0.147E-01    0.136E-02
DAV:   5    -0.133107357698E+03   -0.60277E-05   -0.25769E-04  2908   0.711E-02    0.196E-02
DAV:   6    -0.133107351992E+03    0.57058E-05   -0.16790E-05  1726   0.183E-02
  14 F= -.13310735E+03 E0= -.13310419E+03  d E =-.148437E-02
       N       E                     dE             d eps       ncg     rms          rms(c)
DAV:   1    -0.133097538985E+03    0.98187E-02   -0.52060E+00  2660   0.988E+00    0.280E-01
DAV:   2    -0.133107713014E+03   -0.10174E-01   -0.10967E-01  2934   0.134E+00    0.159E-01
DAV:   3    -0.133107034780E+03    0.67823E-03   -0.94705E-04  3122   0.179E-01    0.106E-01
DAV:   4    -0.133106329529E+03    0.70525E-03   -0.13726E-03  3048   0.300E-01    0.296E-02
DAV:   5    -0.133106304637E+03    0.24891E-04   -0.11131E-03  2996   0.159E-01    0.389E-02
DAV:   6    -0.133106265357E+03    0.39280E-04   -0.12305E-04  2762   0.498E-02    0.308E-02
DAV:   7    -0.133106185878E+03    0.79479E-04   -0.32999E-05  2376   0.377E-02    0.193E-02
DAV:   8    -0.133105911998E+03    0.27388E-03   -0.23346E-04  3218   0.182E-01    0.309E-02
DAV:   9    -0.133105757673E+03    0.15433E-03   -0.16749E-04  3764   0.162E-01    0.339E-02
DAV:  10    -0.133105597745E+03    0.15993E-03   -0.52738E-04  4096   0.291E-01    0.480E-02
DAV:  11    -0.133105484439E+03    0.11331E-03   -0.34165E-04  3010   0.152E-01    0.318E-02
DAV:  12    -0.133105406872E+03    0.77567E-04   -0.17292E-04  3020   0.127E-01    0.177E-02
DAV:  13    -0.133105372345E+03    0.34527E-04   -0.78236E-05  3178   0.135E-01    0.150E-02
DAV:  14    -0.133105374170E+03   -0.18244E-05   -0.13039E-04  2796   0.739E-02    0.107E-02
DAV:  15    -0.133105377308E+03   -0.31386E-05   -0.90344E-05  2698   0.403E-02
  15 F= -.13310538E+03 E0= -.13310220E+03  d E =0.490317E-03
       N       E                     dE             d eps       ncg     rms          rms(c)
DAV:   1    -0.133102036620E+03    0.33376E-02   -0.31144E+00  2700   0.762E+00    0.214E-01
DAV:   2    -0.133108170712E+03   -0.61341E-02   -0.65759E-02  2910   0.102E+00    0.122E-01
DAV:   3    -0.133107797862E+03    0.37285E-03   -0.54215E-04  3130   0.128E-01    0.813E-02
DAV:   4    -0.133107456307E+03    0.34155E-03   -0.98154E-04  3066   0.222E-01    0.215E-02
DAV:   5    -0.133107474758E+03   -0.18451E-04   -0.54001E-04  2938   0.996E-02    0.295E-02
DAV:   6    -0.133107463359E+03    0.11399E-04   -0.27330E-05  2182   0.222E-02    0.239E-02
DAV:   7    -0.133107434104E+03    0.29255E-04   -0.22494E-05  1884   0.231E-02    0.142E-02
DAV:   8    -0.133107372079E+03    0.62024E-04   -0.76897E-05  2964   0.751E-02    0.179E-02
DAV:   9    -0.133107336591E+03    0.35488E-04   -0.45213E-05  2918   0.695E-02    0.225E-02
DAV:  10    -0.133107306926E+03    0.29665E-04   -0.12989E-04  3336   0.917E-02    0.210E-02
DAV:  11    -0.133107268779E+03    0.38147E-04   -0.54295E-05  2830   0.840E-02    0.146E-02
DAV:  12    -0.133107232234E+03    0.36545E-04   -0.36545E-05  2718   0.987E-02    0.142E-02
DAV:  13    -0.133107197638E+03    0.34596E-04   -0.73878E-05  3200   0.155E-01    0.101E-02
DAV:  14    -0.133107201188E+03   -0.35505E-05   -0.10460E-04  2738   0.640E-02    0.716E-03
DAV:  15    -0.133107201457E+03   -0.26886E-06   -0.38281E-05  2500   0.419E-02
  16 F= -.13310720E+03 E0= -.13310406E+03  d E =-.133383E-02
       N       E                     dE             d eps       ncg     rms          rms(c)
DAV:   1    -0.133107342431E+03   -0.14124E-03   -0.41173E-01  2652   0.280E+00    0.807E-02
DAV:   2    -0.133108124522E+03   -0.78209E-03   -0.88614E-03  2920   0.378E-01    0.440E-02
DAV:   3    -0.133108080556E+03    0.43967E-04   -0.14497E-04  3128   0.553E-02    0.308E-02
DAV:   4    -0.133108052499E+03    0.28057E-04   -0.63789E-05  2864   0.398E-02    0.140E-02
DAV:   5    -0.133108043423E+03    0.90761E-05   -0.31862E-05  2766   0.321E-02    0.781E-03
DAV:   6    -0.133108042750E+03    0.67307E-06   -0.17144E-05  1730   0.194E-02
  17 F= -.13310804E+03 E0= -.13310490E+03  d E =-.841293E-03
       N       E                     dE             d eps       ncg     rms          rms(c)
DAV:   1    -0.133106684476E+03    0.13589E-02   -0.11672E+00  2636   0.471E+00    0.135E-01
DAV:   2    -0.133108917023E+03   -0.22325E-02   -0.25303E-02  2920   0.640E-01    0.754E-02
DAV:   3    -0.133108780696E+03    0.13633E-03   -0.35954E-04  3128   0.889E-02    0.535E-02
DAV:   4    -0.133108678678E+03    0.10202E-03   -0.23281E-04  2966   0.804E-02    0.221E-02
DAV:   5    -0.133108653211E+03    0.25467E-04   -0.10556E-04  2980   0.608E-02    0.154E-02
DAV:   6    -0.133108645699E+03    0.75126E-05   -0.66048E-05  2906   0.428E-02
  18 F= -.13310865E+03 E0= -.13310551E+03  d E =-.144424E-02
       N       E                     dE             d eps       ncg     rms          rms(c)
DAV:   1    -0.133108588094E+03    0.65118E-04   -0.34601E-02  2650   0.812E-01    0.246E-02
DAV:   2    -0.133108649986E+03   -0.61893E-04   -0.75642E-04  2946   0.111E-01    0.134E-02
DAV:   3    -0.133108641602E+03    0.83844E-05   -0.82588E-06  1840   0.195E-02    0.920E-03
DAV:   4    -0.133108628570E+03    0.13032E-04   -0.16096E-05  2218   0.357E-02    0.325E-03
DAV:   5    -0.133108626361E+03    0.22086E-05   -0.12506E-05  1650   0.196E-02    0.375E-03
DAV:   6    -0.133108622317E+03    0.40441E-05   -0.43963E-06  1756   0.215E-02
  19 F= -.13310862E+03 E0= -.13310550E+03  d E =-.142086E-02
       N       E                     dE             d eps       ncg     rms          rms(c)
DAV:   1    -0.133108983150E+03   -0.35679E-03   -0.79480E-02  2616   0.123E+00    0.368E-02
DAV:   2    -0.133109134774E+03   -0.15162E-03   -0.18351E-03  2984   0.178E-01    0.262E-02
DAV:   3    -0.133109121443E+03    0.13331E-04   -0.44008E-05  2848   0.354E-02    0.199E-02
DAV:   4    -0.133109110964E+03    0.10479E-04   -0.36753E-05  2542   0.300E-02    0.878E-03
DAV:   5    -0.133109105956E+03    0.50083E-05   -0.10633E-05  1848   0.239E-02    0.653E-03
DAV:   6    -0.133109103884E+03    0.20717E-05   -0.76007E-06  1652   0.184E-02
  20 F= -.13310910E+03 E0= -.13310599E+03  d E =-.481567E-03
       N       E                     dE             d eps       ncg     rms          rms(c)
DAV:   1    -0.133109107009E+03   -0.10525E-05   -0.10570E-01  2612   0.142E+00    0.466E-02
DAV:   2    -0.133109309412E+03   -0.20240E-03   -0.26063E-03  2970   0.215E-01    0.307E-02
DAV:   3    -0.133109287242E+03    0.22171E-04   -0.72320E-05  2970   0.447E-02    0.238E-02
DAV:   4    -0.133109264074E+03    0.23168E-04   -0.61349E-05  2800   0.390E-02    0.105E-02
DAV:   5    -0.133109248089E+03    0.15984E-04   -0.21119E-05  2104   0.388E-02    0.118E-02
DAV:   6    -0.133109238494E+03    0.95954E-05   -0.15758E-05  1896   0.313E-02
  21 F= -.13310924E+03 E0= -.13310612E+03  d E =-.616177E-03
       N       E                     dE             d eps       ncg     rms          rms(c)
DAV:   1    -0.133109371560E+03   -0.12347E-03   -0.78371E-02  2680   0.119E+00    0.369E-02
DAV:   2    -0.133109488479E+03   -0.11692E-03   -0.16633E-03  3014   0.169E-01    0.233E-02
DAV:   3    -0.133109469625E+03    0.18854E-04   -0.37188E-05  2758   0.308E-02    0.163E-02
DAV:   4    -0.133109448186E+03    0.21439E-04   -0.39900E-05  2698   0.370E-02    0.786E-03
DAV:   5    -0.133109440213E+03    0.79731E-05   -0.14675E-05  1750   0.263E-02    0.752E-03
DAV:   6    -0.133109431055E+03    0.91576E-05   -0.75461E-06  1764   0.283E-02
  22 F= -.13310943E+03 E0= -.13310629E+03  d E =-.192561E-03
       N       E                     dE             d eps       ncg     rms          rms(c)
DAV:   1    -0.133109421231E+03    0.18982E-04   -0.88422E-03  2848   0.403E-01    0.133E-02
DAV:   2    -0.133109435499E+03   -0.14268E-04   -0.21982E-04  2994   0.620E-02    0.904E-03
DAV:   3    -0.133109431304E+03    0.41948E-05   -0.60498E-06  1626   0.134E-02    0.595E-03
DAV:   4    -0.133109424367E+03    0.69374E-05   -0.69473E-06  1732   0.182E-02    0.341E-03
DAV:   5    -0.133109420641E+03    0.37259E-05   -0.34322E-06  1630   0.156E-02    0.398E-03
DAV:   6    -0.133109416751E+03    0.38901E-05   -0.19417E-06  1646   0.194E-02
  23 F= -.13310942E+03 E0= -.13310627E+03  d E =-.178257E-03
       N       E                     dE             d eps       ncg     rms          rms(c)
DAV:   1    -0.133109471456E+03   -0.50815E-04   -0.69657E-02  2796   0.114E+00    0.352E-02
DAV:   2    -0.133109622358E+03   -0.15090E-03   -0.16946E-03  3004   0.166E-01    0.234E-02
DAV:   3    -0.133109608805E+03    0.13552E-04   -0.22350E-05  2110   0.297E-02    0.163E-02
DAV:   4    -0.133109597003E+03    0.11803E-04   -0.34349E-05  2450   0.381E-02    0.600E-03
DAV:   5    -0.133109594573E+03    0.24298E-05   -0.13076E-05  1600   0.205E-02    0.478E-03
DAV:   6    -0.133109592675E+03    0.18979E-05   -0.38674E-06  1602   0.113E-02
  24 F= -.13310959E+03 E0= -.13310643E+03  d E =-.175924E-03
       N       E                     dE             d eps       ncg     rms          rms(c)
DAV:   1    -0.133109548583E+03    0.45990E-04   -0.38175E-02  2796   0.846E-01    0.253E-02
DAV:   2    -0.133109615118E+03   -0.66536E-04   -0.85086E-04  2992   0.124E-01    0.166E-02
DAV:   3    -0.133109603631E+03    0.11487E-04   -0.18456E-05  1900   0.260E-02    0.119E-02
DAV:   4    -0.133109588570E+03    0.15061E-04   -0.95535E-06  1754   0.271E-02    0.613E-03
DAV:   5    -0.133109574170E+03    0.14401E-04   -0.11549E-05  1876   0.355E-02    0.452E-03
DAV:   6    -0.133109569528E+03    0.46419E-05   -0.11463E-05  1622   0.210E-02
  25 F= -.13310957E+03 E0= -.13310639E+03  d E =-.152777E-03
       N       E                     dE             d eps       ncg     rms          rms(c)
DAV:   1    -0.133109560617E+03    0.13553E-04   -0.55470E-03  2892   0.323E-01    0.131E-02
DAV:   2    -0.133109571972E+03   -0.11355E-04   -0.16583E-04  2922   0.544E-02    0.828E-03
DAV:   3    -0.133109570043E+03    0.19291E-05   -0.77304E-06  1596   0.129E-02    0.514E-03
DAV:   4    -0.133109568188E+03    0.18550E-05   -0.20900E-06  1590   0.788E-03    0.246E-03
DAV:   5    -0.133109566035E+03    0.21523E-05   -0.12336E-06  1590   0.112E-02    0.202E-03
DAV:   6    -0.133109564256E+03    0.17789E-05   -0.95224E-07  1614   0.121E-02
  26 F= -.13310956E+03 E0= -.13310640E+03  d E =-.147506E-03
       N       E                     dE             d eps       ncg     rms          rms(c)
DAV:   1    -0.133109564856E+03    0.11795E-05   -0.37059E-03  2928   0.263E-01    0.924E-03
DAV:   2    -0.133109574113E+03   -0.92567E-05   -0.10380E-04  2900   0.406E-02    0.583E-03
DAV:   3    -0.133109573424E+03    0.68849E-06   -0.13099E-06  1542   0.679E-03    0.393E-03
DAV:   4    -0.133109573157E+03    0.26748E-06   -0.43714E-06  1500   0.103E-02    0.208E-03
DAV:   5    -0.133109573103E+03    0.53352E-07   -0.88907E-07  1470   0.434E-03    0.193E-03
DAV:   6    -0.133109573085E+03    0.18366E-07   -0.10172E-07  1458   0.147E-03
  27 F= -.13310957E+03 E0= -.13310641E+03  d E =-.156334E-03
       N       E                     dE             d eps       ncg     rms          rms(c)
DAV:   1    -0.133109574422E+03   -0.13192E-05   -0.92338E-04  2792   0.131E-01    0.444E-03
DAV:   2    -0.133109576073E+03   -0.16503E-05   -0.20643E-05  1912   0.192E-02    0.233E-03
DAV:   3    -0.133109575958E+03    0.11431E-06   -0.97661E-07  1398   0.461E-03    0.172E-03
DAV:   4    -0.133109575829E+03    0.12911E-06   -0.20018E-07  1374   0.321E-03    0.951E-04
DAV:   5    -0.133109575739E+03    0.90793E-07   -0.24937E-07  1374   0.399E-03    0.540E-04
DAV:   6    -0.133109575721E+03    0.17703E-07   -0.17670E-07  1362   0.208E-03
  28 F= -.13310958E+03 E0= -.13310642E+03  d E =-.158970E-03
