 vasp.5.3.5 31Mar14 (build Apr 08 2024 10:12:10) complex                        
  
 executed on             LinuxIFC date 2024.07.29  11:17:09
 running on    8 total cores
 distrk:  each k-point on    8 cores,    1 groups
 distr:  one band on NCORES_PER_BAND=   4 cores,    2 groups


--------------------------------------------------------------------------------------------------------


 INCAR:
 POTCAR:    PAW_PBE O 08Apr2002                   
 POTCAR:    PAW_PBE Mg 13Apr2007                  
 POTCAR:    PAW_PBE Al 04Jan2001                  
 POTCAR:    PAW_PBE O 08Apr2002                   
   VRHFIN =O: s2p4                                                              
   LEXCH  = PE                                                                  
   EATOM  =   432.3788 eV,   31.7789 Ry                                         
                                                                                
   TITEL  = PAW_PBE O 08Apr2002                                                 
   LULTRA =        F    use ultrasoft PP ?                                      
   IUNSCR =        1    unscreen: 0-lin 1-nonlin 2-no                           
   RPACOR =    1.200    partial core radius                                     
   POMASS =   16.000; ZVAL   =    6.000    mass and valenz                      
   RCORE  =    1.520    outmost cutoff radius                                   
   RWIGS  =    1.550; RWIGS  =    0.820    wigner-seitz radius (au A)           
   ENMAX  =  400.000; ENMIN  =  300.000 eV                                      
   ICORE  =        2    local potential                                         
   LCOR   =        T    correct aug charges                                     
   LPAW   =        T    paw PP                                                  
   EAUG   =  605.392                                                            
   DEXC   =    0.000                                                            
   RMAX   =    1.553    core radius for proj-oper                               
   RAUG   =    1.300    factor for augmentation sphere                          
   RDEP   =    1.550    radius for radial grids                                 
   RDEPT  =    1.329    core radius for aug-charge                              
                                                                                
   Atomic configuration                                                         
    4 entries                                                                   
     n  l   j            E        occ.                                          
     1  0  0.50      -514.6923   2.0000                                         
     2  0  0.50       -23.9615   2.0000                                         
     2  1  0.50        -9.0305   4.0000                                         
     3  2  1.50        -9.5241   0.0000                                         
   Description                                                                  
     l       E           TYP  RCUT    TYP  RCUT                                 
     0    -23.9615318     23  1.200                                             
     0     -9.5240782     23  1.200                                             
     1     -9.0304911     23  1.520                                             
     1      8.1634956     23  1.520                                             
     2     -9.5240782      7  1.500                                             
  local pseudopotential read in
  partial core-charges read in
  partial kinetic energy density read in
  kinetic energy density of atom read in
  atomic valenz-charges read in
  non local Contribution for L=           0  read in
    real space projection operators read in
  non local Contribution for L=           0  read in
    real space projection operators read in
  non local Contribution for L=           1  read in
    real space projection operators read in
  non local Contribution for L=           1  read in
    real space projection operators read in
    PAW grid and wavefunctions read in
 
   number of l-projection  operators is LMAX  =           4
   number of lm-projection operators is LMMAX =           8
 
 POTCAR:    PAW_PBE Mg 13Apr2007                  
   VRHFIN =Mg: s2p0                                                             
   LEXCH  = PE                                                                  
   EATOM  =    23.0369 eV,    1.6932 Ry                                         
                                                                                
   TITEL  = PAW_PBE Mg 13Apr2007                                                
   LULTRA =        F    use ultrasoft PP ?                                      
   IUNSCR =        1    unscreen: 0-lin 1-nonlin 2-no                           
   RPACOR =    1.500    partial core radius                                     
   POMASS =   24.305; ZVAL   =    2.000    mass and valenz                      
   RCORE  =    2.000    outmost cutoff radius                                   
   RWIGS  =    2.880; RWIGS  =    1.524    wigner-seitz radius (au A)           
   ENMAX  =  200.000; ENMIN  =  100.000 eV                                      
   RCLOC  =    1.506    cutoff for local pot                                    
   LCOR   =        T    correct aug charges                                     
   LPAW   =        T    paw PP                                                  
   EAUG   =  454.734                                                            
   DEXC   =    0.000                                                            
   RMAX   =    2.045    core radius for proj-oper                               
   RAUG   =    1.300    factor for augmentation sphere                          
   RDEP   =    2.025    radius for radial grids                                 
   RDEPT  =    1.942    core radius for aug-charge                              
                                                                                
   Atomic configuration                                                         
    6 entries                                                                   
     n  l   j            E        occ.                                          
     1  0  0.50     -1259.6230   2.0000                                         
     2  0  0.50       -79.8442   2.0000                                         
     2  1  1.50       -46.6121   6.0000                                         
     3  0  0.50        -4.7055   2.0000                                         
     3  1  0.50        -1.3660   0.0000                                         
     3  2  1.50        -1.3606   0.0000                                         
   Description                                                                  
     l       E           TYP  RCUT    TYP  RCUT                                 
     0     -4.7054661     23  2.000                                             
     0     27.2116520     23  2.000                                             
     1      1.3605826     23  2.000                                             
     1     27.2116520     23  2.000                                             
     2     -1.3605826     23  2.000                                             
  local pseudopotential read in
  partial core-charges read in
  partial kinetic energy density read in
  atomic valenz-charges read in
  non local Contribution for L=           0  read in
    real space projection operators read in
  non local Contribution for L=           0  read in
    real space projection operators read in
  non local Contribution for L=           1  read in
    real space projection operators read in
  non local Contribution for L=           1  read in
    real space projection operators read in
  non local Contribution for L=           2  read in
    real space projection operators read in
    PAW grid and wavefunctions read in
 
   number of l-projection  operators is LMAX  =           5
   number of lm-projection operators is LMMAX =          13
 
 POTCAR:    PAW_PBE Al 04Jan2001                  
   VRHFIN =Al: s2p1                                                             
   LEXCH  = PE                                                                  
   EATOM  =    53.5387 eV,    3.9350 Ry                                         
                                                                                
   TITEL  = PAW_PBE Al 04Jan2001                                                
   LULTRA =        F    use ultrasoft PP ?                                      
   IUNSCR =        1    unscreen: 0-lin 1-nonlin 2-no                           
   RPACOR =    1.500    partial core radius                                     
   POMASS =   26.981; ZVAL   =    3.000    mass and valenz                      
   RCORE  =    1.900    outmost cutoff radius                                   
   RWIGS  =    2.650; RWIGS  =    1.402    wigner-seitz radius (au A)           
   ENMAX  =  240.300; ENMIN  =  180.225 eV                                      
   ICORE  =        2    local potential                                         
   LCOR   =        T    correct aug charges                                     
   LPAW   =        T    paw PP                                                  
   EAUG   =  291.052                                                            
   DEXC   =    0.000                                                            
   RMAX   =    1.939    core radius for proj-oper                               
   RAUG   =    1.300    factor for augmentation sphere                          
   RDEP   =    1.966    radius for radial grids                                 
   RDEPT  =    1.856    core radius for aug-charge                              
                                                                                
   Atomic configuration                                                         
    6 entries                                                                   
     n  l   j            E        occ.                                          
     1  0  0.50     -1511.1048   2.0000                                         
     2  0  0.50      -108.1629   2.0000                                         
     2  1  1.50       -69.6402   6.0000                                         
     3  0  0.50        -7.7528   2.0000                                         
     3  1  1.50        -2.7121   1.0000                                         
     3  2  2.50        -2.7212   0.0000                                         
   Description                                                                  
     l       E           TYP  RCUT    TYP  RCUT                                 
     0     -7.7528455     23  1.900                                             
     0     -3.3096929     23  1.900                                             
     1     -2.7120682     23  1.900                                             
     1     13.6058260     23  1.900                                             
     2     -2.7211652      7  1.900                                             
  local pseudopotential read in
  partial core-charges read in
  partial kinetic energy density read in
  atomic valenz-charges read in
  non local Contribution for L=           0  read in
    real space projection operators read in
  non local Contribution for L=           0  read in
    real space projection operators read in
  non local Contribution for L=           1  read in
    real space projection operators read in
  non local Contribution for L=           1  read in
    real space projection operators read in
    PAW grid and wavefunctions read in
 
   number of l-projection  operators is LMAX  =           4
   number of lm-projection operators is LMMAX =           8
 

 ----------------------------------------------------------------------------- 
|                                                                             |
|  ADVICE TO THIS USER RUNNING 'VASP/VAMP'   (HEAR YOUR MASTER'S VOICE ...):  |
|                                                                             |
|      You have a (more or less) 'large supercell' and for larger cells       |
|      it might be more efficient to use real space projection opertators     |
|      So try LREAL= Auto  in the INCAR   file.                               |
|      Mind: At the moment your POTCAR file does not contain real space       |
|       projectors, and has to be modified,  BUT if you                       |
|      want to do an extremely  accurate calculation you might also keep the  |
|      reciprocal projection scheme          (i.e. LREAL=.FALSE.)             |
|                                                                             |
 ----------------------------------------------------------------------------- 

  PAW_PBE O 08Apr2002                   :
 energy of atom  1       EATOM= -432.3788
 kinetic energy error for atom=    0.0208 (will be added to EATOM!!)
  PAW_PBE Mg 13Apr2007                  :
 energy of atom  2       EATOM=  -23.0369
 kinetic energy error for atom=    0.0000 (will be added to EATOM!!)
  PAW_PBE Al 04Jan2001                  :
 energy of atom  3       EATOM=  -53.5387
 kinetic energy error for atom=    0.0002 (will be added to EATOM!!)
 
 
 POSCAR: Layer                                   
  positions in direct lattice
  velocities in cartesian coordinates
 exchange correlation table for  LEXCH =        8
   RHO(1)=    0.500       N(1)  =     2000
   RHO(2)=  100.500       N(2)  =     4000
 


--------------------------------------------------------------------------------------------------------


 ion  position               nearest neighbor table
   1  0.000  0.000  0.349-  17 2.14  17 2.14  17 2.14  14 2.14  14 2.14  14 2.14
   2  0.333  0.667  0.408-  14 2.14  14 2.14  14 2.14  11 2.14  11 2.14  11 2.14
   3  0.000  0.000  0.526-  18 2.14  18 2.14  18 2.14  15 2.14  15 2.14  15 2.14
   4  0.333  0.667  0.585-  15 2.14  15 2.14  15 2.14  12 2.14  12 2.14  12 2.14
   5  0.000  0.000  0.703-  16 2.14  16 2.14  16 2.14  19 2.14  19 2.14  19 2.14
   6  0.333  0.667  0.762-  16 2.14  16 2.14  16 2.14  13 2.16  13 2.16  13 2.16
   7  0.667  0.333  0.290-  17 2.14  17 2.14  17 2.14  10 2.16  10 2.16  10 2.16
   8  0.667  0.333  0.467-  18 2.14  18 2.14  18 2.14  11 2.14  11 2.14  11 2.14
   9  0.667  0.333  0.644-  12 2.14  12 2.14  12 2.14  19 2.14  19 2.14  19 2.14
  10  0.000  0.000  0.260-   7 2.16   7 2.16   7 2.16  21 2.92  17 3.08  17 3.08  17 3.08
  11  0.000  0.000  0.437-   2 2.14   2 2.14   2 2.14   8 2.14   8 2.14   8 2.14  18 3.05  18 3.05
                            18 3.05  14 3.05  14 3.05  14 3.05
  12  0.000  0.000  0.614-   9 2.14   9 2.14   9 2.14   4 2.14   4 2.14   4 2.14  15 3.05  15 3.05
                            15 3.05  19 3.05  19 3.05  19 3.05
  13  0.000  0.000  0.792-   6 2.16   6 2.16   6 2.16  24 2.92  16 3.08  16 3.08  16 3.08
  14  0.667  0.333  0.378-   2 2.14   2 2.14   2 2.14   1 2.14   1 2.14   1 2.14  17 3.05  17 3.05
                            17 3.05  11 3.05  11 3.05  11 3.05
  15  0.667  0.333  0.555-   4 2.14   4 2.14   4 2.14   3 2.14   3 2.14   3 2.14  18 3.05  18 3.05
                            18 3.05  12 3.05  12 3.05  12 3.05
  16  0.667  0.333  0.732-   5 2.14   5 2.14   5 2.14   6 2.14   6 2.14   6 2.14  19 3.05  19 3.05
                            19 3.05  13 3.08  13 3.08  13 3.08
  17  0.333  0.667  0.319-   1 2.14   1 2.14   1 2.14   7 2.14   7 2.14   7 2.14  14 3.05  14 3.05
                            14 3.05  10 3.08  10 3.08  10 3.08
  18  0.333  0.667  0.496-   3 2.14   3 2.14   3 2.14   8 2.14   8 2.14   8 2.14  15 3.05  15 3.05
                            15 3.05  11 3.05  11 3.05  11 3.05
  19  0.333  0.667  0.673-   9 2.14   9 2.14   9 2.14   5 2.14   5 2.14   5 2.14  16 3.05  16 3.05
                            16 3.05  12 3.05  12 3.05  12 3.05
  20  0.000  0.000  0.026-  25 2.90  25 2.90  25 2.90  23 2.90  23 2.90  23 2.90
  21  0.000  0.000  0.191-  10 2.92  22 2.93  22 2.93  22 2.93
  22  0.667  0.333  0.136-  23 2.92  23 2.92  23 2.92  21 2.93  21 2.93  21 2.93
  23  0.333  0.667  0.080-  20 2.90  20 2.90  20 2.90  22 2.92  22 2.92  22 2.92
  24  0.000  0.000  0.860-  13 2.92  26 2.93  26 2.93  26 2.93
  25  0.667  0.333  0.971-  20 2.90  20 2.90  20 2.90  26 2.92  26 2.92  26 2.92
  26  0.333  0.667  0.916-  25 2.92  25 2.92  25 2.92  24 2.93  24 2.93  24 2.93
 
  LATTYP: Found a hexagonal cell.
 ALAT       =     2.9929628358
 C/A-ratio  =    14.2484901235
  
  Lattice vectors:
  
 A1 = (   2.5919820457,  -1.4964810762,   0.0000000000)
 A2 = (   0.0000000000,   2.9929621524,   0.0000000000)
 A3 = (   0.0000000000,  -0.0000000000,  42.6452014059)


Analysis of symmetry for initial positions (statically):
=====================================================================
 Subroutine PRICEL returns:
 Original cell was already a primitive cell.
 

 Routine SETGRP: Setting up the symmetry group for a 
 hexagonal supercell.


 Subroutine GETGRP returns: Found  6 space group operations
 (whereof  6 operations were pure point group operations)
 out of a pool of 24 trial point group operations.


The static configuration has the point symmetry C_3v.


Analysis of symmetry for dynamics (positions and initial velocities):
=====================================================================
 Subroutine PRICEL returns:
 Original cell was already a primitive cell.
 

 Routine SETGRP: Setting up the symmetry group for a 
 hexagonal supercell.


 Subroutine GETGRP returns: Found  6 space group operations
 (whereof  6 operations were pure point group operations)
 out of a pool of 24 trial point group operations.


The dynamic configuration has the point symmetry C_3v.


Analysis of constrained symmetry for selective dynamics:
=====================================================================
 Subroutine PRICEL returns:
 Original cell was already a primitive cell.
 

 Routine SETGRP: Setting up the symmetry group for a 
 hexagonal supercell.


 Subroutine GETGRP returns: Found  6 space group operations
 (whereof  6 operations were pure point group operations)
 out of a pool of 24 trial point group operations.


The constrained configuration has the point symmetry C_3v.
 
 
 KPOINTS: K-Spacing Value to Generate K-Mesh: 0.02

Automatic generation of k-mesh.
Space group operators:
 irot       det(A)        alpha          n_x          n_y          n_z        tau_x        tau_y        tau_z
    1     1.000000     0.000001     1.000000     0.000000     0.000000     0.000000     0.000000     0.000000
    2     1.000000   120.000000    -0.000000     0.000000    -1.000000     0.000000     0.000000     0.000000
    3     1.000000   120.000000    -0.000000    -0.000000     1.000000     0.000000     0.000000     0.000000
    4    -1.000000   180.000000    -0.866025     0.500000     0.000000     0.000000     0.000000     0.000000
    5    -1.000000   180.000000     0.000000     1.000000     0.000000     0.000000     0.000000     0.000000
    6    -1.000000   180.000000    -0.866025    -0.500000    -0.000000     0.000000     0.000000     0.000000
 
 Subroutine IBZKPT returns following result:
 ===========================================
 
 Found     21 irreducible k-points:
 
 Following reciprocal coordinates:
            Coordinates               Weight
  0.000000  0.000000  0.000000      1.000000
  0.076923  0.000000 -0.000000      6.000000
  0.153846  0.000000  0.000000      6.000000
  0.230769  0.000000 -0.000000      6.000000
  0.307692  0.000000 -0.000000      6.000000
  0.384615  0.000000 -0.000000      6.000000
  0.461538  0.000000 -0.000000      6.000000
  0.076923  0.076923  0.000000      6.000000
  0.153846  0.076923  0.000000     12.000000
  0.230769  0.076923 -0.000000     12.000000
  0.307692  0.076923  0.000000     12.000000
  0.384615  0.076923  0.000000     12.000000
  0.461538  0.076923  0.000000      6.000000
  0.153846  0.153846  0.000000      6.000000
  0.230769  0.153846  0.000000     12.000000
  0.307692  0.153846  0.000000     12.000000
  0.384615  0.153846  0.000000     12.000000
  0.230769  0.230769  0.000000      6.000000
  0.307692  0.230769  0.000000     12.000000
  0.384615  0.230769 -0.000000      6.000000
  0.307692  0.307692  0.000000      6.000000
 
 Following cartesian coordinates:
            Coordinates               Weight
  0.000000  0.000000  0.000000      1.000000
  0.029677 -0.000000 -0.000000      6.000000
  0.059355 -0.000000 -0.000000      6.000000
  0.089032 -0.000000 -0.000000      6.000000
  0.118709 -0.000000 -0.000000      6.000000
  0.148387 -0.000000 -0.000000      6.000000
  0.178064 -0.000000 -0.000000      6.000000
  0.044516  0.025701  0.000000      6.000000
  0.074193  0.025701  0.000000     12.000000
  0.103871  0.025701  0.000000     12.000000
  0.133548  0.025701  0.000000     12.000000
  0.163225  0.025701  0.000000     12.000000
  0.192903  0.025701  0.000000      6.000000
  0.089032  0.051403  0.000000      6.000000
  0.118709  0.051403  0.000000     12.000000
  0.148387  0.051403  0.000000     12.000000
  0.178064  0.051403  0.000000     12.000000
  0.133548  0.077104  0.000000      6.000000
  0.163225  0.077104  0.000000     12.000000
  0.192903  0.077104  0.000000      6.000000
  0.178064  0.102805  0.000000      6.000000
 


--------------------------------------------------------------------------------------------------------




 Dimension of arrays:
   k-points           NKPTS =     21   k-points in BZ     NKDIM =     21   number of bands    NBANDS=     62
   number of dos      NEDOS =    301   number of ions     NIONS =     26
   non local maximal  LDIM  =      5   non local SUM 2l+1 LMDIM =     13
   total plane-waves  NPLWV = 184320
   max r-space proj   IRMAX =      1   max aug-charges    IRDMAX= 189517
   dimension x,y,z NGX =    24 NGY =   24 NGZ =  320
   dimension x,y,z NGXF=    48 NGYF=   48 NGZF=  640
   support grid    NGXF=    96 NGYF=   96 NGZF= 1280
   ions per type =               9  10   7
 NGX,Y,Z   is equivalent  to a cutoff of  13.33, 13.33, 12.47 a.u.
 NGXF,Y,Z  is equivalent  to a cutoff of  26.66, 26.66, 24.95 a.u.


 I would recommend the setting:
   dimension x,y,z NGX =    22 NGY =   22 NGZ =  317
 SYSTEM =  unknown system                          
 POSCAR =  Layer                                   

 Startparameter for this run:
   NWRITE =      2    write-flag & timer
   PREC   = accura    normal or accurate (medium, high low for compatibility)
   ISTART =      0    job   : 0-new  1-cont  2-samecut
   ICHARG =      2    charge: 1-file 2-atom 10-const
   ISPIN  =      1    spin polarized calculation?
   LNONCOLLINEAR =      F non collinear calculations
   LSORBIT =      F    spin-orbit coupling
   INIWAV =      1    electr: 0-lowe 1-rand  2-diag
   LASPH  =      F    aspherical Exc in radial PAW
   METAGGA=      F    non-selfconsistent MetaGGA calc.

 Electronic Relaxation 1
   ENCUT  =  520.0 eV  38.22 Ry    6.18 a.u.   5.56  5.56 79.29*2*pi/ulx,y,z
   ENINI  =  520.0     initial cutoff
   ENAUG  =  605.4 eV  augmentation charge cutoff
   NELM   =    100;   NELMIN=  6; NELMDL=  0     # of ELM steps 
   EDIFF  = 0.1E-04   stopping-criterion for ELM
   LREAL  =      F    real-space projection
   NLSPLINE    = F    spline interpolate recip. space projectors
   LCOMPAT=      F    compatible to vasp.4.4
   GGA_COMPAT  = T    GGA compatible to vasp.4.4-vasp.4.6
   LMAXPAW     = -100 max onsite density
   LMAXMIX     =    2 max onsite mixed and CHGCAR
   VOSKOWN=      0    Vosko Wilk Nusair interpolation
   ROPT   =    0.00000   0.00000   0.00000
 Ionic relaxation
   EDIFFG = -.2E-01   stopping-criterion for IOM
   NSW    =    500    number of steps for IOM
   NBLOCK =      1;   KBLOCK =    500    inner block; outer block 
   IBRION =      2    ionic relax: 0-MD 1-quasi-New 2-CG
   NFREE  =      1    steps in history (QN), initial steepest desc. (CG)
   ISIF   =      2    stress and relaxation
   IWAVPR =     11    prediction:  0-non 1-charg 2-wave 3-comb
   ISYM   =      2    0-nonsym 1-usesym 2-fastsym
   LCORR  =      T    Harris-Foulkes like correction to forces

   POTIM  = 0.5000    time-step for ionic-motion
   TEIN   =    0.0    initial temperature
   TEBEG  =    0.0;   TEEND  =   0.0 temperature during run
   SMASS  =  -3.00    Nose mass-parameter (am)
   estimated Nose-frequenzy (Omega)   =  0.10E-29 period in steps =****** mass=  -0.205E-27a.u.
   SCALEE = 1.0000    scale energy and forces
   NPACO  =    256;   APACO  = 16.0  distance and # of slots for P.C.
   PSTRESS=    0.0 pullay stress

  Mass of Ions in am
   POMASS =  16.00 24.30 26.98
  Ionic Valenz
   ZVAL   =   6.00  2.00  3.00
  Atomic Wigner-Seitz radii
   RWIGS  =  -1.00 -1.00 -1.00
  virtual crystal weights 
   VCA    =   1.00  1.00  1.00
   NELECT =      95.0000    total number of electrons
   NUPDOWN=      -1.0000    fix difference up-down

 DOS related values:
   EMIN   =  10.00;   EMAX   =-10.00  energy-range for DOS
   EFERMI =   0.00
   ISMEAR =     0;   SIGMA  =   0.05  broadening in eV -4-tet -1-fermi 0-gaus

 Electronic relaxation 2 (details)
   IALGO  =     38    algorithm
   LDIAG  =      T    sub-space diagonalisation (order eigenvalues)
   LSUBROT=      F    optimize rotation matrix (better conditioning)
   TURBO    =      0    0=normal 1=particle mesh
   IRESTART =      0    0=no restart 2=restart with 2 vectors
   NREBOOT  =      0    no. of reboots
   NMIN     =      0    reboot dimension
   EREF     =   0.00    reference energy to select bands
   IMIX   =      4    mixing-type and parameters
     AMIX     =   0.40;   BMIX     =  1.00
     AMIX_MAG =   1.60;   BMIX_MAG =  1.00
     AMIN     =   0.01
     WC   =   100.;   INIMIX=   1;  MIXPRE=   1;  MAXMIX= -45

 Intra band minimization:
   WEIMIN = 0.0010     energy-eigenvalue tresh-hold
   EBREAK =  0.40E-07  absolut break condition
   DEPER  =   0.30     relativ break condition  

   TIME   =   0.40     timestep for ELM

  volume/ion in A,a.u.               =      12.72        85.87
  Fermi-wavevector in a.u.,A,eV,Ry     =   1.080061  2.041019 15.871625  1.166532
  Thomas-Fermi vector in A             =   2.216042
 
 Write flags
   LWAVE  =      F    write WAVECAR
   LCHARG =      T    write CHGCAR
   LVTOT  =      F    write LOCPOT, total local potential
   LVHAR  =      F    write LOCPOT, Hartree potential only
   LELF   =      F    write electronic localiz. function (ELF)
   LORBIT =      0    0 simple, 1 ext, 2 COOP (PROOUT)


 Dipole corrections
   LMONO  =      F    monopole corrections only (constant potential shift)
   LDIPOL =      F    correct potential (dipole corrections)
   IDIPOL =      0    1-x, 2-y, 3-z, 4-all directions 
   EPSILON=  1.0000000 bulk dielectric constant

 Exchange correlation treatment:
   GGA     =    --    GGA type
   LEXCH   =     8    internal setting for exchange type
   VOSKOWN=      0    Vosko Wilk Nusair interpolation
   LHFCALC =     F    Hartree Fock is set to
   LHFONE  =     F    Hartree Fock one center treatment
   AEXX    =    0.0000 exact exchange contribution

 Linear response parameters
   LEPSILON=     F    determine dielectric tensor
   LRPA    =     F    only Hartree local field effects (RPA)
   LNABLA  =     F    use nabla operator in PAW spheres
   LVEL    =     F    velocity operator in full k-point grid
   LINTERFAST=   F  fast interpolation
   KINTER  =     0    interpolate to denser k-point grid
   CSHIFT  =0.1000    complex shift for real part using Kramers Kronig
   OMEGAMAX=  -1.0    maximum frequency
   DEG_THRESHOLD= 0.2000000E-02 threshold for treating states as degnerate
   RTIME   =    0.100 relaxation time in fs

 Orbital magnetization related:
   ORBITALMAG=     F  switch on orbital magnetization
   LCHIMAG   =     F  perturbation theory with respect to B field
   DQ        =  0.001000  dq finite difference perturbation B field



--------------------------------------------------------------------------------------------------------


 conjugate gradient relaxation of ions
   using selective dynamics as specified on POSCAR
 charge density and potential will be updated during run
 non-spin polarized calculation
 Variant of blocked Davidson
 Davidson routine will perform the subspace rotation
 perform sub-space diagonalisation
    after iterative eigenvector-optimisation
 modified Broyden-mixing scheme, WC =      100.0
 initial mixing is a Kerker type mixing with AMIX =  0.4000 and BMIX =      1.0000
 Hartree-type preconditioning will be used
 using additional bands           14
 reciprocal scheme for non local part
 use partial core corrections
 calculate Harris-corrections to forces 
   (improved forces if not selfconsistent)
 use gradient corrections 
 use of overlap-Matrix (Vanderbilt PP)
 Gauss-broadening in eV      SIGMA  =   0.05


--------------------------------------------------------------------------------------------------------


  energy-cutoff  :      520.00
  volume of cell :      330.83
      direct lattice vectors                 reciprocal lattice vectors
     2.591982046 -1.496481076  0.000000000     0.385805142 -0.000000000 -0.000000000
     0.000000000  2.992962152  0.000000000     0.192902571  0.334117155  0.000000000
     0.000000000 -0.000000000 42.645201406     0.000000000  0.000000000  0.023449297

  length of vectors
     2.992962836  2.992962152 42.645201406     0.385805142  0.385805230  0.023449297


 
 k-points in units of 2pi/SCALE and weight: K-Spacing Value to Generate K-Mesh: 0.02
   0.00000000  0.00000000  0.00000000       0.006
   0.02967732 -0.00000000 -0.00000000       0.036
   0.05935464 -0.00000000 -0.00000000       0.036
   0.08903196 -0.00000000 -0.00000000       0.036
   0.11870927 -0.00000000 -0.00000000       0.036
   0.14838659 -0.00000000 -0.00000000       0.036
   0.17806391 -0.00000000 -0.00000000       0.036
   0.04451598  0.02570132  0.00000000       0.036
   0.07419330  0.02570132  0.00000000       0.071
   0.10387062  0.02570132  0.00000000       0.071
   0.13354793  0.02570132  0.00000000       0.071
   0.16322525  0.02570132  0.00000000       0.071
   0.19290257  0.02570132  0.00000000       0.036
   0.08903196  0.05140264  0.00000000       0.036
   0.11870927  0.05140264  0.00000000       0.071
   0.14838659  0.05140264  0.00000000       0.071
   0.17806391  0.05140264  0.00000000       0.071
   0.13354793  0.07710396  0.00000000       0.036
   0.16322525  0.07710396  0.00000000       0.071
   0.19290257  0.07710396  0.00000000       0.036
   0.17806391  0.10280528  0.00000000       0.036
 
 k-points in reciprocal lattice and weights: K-Spacing Value to Generate K-Mesh: 0.02
   0.00000000  0.00000000  0.00000000       0.006
   0.07692308  0.00000000 -0.00000000       0.036
   0.15384615  0.00000000  0.00000000       0.036
   0.23076923  0.00000000 -0.00000000       0.036
   0.30769231  0.00000000 -0.00000000       0.036
   0.38461538  0.00000000 -0.00000000       0.036
   0.46153846  0.00000000 -0.00000000       0.036
   0.07692308  0.07692308  0.00000000       0.036
   0.15384615  0.07692308  0.00000000       0.071
   0.23076923  0.07692308 -0.00000000       0.071
   0.30769231  0.07692308  0.00000000       0.071
   0.38461538  0.07692308  0.00000000       0.071
   0.46153846  0.07692308  0.00000000       0.036
   0.15384615  0.15384615  0.00000000       0.036
   0.23076923  0.15384615  0.00000000       0.071
   0.30769231  0.15384615  0.00000000       0.071
   0.38461538  0.15384615  0.00000000       0.071
   0.23076923  0.23076923  0.00000000       0.036
   0.30769231  0.23076923  0.00000000       0.071
   0.38461538  0.23076923 -0.00000000       0.036
   0.30769231  0.30769231  0.00000000       0.036
 
 position of ions in fractional coordinates (direct lattice) 
   0.00000000  0.00000000  0.34884187
   0.33333300  0.66666700  0.40781456
   0.00000000  0.00000000  0.52575411
   0.33333300  0.66666700  0.58470861
   0.00000000  0.00000000  0.70276559
   0.33333300  0.66666700  0.76177842
   0.66666700  0.33333300  0.28985986
   0.66666700  0.33333300  0.46681431
   0.66666700  0.33333300  0.64374523
   0.00000000  0.00000000  0.25959530
   0.00000000  0.00000000  0.43731368
   0.00000000  0.00000000  0.61424069
   0.00000000  0.00000000  0.79203133
   0.66666700  0.33333300  0.37833112
   0.66666700  0.33333300  0.55524006
   0.66666700  0.33333300  0.73224601
   0.33333300  0.66666700  0.31935601
   0.33333300  0.66666700  0.49629590
   0.33333300  0.66666700  0.67325186
   0.00000000  0.00000000  0.02577294
   0.00000000  0.00000000  0.19120056
   0.66666700  0.33333300  0.13567577
   0.33333300  0.66666700  0.08049856
   0.00000000  0.00000000  0.86042351
   0.66666700  0.33333300  0.97105297
   0.33333300  0.66666700  0.91590619
 
 position of ions in cartesian coordinates  (Angst):
   0.00000000 -0.00000000 14.87643175
   0.86399315  1.49648257 17.39133423
   0.00000000 -0.00000000 22.42088985
   0.86399315  1.49648257 24.93501625
   0.00000000 -0.00000000 29.96958006
   0.86399315  1.49648257 32.48619425
   1.72798889 -0.00000150 12.36113193
   1.72798889 -0.00000150 19.90739042
   1.72798889 -0.00000150 27.45264489
   0.00000000 -0.00000000 11.07049377
   0.00000000 -0.00000000 18.64932995
   0.00000000 -0.00000000 26.19441803
   0.00000000 -0.00000000 33.77633579
   1.72798889 -0.00000150 16.13400673
   1.72798889 -0.00000150 23.67832404
   1.72798889 -0.00000150 31.22677850
   0.86399315  1.49648257 13.61900146
   0.86399315  1.49648257 21.16463865
   0.86399315  1.49648257 28.71096101
   0.00000000 -0.00000000  1.09909232
   0.00000000 -0.00000000  8.15378621
   1.72798889 -0.00000150  5.78592056
   0.86399315  1.49648257  3.43287725
   0.00000000 -0.00000000 36.69293380
   1.72798889 -0.00000150 41.41074930
   0.86399315  1.49648257 39.05900380
 


--------------------------------------------------------------------------------------------------------


 k-point  1 :   0.0000 0.0000 0.0000  plane waves:    9039
 k-point  2 :   0.0769 0.0000-0.0000  plane waves:    9029
 k-point  3 :   0.1538 0.0000 0.0000  plane waves:    8995
 k-point  4 :   0.2308 0.0000-0.0000  plane waves:    8964
 k-point  5 :   0.3077 0.0000-0.0000  plane waves:    8906
 k-point  6 :   0.3846 0.0000-0.0000  plane waves:    8840
 k-point  7 :   0.4615 0.0000-0.0000  plane waves:    8854
 k-point  8 :   0.0769 0.0769 0.0000  plane waves:    9007
 k-point  9 :   0.1538 0.0769 0.0000  plane waves:    8986
 k-point 10 :   0.2308 0.0769-0.0000  plane waves:    8919
 k-point 11 :   0.3077 0.0769 0.0000  plane waves:    8906
 k-point 12 :   0.3846 0.0769 0.0000  plane waves:    8864
 k-point 13 :   0.4615 0.0769 0.0000  plane waves:    8824
 k-point 14 :   0.1538 0.1538 0.0000  plane waves:    8939
 k-point 15 :   0.2308 0.1538 0.0000  plane waves:    8906
 k-point 16 :   0.3077 0.1538 0.0000  plane waves:    8886
 k-point 17 :   0.3846 0.1538 0.0000  plane waves:    8854
 k-point 18 :   0.2308 0.2308 0.0000  plane waves:    8910
 k-point 19 :   0.3077 0.2308 0.0000  plane waves:    8857
 k-point 20 :   0.3846 0.2308-0.0000  plane waves:    8884
 k-point 21 :   0.3077 0.3077 0.0000  plane waves:    8902

 maximum and minimum number of plane-waves per node :      2283     2198

 maximum number of plane-waves:      9039
 maximum index in each direction: 
   IXMAX=    5   IYMAX=    5   IZMAX=   79
   IXMIN=   -6   IYMIN=   -5   IZMIN=  -79

 NGX is ok and might be reduce to  24
 NGY is ok and might be reduce to  22
 NGZ is ok and might be reduce to 318

 parallel 3D FFT for wavefunctions:
    minimum data exchange during FFTs selected (reduces bandwidth)
 parallel 3D FFT for charge:
    minimum data exchange during FFTs selected (reduces bandwidth)


 total amount of memory used by VASP on root node   147800. kBytes
========================================================================

   base      :      30000. kBytes
   nonl-proj :      15914. kBytes
   fftplans  :      55172. kBytes
   grid      :      22118. kBytes
   one-center:         56. kBytes
   wavefun   :      24540. kBytes
 
     INWAV:  cpu time    0.00: real time    0.00
 Broyden mixing: mesh for mixing (old mesh)
   NGX = 11   NGY = 11   NGZ =159
  (NGX  = 48   NGY  = 48   NGZ  =640)
  gives a total of  19239 points

 initial charge density was supplied:
 charge density of overlapping atoms calculated
 number of electron      95.0000000 magnetization 
 keeping initial charge density in first step


--------------------------------------------------------------------------------------------------------


 Maximum index for augmentation-charges        22820 (set IRDMAX)


--------------------------------------------------------------------------------------------------------


 First call to EWALD:  gamma=   0.256
 Maximum number of real-space cells 7x 7x 1
 Maximum number of reciprocal cells 1x 1x14

 FEWALD executed in parallel
    FEWALD:  cpu time    0.00: real time    0.00


----------------------------------------- Iteration    1(   1)  ---------------------------------------


    POTLOK:  cpu time    0.11: real time    0.11
    SETDIJ:  cpu time    0.11: real time    0.11
     EDDAV:  cpu time    4.03: real time    4.05
       DOS:  cpu time    0.00: real time    0.00
    --------------------------------------------
      LOOP:  cpu time    4.25: real time    4.27

 eigenvalue-minimisations  :  2620
 total energy-change (2. order) : 0.4752949E+03  (-0.4140093E+04)
 number of electron      95.0000000 magnetization 
 augmentation part       95.0000000 magnetization 

 Free energy of the ion-electron system (eV)
  ---------------------------------------------------
  alpha Z        PSCENC =       122.22085603
  Ewald energy   TEWEN  =     14429.01520939
  -Hartree energ DENC   =    -19176.66856408
  -exchange      EXHF   =         0.00000000
  -V(xc)+E(xc)   XCENC  =      -419.37588706
  PAW double counting   =      4235.41334458    -3509.29226066
  entropy T*S    EENTRO =        -0.00424549
  eigenvalues    EBANDS =       297.62670327
  atomic energy  EATOM  =      4496.35971583
  ---------------------------------------------------
  free energy    TOTEN  =       475.29487181 eV

  energy without entropy =      475.29911730  energy(sigma->0) =      475.29699455


--------------------------------------------------------------------------------------------------------




----------------------------------------- Iteration    1(   2)  ---------------------------------------


     EDDAV:  cpu time    4.84: real time    4.85
       DOS:  cpu time    0.00: real time    0.00
    --------------------------------------------
      LOOP:  cpu time    4.84: real time    4.85

 eigenvalue-minimisations  :  3364
 total energy-change (2. order) :-0.5672464E+03  (-0.5376866E+03)
 number of electron      95.0000000 magnetization 
 augmentation part       95.0000000 magnetization 

 Free energy of the ion-electron system (eV)
  ---------------------------------------------------
  alpha Z        PSCENC =       122.22085603
  Ewald energy   TEWEN  =     14429.01520939
  -Hartree energ DENC   =    -19176.66856408
  -exchange      EXHF   =         0.00000000
  -V(xc)+E(xc)   XCENC  =      -419.37588706
  PAW double counting   =      4235.41334458    -3509.29226066
  entropy T*S    EENTRO =        -0.00417518
  eigenvalues    EBANDS =      -269.61979247
  atomic energy  EATOM  =      4496.35971583
  ---------------------------------------------------
  free energy    TOTEN  =       -91.95155363 eV

  energy without entropy =      -91.94737844  energy(sigma->0) =      -91.94946604


--------------------------------------------------------------------------------------------------------




----------------------------------------- Iteration    1(   3)  ---------------------------------------


     EDDAV:  cpu time    4.48: real time    4.49
       DOS:  cpu time    0.00: real time    0.00
    --------------------------------------------
      LOOP:  cpu time    4.49: real time    4.49

 eigenvalue-minimisations  :  3042
 total energy-change (2. order) :-0.5538908E+02  (-0.5503941E+02)
 number of electron      95.0000000 magnetization 
 augmentation part       95.0000000 magnetization 

 Free energy of the ion-electron system (eV)
  ---------------------------------------------------
  alpha Z        PSCENC =       122.22085603
  Ewald energy   TEWEN  =     14429.01520939
  -Hartree energ DENC   =    -19176.66856408
  -exchange      EXHF   =         0.00000000
  -V(xc)+E(xc)   XCENC  =      -419.37588706
  PAW double counting   =      4235.41334458    -3509.29226066
  entropy T*S    EENTRO =        -0.00913997
  eigenvalues    EBANDS =      -325.00391100
  atomic energy  EATOM  =      4496.35971583
  ---------------------------------------------------
  free energy    TOTEN  =      -147.34063694 eV

  energy without entropy =     -147.33149697  energy(sigma->0) =     -147.33606696


--------------------------------------------------------------------------------------------------------




----------------------------------------- Iteration    1(   4)  ---------------------------------------


     EDDAV:  cpu time    4.50: real time    4.51
       DOS:  cpu time    0.00: real time    0.00
    --------------------------------------------
      LOOP:  cpu time    4.51: real time    4.51

 eigenvalue-minimisations  :  3064
 total energy-change (2. order) :-0.7457165E+00  (-0.7441823E+00)
 number of electron      95.0000000 magnetization 
 augmentation part       95.0000000 magnetization 

 Free energy of the ion-electron system (eV)
  ---------------------------------------------------
  alpha Z        PSCENC =       122.22085603
  Ewald energy   TEWEN  =     14429.01520939
  -Hartree energ DENC   =    -19176.66856408
  -exchange      EXHF   =         0.00000000
  -V(xc)+E(xc)   XCENC  =      -419.37588706
  PAW double counting   =      4235.41334458    -3509.29226066
  entropy T*S    EENTRO =        -0.00785151
  eigenvalues    EBANDS =      -325.75091598
  atomic energy  EATOM  =      4496.35971583
  ---------------------------------------------------
  free energy    TOTEN  =      -148.08635346 eV

  energy without entropy =     -148.07850196  energy(sigma->0) =     -148.08242771


--------------------------------------------------------------------------------------------------------




----------------------------------------- Iteration    1(   5)  ---------------------------------------


     EDDAV:  cpu time    4.54: real time    4.55
       DOS:  cpu time    0.00: real time    0.00
    CHARGE:  cpu time    0.37: real time    0.37
    MIXING:  cpu time    0.00: real time    0.00
    --------------------------------------------
      LOOP:  cpu time    4.92: real time    4.93

 eigenvalue-minimisations  :  3098
 total energy-change (2. order) :-0.1186107E-01  (-0.1185599E-01)
 number of electron      95.0000001 magnetization 
 augmentation part        6.9202330 magnetization 

 Broyden mixing:
  rms(total) = 0.21933E+01    rms(broyden)= 0.21928E+01
  rms(prec ) = 0.22569E+01
  weight for this iteration     100.00

 Free energy of the ion-electron system (eV)
  ---------------------------------------------------
  alpha Z        PSCENC =       122.22085603
  Ewald energy   TEWEN  =     14429.01520939
  -Hartree energ DENC   =    -19176.66856408
  -exchange      EXHF   =         0.00000000
  -V(xc)+E(xc)   XCENC  =      -419.37588706
  PAW double counting   =      4235.41334458    -3509.29226066
  entropy T*S    EENTRO =        -0.00785355
  eigenvalues    EBANDS =      -325.76277501
  atomic energy  EATOM  =      4496.35971583
  ---------------------------------------------------
  free energy    TOTEN  =      -148.09821453 eV

  energy without entropy =     -148.09036098  energy(sigma->0) =     -148.09428776


--------------------------------------------------------------------------------------------------------




----------------------------------------- Iteration    1(   6)  ---------------------------------------


    POTLOK:  cpu time    0.11: real time    0.11
    SETDIJ:  cpu time    0.11: real time    0.11
     EDDAV:  cpu time    4.35: real time    4.36
       DOS:  cpu time    0.00: real time    0.00
    CHARGE:  cpu time    0.36: real time    0.36
    MIXING:  cpu time    0.00: real time    0.00
    --------------------------------------------
      LOOP:  cpu time    4.93: real time    4.94

 eigenvalue-minimisations  :  2910
 total energy-change (2. order) : 0.1472015E+02  (-0.8399437E+01)
 number of electron      95.0000001 magnetization 
 augmentation part        5.5902237 magnetization 

 Broyden mixing:
  rms(total) = 0.74520E+00    rms(broyden)= 0.74430E+00
  rms(prec ) = 0.75318E+00
  weight for this iteration     100.00

 eigenvalues of (default mixing * dielectric matrix)
  average eigenvalue GAMMA=   0.8389
  0.8389

 Free energy of the ion-electron system (eV)
  ---------------------------------------------------
  alpha Z        PSCENC =       122.22085603
  Ewald energy   TEWEN  =     14429.01520939
  -Hartree energ DENC   =    -19348.31648465
  -exchange      EXHF   =         0.00000000
  -V(xc)+E(xc)   XCENC  =      -407.20539156
  PAW double counting   =      5020.81341269    -4297.81940959
  entropy T*S    EENTRO =        -0.00632900
  eigenvalues    EBANDS =      -148.43964194
  atomic energy  EATOM  =      4496.35971583
  ---------------------------------------------------
  free energy    TOTEN  =      -133.37806281 eV

  energy without entropy =     -133.37173381  energy(sigma->0) =     -133.37489831


--------------------------------------------------------------------------------------------------------




----------------------------------------- Iteration    1(   7)  ---------------------------------------


    POTLOK:  cpu time    0.10: real time    0.10
    SETDIJ:  cpu time    0.10: real time    0.10
     EDDAV:  cpu time    4.32: real time    4.33
       DOS:  cpu time    0.00: real time    0.00
    CHARGE:  cpu time    0.36: real time    0.36
    MIXING:  cpu time    0.00: real time    0.00
    --------------------------------------------
      LOOP:  cpu time    4.89: real time    4.90

 eigenvalue-minimisations  :  2932
 total energy-change (2. order) : 0.1625997E+00  (-0.1473747E+00)
 number of electron      95.0000001 magnetization 
 augmentation part        5.6375474 magnetization 

 Broyden mixing:
  rms(total) = 0.45022E+00    rms(broyden)= 0.45021E+00
  rms(prec ) = 0.45547E+00
  weight for this iteration     100.00

 eigenvalues of (default mixing * dielectric matrix)
  average eigenvalue GAMMA=   1.6467
  0.9673  2.3260

 Free energy of the ion-electron system (eV)
  ---------------------------------------------------
  alpha Z        PSCENC =       122.22085603
  Ewald energy   TEWEN  =     14429.01520939
  -Hartree energ DENC   =    -19345.50758093
  -exchange      EXHF   =         0.00000000
  -V(xc)+E(xc)   XCENC  =      -406.88454317
  PAW double counting   =      5293.15024561    -4569.72162640
  entropy T*S    EENTRO =        -0.00494124
  eigenvalues    EBANDS =      -151.84279824
  atomic energy  EATOM  =      4496.35971583
  ---------------------------------------------------
  free energy    TOTEN  =      -133.21546312 eV

  energy without entropy =     -133.21052188  energy(sigma->0) =     -133.21299250


--------------------------------------------------------------------------------------------------------




----------------------------------------- Iteration    1(   8)  ---------------------------------------


    POTLOK:  cpu time    0.10: real time    0.10
    SETDIJ:  cpu time    0.10: real time    0.10
     EDDAV:  cpu time    4.39: real time    4.39
       DOS:  cpu time    0.00: real time    0.00
    CHARGE:  cpu time    0.37: real time    0.37
    MIXING:  cpu time    0.00: real time    0.00
    --------------------------------------------
      LOOP:  cpu time    4.96: real time    4.97

 eigenvalue-minimisations  :  3006
 total energy-change (2. order) : 0.9323906E-01  (-0.4468992E-01)
 number of electron      95.0000001 magnetization 
 augmentation part        5.6749108 magnetization 

 Broyden mixing:
  rms(total) = 0.74889E-01    rms(broyden)= 0.74858E-01
  rms(prec ) = 0.92837E-01
  weight for this iteration     100.00

 eigenvalues of (default mixing * dielectric matrix)
  average eigenvalue GAMMA=   1.3955
  2.4377  0.8745  0.8745

 Free energy of the ion-electron system (eV)
  ---------------------------------------------------
  alpha Z        PSCENC =       122.22085603
  Ewald energy   TEWEN  =     14429.01520939
  -Hartree energ DENC   =    -19350.97361660
  -exchange      EXHF   =         0.00000000
  -V(xc)+E(xc)   XCENC  =      -405.43729532
  PAW double counting   =      5766.65017673    -5042.92643692
  entropy T*S    EENTRO =        -0.00622961
  eigenvalues    EBANDS =      -148.02460359
  atomic energy  EATOM  =      4496.35971583
  ---------------------------------------------------
  free energy    TOTEN  =      -133.12222406 eV

  energy without entropy =     -133.11599445  energy(sigma->0) =     -133.11910925


--------------------------------------------------------------------------------------------------------




----------------------------------------- Iteration    1(   9)  ---------------------------------------


    POTLOK:  cpu time    0.11: real time    0.11
    SETDIJ:  cpu time    0.11: real time    0.11
     EDDAV:  cpu time    4.29: real time    4.30
       DOS:  cpu time    0.00: real time    0.00
    CHARGE:  cpu time    0.36: real time    0.36
    MIXING:  cpu time    0.00: real time    0.00
    --------------------------------------------
      LOOP:  cpu time    4.87: real time    4.88

 eigenvalue-minimisations  :  2908
 total energy-change (2. order) : 0.2092009E-01  (-0.8230421E-02)
 number of electron      95.0000001 magnetization 
 augmentation part        5.6599130 magnetization 

 Broyden mixing:
  rms(total) = 0.42343E-01    rms(broyden)= 0.42343E-01
  rms(prec ) = 0.43446E-01
  weight for this iteration     100.00

 eigenvalues of (default mixing * dielectric matrix)
  average eigenvalue GAMMA=   1.4688
  2.5035  1.6084  0.9368  0.8266

 Free energy of the ion-electron system (eV)
  ---------------------------------------------------
  alpha Z        PSCENC =       122.22085603
  Ewald energy   TEWEN  =     14429.01520939
  -Hartree energ DENC   =    -19354.13823976
  -exchange      EXHF   =         0.00000000
  -V(xc)+E(xc)   XCENC  =      -405.08033450
  PAW double counting   =      5797.66257235    -5073.96655102
  entropy T*S    EENTRO =        -0.00595352
  eigenvalues    EBANDS =      -145.16857876
  atomic energy  EATOM  =      4496.35971583
  ---------------------------------------------------
  free energy    TOTEN  =      -133.10130397 eV

  energy without entropy =     -133.09535045  energy(sigma->0) =     -133.09832721


--------------------------------------------------------------------------------------------------------




----------------------------------------- Iteration    1(  10)  ---------------------------------------


    POTLOK:  cpu time    0.10: real time    0.10
    SETDIJ:  cpu time    0.10: real time    0.10
     EDDAV:  cpu time    4.37: real time    4.38
       DOS:  cpu time    0.00: real time    0.00
    CHARGE:  cpu time    0.36: real time    0.36
    MIXING:  cpu time    0.01: real time    0.01
    --------------------------------------------
      LOOP:  cpu time    4.94: real time    4.95

 eigenvalue-minimisations  :  2980
 total energy-change (2. order) :-0.8207099E-03  (-0.4062301E-02)
 number of electron      95.0000001 magnetization 
 augmentation part        5.6403416 magnetization 

 Broyden mixing:
  rms(total) = 0.27836E-01    rms(broyden)= 0.27820E-01
  rms(prec ) = 0.28606E-01
  weight for this iteration     100.00

 eigenvalues of (default mixing * dielectric matrix)
  average eigenvalue GAMMA=   1.3161
  2.5164  1.8579  0.8780  0.8780  0.4504

 Free energy of the ion-electron system (eV)
  ---------------------------------------------------
  alpha Z        PSCENC =       122.22085603
  Ewald energy   TEWEN  =     14429.01520939
  -Hartree energ DENC   =    -19355.98253141
  -exchange      EXHF   =         0.00000000
  -V(xc)+E(xc)   XCENC  =      -404.86936181
  PAW double counting   =      5778.02957317    -5054.37304908
  entropy T*S    EENTRO =        -0.00579590
  eigenvalues    EBANDS =      -143.49674090
  atomic energy  EATOM  =      4496.35971583
  ---------------------------------------------------
  free energy    TOTEN  =      -133.10212468 eV

  energy without entropy =     -133.09632877  energy(sigma->0) =     -133.09922672


--------------------------------------------------------------------------------------------------------




----------------------------------------- Iteration    1(  11)  ---------------------------------------


    POTLOK:  cpu time    0.10: real time    0.10
    SETDIJ:  cpu time    0.10: real time    0.10
     EDDAV:  cpu time    4.34: real time    4.35
       DOS:  cpu time    0.00: real time    0.00
    CHARGE:  cpu time    0.36: real time    0.36
    MIXING:  cpu time    0.00: real time    0.00
    --------------------------------------------
      LOOP:  cpu time    4.91: real time    4.92

 eigenvalue-minimisations  :  2952
 total energy-change (2. order) : 0.4802861E-03  (-0.3467318E-03)
 number of electron      95.0000001 magnetization 
 augmentation part        5.6451833 magnetization 

 Broyden mixing:
  rms(total) = 0.17776E-01    rms(broyden)= 0.17776E-01
  rms(prec ) = 0.18470E-01
  weight for this iteration     100.00

 eigenvalues of (default mixing * dielectric matrix)
  average eigenvalue GAMMA=   1.4521
  2.7797  2.2967  0.9707  0.9707  1.0082  0.6868

 Free energy of the ion-electron system (eV)
  ---------------------------------------------------
  alpha Z        PSCENC =       122.22085603
  Ewald energy   TEWEN  =     14429.01520939
  -Hartree energ DENC   =    -19355.33897598
  -exchange      EXHF   =         0.00000000
  -V(xc)+E(xc)   XCENC  =      -404.88050373
  PAW double counting   =      5761.89083236    -5038.22954255
  entropy T*S    EENTRO =        -0.00581966
  eigenvalues    EBANDS =      -144.13341609
  atomic energy  EATOM  =      4496.35971583
  ---------------------------------------------------
  free energy    TOTEN  =      -133.10164439 eV

  energy without entropy =     -133.09582473  energy(sigma->0) =     -133.09873456


--------------------------------------------------------------------------------------------------------




----------------------------------------- Iteration    1(  12)  ---------------------------------------


    POTLOK:  cpu time    0.10: real time    0.10
    SETDIJ:  cpu time    0.10: real time    0.10
     EDDAV:  cpu time    4.61: real time    4.62
       DOS:  cpu time    0.00: real time    0.00
    CHARGE:  cpu time    0.36: real time    0.36
    MIXING:  cpu time    0.00: real time    0.00
    --------------------------------------------
      LOOP:  cpu time    5.18: real time    5.19

 eigenvalue-minimisations  :  3214
 total energy-change (2. order) : 0.1093071E-03  (-0.4487475E-03)
 number of electron      95.0000001 magnetization 
 augmentation part        5.6469425 magnetization 

 Broyden mixing:
  rms(total) = 0.72002E-02    rms(broyden)= 0.71923E-02
  rms(prec ) = 0.82274E-02
  weight for this iteration     100.00

 eigenvalues of (default mixing * dielectric matrix)
  average eigenvalue GAMMA=   1.3833
  2.9658  2.4687  0.9231  0.9231  0.8826  0.8826  0.6368

 Free energy of the ion-electron system (eV)
  ---------------------------------------------------
  alpha Z        PSCENC =       122.22085603
  Ewald energy   TEWEN  =     14429.01520939
  -Hartree energ DENC   =    -19354.91006399
  -exchange      EXHF   =         0.00000000
  -V(xc)+E(xc)   XCENC  =      -404.85333474
  PAW double counting   =      5737.59399391    -5013.94328786
  entropy T*S    EENTRO =        -0.00586726
  eigenvalues    EBANDS =      -144.57875639
  atomic energy  EATOM  =      4496.35971583
  ---------------------------------------------------
  free energy    TOTEN  =      -133.10153508 eV

  energy without entropy =     -133.09566782  energy(sigma->0) =     -133.09860145


--------------------------------------------------------------------------------------------------------




----------------------------------------- Iteration    1(  13)  ---------------------------------------


    POTLOK:  cpu time    0.11: real time    0.11
    SETDIJ:  cpu time    0.11: real time    0.11
     EDDAV:  cpu time    4.51: real time    4.51
       DOS:  cpu time    0.00: real time    0.00
    CHARGE:  cpu time    0.36: real time    0.36
    MIXING:  cpu time    0.00: real time    0.00
    --------------------------------------------
      LOOP:  cpu time    5.09: real time    5.09

 eigenvalue-minimisations  :  3018
 total energy-change (2. order) : 0.7442881E-04  (-0.8023797E-04)
 number of electron      95.0000001 magnetization 
 augmentation part        5.6480651 magnetization 

 Broyden mixing:
  rms(total) = 0.58420E-02    rms(broyden)= 0.58414E-02
  rms(prec ) = 0.65822E-02
  weight for this iteration     100.00

 eigenvalues of (default mixing * dielectric matrix)
  average eigenvalue GAMMA=   1.3580
  2.9674  2.5655  0.9337  0.9337  1.0354  1.0354  0.6965  0.6965

 Free energy of the ion-electron system (eV)
  ---------------------------------------------------
  alpha Z        PSCENC =       122.22085603
  Ewald energy   TEWEN  =     14429.01520939
  -Hartree energ DENC   =    -19354.61100710
  -exchange      EXHF   =         0.00000000
  -V(xc)+E(xc)   XCENC  =      -404.86117676
  PAW double counting   =      5731.27394767    -5007.62247853
  entropy T*S    EENTRO =        -0.00588180
  eigenvalues    EBANDS =      -144.87064539
  atomic energy  EATOM  =      4496.35971583
  ---------------------------------------------------
  free energy    TOTEN  =      -133.10146065 eV

  energy without entropy =     -133.09557885  energy(sigma->0) =     -133.09851975


--------------------------------------------------------------------------------------------------------




----------------------------------------- Iteration    1(  14)  ---------------------------------------


    POTLOK:  cpu time    0.10: real time    0.10
    SETDIJ:  cpu time    0.10: real time    0.10
     EDDAV:  cpu time    4.51: real time    4.52
       DOS:  cpu time    0.00: real time    0.00
    CHARGE:  cpu time    0.36: real time    0.36
    MIXING:  cpu time    0.00: real time    0.00
    --------------------------------------------
      LOOP:  cpu time    5.08: real time    5.09

 eigenvalue-minimisations  :  3082
 total energy-change (2. order) : 0.8148968E-04  (-0.3452325E-04)
 number of electron      95.0000001 magnetization 
 augmentation part        5.6489670 magnetization 

 Broyden mixing:
  rms(total) = 0.27074E-02    rms(broyden)= 0.27062E-02
  rms(prec ) = 0.38171E-02
  weight for this iteration     100.00

 eigenvalues of (default mixing * dielectric matrix)
  average eigenvalue GAMMA=   1.3370
  2.9333  2.5127  1.4276  0.9080  0.9080  0.9220  0.8807  0.8807  0.6601

 Free energy of the ion-electron system (eV)
  ---------------------------------------------------
  alpha Z        PSCENC =       122.22085603
  Ewald energy   TEWEN  =     14429.01520939
  -Hartree energ DENC   =    -19354.36860796
  -exchange      EXHF   =         0.00000000
  -V(xc)+E(xc)   XCENC  =      -404.87045287
  PAW double counting   =      5729.34989657    -5005.69606420
  entropy T*S    EENTRO =        -0.00589187
  eigenvalues    EBANDS =      -145.10604008
  atomic energy  EATOM  =      4496.35971583
  ---------------------------------------------------
  free energy    TOTEN  =      -133.10137916 eV

  energy without entropy =     -133.09548729  energy(sigma->0) =     -133.09843323


--------------------------------------------------------------------------------------------------------




----------------------------------------- Iteration    1(  15)  ---------------------------------------


    POTLOK:  cpu time    0.10: real time    0.10
    SETDIJ:  cpu time    0.11: real time    0.11
     EDDAV:  cpu time    4.39: real time    4.40
       DOS:  cpu time    0.00: real time    0.00
    CHARGE:  cpu time    0.36: real time    0.36
    MIXING:  cpu time    0.01: real time    0.01
    --------------------------------------------
      LOOP:  cpu time    4.97: real time    4.97

 eigenvalue-minimisations  :  2974
 total energy-change (2. order) : 0.4981977E-04  (-0.9407989E-05)
 number of electron      95.0000001 magnetization 
 augmentation part        5.6485073 magnetization 

 Broyden mixing:
  rms(total) = 0.12015E-02    rms(broyden)= 0.12009E-02
  rms(prec ) = 0.25435E-02
  weight for this iteration     100.00

 eigenvalues of (default mixing * dielectric matrix)
  average eigenvalue GAMMA=   1.3368
  2.9331  2.4304  2.0526  0.9014  0.9014  1.0682  0.9928  0.8043  0.6421  0.6421

 Free energy of the ion-electron system (eV)
  ---------------------------------------------------
  alpha Z        PSCENC =       122.22085603
  Ewald energy   TEWEN  =     14429.01520939
  -Hartree energ DENC   =    -19354.26536964
  -exchange      EXHF   =         0.00000000
  -V(xc)+E(xc)   XCENC  =      -404.86864694
  PAW double counting   =      5729.80167436    -5006.14745389
  entropy T*S    EENTRO =        -0.00590393
  eigenvalues    EBANDS =      -145.21141055
  atomic energy  EATOM  =      4496.35971583
  ---------------------------------------------------
  free energy    TOTEN  =      -133.10132934 eV

  energy without entropy =     -133.09542541  energy(sigma->0) =     -133.09837738


--------------------------------------------------------------------------------------------------------




----------------------------------------- Iteration    1(  16)  ---------------------------------------


    POTLOK:  cpu time    0.11: real time    0.11
    SETDIJ:  cpu time    0.11: real time    0.11
     EDDAV:  cpu time    3.78: real time    3.79
       DOS:  cpu time    0.00: real time    0.00
    CHARGE:  cpu time    0.36: real time    0.36
    MIXING:  cpu time    0.01: real time    0.01
    --------------------------------------------
      LOOP:  cpu time    4.36: real time    4.37

 eigenvalue-minimisations  :  2412
 total energy-change (2. order) : 0.4444536E-04  (-0.3017448E-05)
 number of electron      95.0000001 magnetization 
 augmentation part        5.6482531 magnetization 

 Broyden mixing:
  rms(total) = 0.70564E-03    rms(broyden)= 0.70537E-03
  rms(prec ) = 0.20468E-02
  weight for this iteration     100.00

 eigenvalues of (default mixing * dielectric matrix)
  average eigenvalue GAMMA=   1.4025
  2.9270  2.9270  2.4525  1.2983  0.9429  0.9429  0.9710  0.9710  0.7736  0.6836
  0.5377

 Free energy of the ion-electron system (eV)
  ---------------------------------------------------
  alpha Z        PSCENC =       122.22085603
  Ewald energy   TEWEN  =     14429.01520939
  -Hartree energ DENC   =    -19354.15253524
  -exchange      EXHF   =         0.00000000
  -V(xc)+E(xc)   XCENC  =      -404.86484466
  PAW double counting   =      5730.68806135    -5007.03375004
  entropy T*S    EENTRO =        -0.00591348
  eigenvalues    EBANDS =      -145.32808408
  atomic energy  EATOM  =      4496.35971583
  ---------------------------------------------------
  free energy    TOTEN  =      -133.10128490 eV

  energy without entropy =     -133.09537142  energy(sigma->0) =     -133.09832816


--------------------------------------------------------------------------------------------------------




----------------------------------------- Iteration    1(  17)  ---------------------------------------


    POTLOK:  cpu time    0.10: real time    0.10
    SETDIJ:  cpu time    0.10: real time    0.10
     EDDAV:  cpu time    4.04: real time    4.05
       DOS:  cpu time    0.00: real time    0.00
    CHARGE:  cpu time    0.37: real time    0.37
    MIXING:  cpu time    0.01: real time    0.01
    --------------------------------------------
      LOOP:  cpu time    4.62: real time    4.63

 eigenvalue-minimisations  :  2612
 total energy-change (2. order) : 0.6342371E-04  (-0.3997126E-05)
 number of electron      95.0000001 magnetization 
 augmentation part        5.6483224 magnetization 

 Broyden mixing:
  rms(total) = 0.62005E-03    rms(broyden)= 0.61985E-03
  rms(prec ) = 0.15867E-02
  weight for this iteration     100.00

 eigenvalues of (default mixing * dielectric matrix)
  average eigenvalue GAMMA=   1.4892
  3.8226  2.9614  2.4459  1.8157  0.9360  0.9360  1.0354  1.0354  0.8300  0.8300
  0.6912  0.5313

 Free energy of the ion-electron system (eV)
  ---------------------------------------------------
  alpha Z        PSCENC =       122.22085603
  Ewald energy   TEWEN  =     14429.01520939
  -Hartree energ DENC   =    -19353.81597028
  -exchange      EXHF   =         0.00000000
  -V(xc)+E(xc)   XCENC  =      -404.86556742
  PAW double counting   =      5730.37151493    -5006.71673051
  entropy T*S    EENTRO =        -0.00592515
  eigenvalues    EBANDS =      -145.66432429
  atomic energy  EATOM  =      4496.35971583
  ---------------------------------------------------
  free energy    TOTEN  =      -133.10122147 eV

  energy without entropy =     -133.09529633  energy(sigma->0) =     -133.09825890


--------------------------------------------------------------------------------------------------------




----------------------------------------- Iteration    1(  18)  ---------------------------------------


    POTLOK:  cpu time    0.10: real time    0.10
    SETDIJ:  cpu time    0.10: real time    0.10
     EDDAV:  cpu time    4.37: real time    4.38
       DOS:  cpu time    0.00: real time    0.00
    CHARGE:  cpu time    0.36: real time    0.36
    MIXING:  cpu time    0.01: real time    0.01
    --------------------------------------------
      LOOP:  cpu time    4.94: real time    4.95

 eigenvalue-minimisations  :  3004
 total energy-change (2. order) : 0.4573452E-04  (-0.6383889E-05)
 number of electron      95.0000001 magnetization 
 augmentation part        5.6484128 magnetization 

 Broyden mixing:
  rms(total) = 0.75898E-03    rms(broyden)= 0.75872E-03
  rms(prec ) = 0.12324E-02
  weight for this iteration     100.00

 eigenvalues of (default mixing * dielectric matrix)
  average eigenvalue GAMMA=   1.4790
  4.3884  2.9549  2.4374  1.9133  0.9335  0.9335  1.0574  1.0574  0.8350  0.8350
  0.7069  0.6451  0.5295

 Free energy of the ion-electron system (eV)
  ---------------------------------------------------
  alpha Z        PSCENC =       122.22085603
  Ewald energy   TEWEN  =     14429.01520939
  -Hartree energ DENC   =    -19353.43994629
  -exchange      EXHF   =         0.00000000
  -V(xc)+E(xc)   XCENC  =      -404.86561581
  PAW double counting   =      5730.50741053    -5006.85247303
  entropy T*S    EENTRO =        -0.00594044
  eigenvalues    EBANDS =      -146.04039194
  atomic energy  EATOM  =      4496.35971583
  ---------------------------------------------------
  free energy    TOTEN  =      -133.10117574 eV

  energy without entropy =     -133.09523530  energy(sigma->0) =     -133.09820552


--------------------------------------------------------------------------------------------------------




----------------------------------------- Iteration    1(  19)  ---------------------------------------


    POTLOK:  cpu time    0.10: real time    0.10
    SETDIJ:  cpu time    0.10: real time    0.10
     EDDAV:  cpu time    4.06: real time    4.07
       DOS:  cpu time    0.00: real time    0.00
    CHARGE:  cpu time    0.35: real time    0.35
    MIXING:  cpu time    0.01: real time    0.01
    --------------------------------------------
      LOOP:  cpu time    4.63: real time    4.63

 eigenvalue-minimisations  :  2842
 total energy-change (2. order) : 0.2406325E-04  (-0.4641196E-05)
 number of electron      95.0000001 magnetization 
 augmentation part        5.6484595 magnetization 

 Broyden mixing:
  rms(total) = 0.57396E-03    rms(broyden)= 0.57379E-03
  rms(prec ) = 0.83462E-03
  weight for this iteration     100.00

 eigenvalues of (default mixing * dielectric matrix)
  average eigenvalue GAMMA=   1.6284
  5.1157  3.0068  2.5194  2.5194  1.4087  1.4087  0.9372  0.9372  0.9787  0.9787
  0.9842  0.7849  0.6879  0.5304

 Free energy of the ion-electron system (eV)
  ---------------------------------------------------
  alpha Z        PSCENC =       122.22085603
  Ewald energy   TEWEN  =     14429.01520939
  -Hartree energ DENC   =    -19353.18557108
  -exchange      EXHF   =         0.00000000
  -V(xc)+E(xc)   XCENC  =      -404.86450401
  PAW double counting   =      5730.58843391    -5006.93382532
  entropy T*S    EENTRO =        -0.00594996
  eigenvalues    EBANDS =      -146.29551646
  atomic energy  EATOM  =      4496.35971583
  ---------------------------------------------------
  free energy    TOTEN  =      -133.10115168 eV

  energy without entropy =     -133.09520172  energy(sigma->0) =     -133.09817670


--------------------------------------------------------------------------------------------------------




----------------------------------------- Iteration    1(  20)  ---------------------------------------


    POTLOK:  cpu time    0.10: real time    0.10
    SETDIJ:  cpu time    0.10: real time    0.10
     EDDAV:  cpu time    3.94: real time    3.95
       DOS:  cpu time    0.00: real time    0.00
    CHARGE:  cpu time    0.35: real time    0.35
    MIXING:  cpu time    0.01: real time    0.01
    --------------------------------------------
      LOOP:  cpu time    4.51: real time    4.51

 eigenvalue-minimisations  :  2782
 total energy-change (2. order) : 0.1203748E-04  (-0.5173657E-05)
 number of electron      95.0000001 magnetization 
 augmentation part        5.6481372 magnetization 

 Broyden mixing:
  rms(total) = 0.47765E-03    rms(broyden)= 0.47719E-03
  rms(prec ) = 0.59163E-03
  weight for this iteration     100.00

 eigenvalues of (default mixing * dielectric matrix)
  average eigenvalue GAMMA=   1.6920
  4.3513  4.3513  2.6971  2.4011  1.9620  1.9620  0.9376  0.9376  1.0249  1.0249
  0.9193  0.7965  0.7965  0.6887  0.5297

 Free energy of the ion-electron system (eV)
  ---------------------------------------------------
  alpha Z        PSCENC =       122.22085603
  Ewald energy   TEWEN  =     14429.01520939
  -Hartree energ DENC   =    -19353.03226341
  -exchange      EXHF   =         0.00000000
  -V(xc)+E(xc)   XCENC  =      -404.86151317
  PAW double counting   =      5730.81616358    -5007.16229933
  entropy T*S    EENTRO =        -0.00595417
  eigenvalues    EBANDS =      -146.45105440
  atomic energy  EATOM  =      4496.35971583
  ---------------------------------------------------
  free energy    TOTEN  =      -133.10113964 eV

  energy without entropy =     -133.09518547  energy(sigma->0) =     -133.09816256


--------------------------------------------------------------------------------------------------------




----------------------------------------- Iteration    1(  21)  ---------------------------------------


    POTLOK:  cpu time    0.10: real time    0.10
    SETDIJ:  cpu time    0.10: real time    0.10
     EDDAV:  cpu time    3.55: real time    3.56
       DOS:  cpu time    0.00: real time    0.00
    --------------------------------------------
      LOOP:  cpu time    3.76: real time    3.76

 eigenvalue-minimisations  :  2396
 total energy-change (2. order) : 0.5335731E-05  (-0.2886731E-05)
 number of electron      95.0000001 magnetization 
 augmentation part        5.6481372 magnetization 

 Free energy of the ion-electron system (eV)
  ---------------------------------------------------
  alpha Z        PSCENC =       122.22085603
  Ewald energy   TEWEN  =     14429.01520939
  -Hartree energ DENC   =    -19352.93474014
  -exchange      EXHF   =         0.00000000
  -V(xc)+E(xc)   XCENC  =      -404.86236809
  PAW double counting   =      5730.91544962    -5007.26093212
  entropy T*S    EENTRO =        -0.00595370
  eigenvalues    EBANDS =      -146.54837112
  atomic energy  EATOM  =      4496.35971583
  ---------------------------------------------------
  free energy    TOTEN  =      -133.10113430 eV

  energy without entropy =     -133.09518060  energy(sigma->0) =     -133.09815745


--------------------------------------------------------------------------------------------------------




 average (electrostatic) potential at core
  the test charge radii are     0.7215  1.0714  1.0406
  (the norm of the test charge is              1.0000)
       1 -70.1718       2 -70.1529       3 -70.1487       4 -70.1566       5 -70.1886
       6 -70.2981       7 -70.2958       8 -70.1445       9 -70.1717      10 -35.9512
      11 -35.7715      12 -35.7904      13 -35.9515      14 -35.7815      15 -35.7702
      16 -35.8327      17 -35.8201      18 -35.7628      19 -35.8038      20 -74.3719
      21 -74.3245      22 -74.3445      23 -74.2769      24 -74.3238      25 -74.2769
      26 -74.3435
 
 
 
 E-fermi :   6.4129     XC(G=0): -10.2411     alpha+bet :-12.3992


 k-point     1 :       0.0000    0.0000    0.0000
  band No.  band energies     occupation 
      1     -14.4366      2.00000
      2     -14.3840      2.00000
      3     -14.2801      2.00000
      4     -14.1381      2.00000
      5     -13.9736      2.00000
      6     -13.7964      2.00000
      7     -13.6275      2.00000
      8     -13.4841      2.00000
      9     -13.3755      2.00000
     10      -3.9201      2.00000
     11      -3.5351      2.00000
     12      -2.9887      2.00000
     13      -2.2256      2.00000
     14      -1.8828      2.00000
     15      -1.7516      2.00000
     16      -1.4005      2.00000
     17      -1.3016      2.00000
     18      -0.8580      2.00000
     19      -0.5127      2.00000
     20       0.0464      2.00000
     21       0.2163      2.00000
     22       0.9783      2.00000
     23       1.2070      2.00000
     24       1.7737      2.00000
     25       2.1125      2.00000
     26       2.1125      2.00000
     27       2.1359      2.00000
     28       2.1359      2.00000
     29       2.1453      2.00000
     30       2.1906      2.00000
     31       2.1906      2.00000
     32       2.2646      2.00000
     33       2.2646      2.00000
     34       2.3479      2.00000
     35       2.3479      2.00000
     36       2.4375      2.00000
     37       2.4375      2.00000
     38       2.5205      2.00000
     39       2.5205      2.00000
     40       2.5477      2.00000
     41       2.5924      2.00000
     42       2.5924      2.00000
     43       2.6508      2.00000
     44       2.6508      2.00000
     45       3.7254      2.00000
     46       4.8157      2.00000
     47       6.0416      2.00000
     48       7.1305      0.00000
     49       7.1951      0.00000
     50       7.9390      0.00000
     51       8.1671      0.00000
     52       9.0536      0.00000
     53       9.0787      0.00000
     54       9.8799      0.00000
     55       9.9058      0.00000
     56      10.2798      0.00000
     57      10.3602      0.00000
     58      10.8096      0.00000
     59      12.1610      0.00000
     60      13.7552      0.00000
     61      14.2999      0.00000
     62      14.3636      0.00000

 k-point     2 :       0.0769    0.0000   -0.0000
  band No.  band energies     occupation 
      1     -14.3838      2.00000
      2     -14.3328      2.00000
      3     -14.2313      2.00000
      4     -14.0929      2.00000
      5     -13.9325      2.00000
      6     -13.7600      2.00000
      7     -13.5958      2.00000
      8     -13.4563      2.00000
      9     -13.3508      2.00000
     10      -3.7899      2.00000
     11      -3.4052      2.00000
     12      -2.8594      2.00000
     13      -2.0989      2.00000
     14      -1.8009      2.00000
     15      -1.6710      2.00000
     16      -1.3335      2.00000
     17      -1.1964      2.00000
     18      -0.7968      2.00000
     19      -0.4672      2.00000
     20       0.1310      2.00000
     21       0.2131      2.00000
     22       0.9275      2.00000
     23       1.2362      2.00000
     24       1.7088      2.00000
     25       1.8816      2.00000
     26       1.9116      2.00000
     27       1.9470      2.00000
     28       1.9969      2.00000
     29       2.0685      2.00000
     30       2.0699      2.00000
     31       2.0922      2.00000
     32       2.1474      2.00000
     33       2.1687      2.00000
     34       2.2220      2.00000
     35       2.2446      2.00000
     36       2.3060      2.00000
     37       2.3119      2.00000
     38       2.3931      2.00000
     39       2.3964      2.00000
     40       2.4378      2.00000
     41       2.4802      2.00000
     42       2.5527      2.00000
     43       2.6115      2.00000
     44       2.6378      2.00000
     45       3.8569      2.00000
     46       4.9587      2.00000
     47       6.2103      2.00000
     48       7.4273      0.00000
     49       7.4516      0.00000
     50       8.1494      0.00000
     51       8.3986      0.00000
     52       9.2508      0.00000
     53       9.2826      0.00000
     54      10.1028      0.00000
     55      10.1312      0.00000
     56      10.5454      0.00000
     57      10.6367      0.00000
     58      10.9856      0.00000
     59      12.2273      0.00000
     60      13.6782      0.00000
     61      13.8349      0.00000
     62      14.2278      0.00000

 k-point     3 :       0.1538    0.0000    0.0000
  band No.  band energies     occupation 
      1     -14.2325      2.00000
      2     -14.1861      2.00000
      3     -14.0922      2.00000
      4     -13.9642      2.00000
      5     -13.8163      2.00000
      6     -13.6576      2.00000
      7     -13.5071      2.00000
      8     -13.3794      2.00000
      9     -13.2822      2.00000
     10      -3.3999      2.00000
     11      -3.0161      2.00000
     12      -2.4721      2.00000
     13      -1.7249      2.00000
     14      -1.5612      2.00000
     15      -1.4446      2.00000
     16      -1.1494      2.00000
     17      -0.9277      2.00000
     18      -0.5951      2.00000
     19      -0.3935      2.00000
     20       0.1404      2.00000
     21       0.3406      2.00000
     22       0.7444      2.00000
     23       0.9703      2.00000
     24       1.2656      2.00000
     25       1.3189      2.00000
     26       1.3597      2.00000
     27       1.4407      2.00000
     28       1.5063      2.00000
     29       1.6179      2.00000
     30       1.8020      2.00000
     31       1.8897      2.00000
     32       1.9501      2.00000
     33       1.9743      2.00000
     34       2.0165      2.00000
     35       2.0306      2.00000
     36       2.1067      2.00000
     37       2.1605      2.00000
     38       2.1926      2.00000
     39       2.2800      2.00000
     40       2.2849      2.00000
     41       2.3705      2.00000
     42       2.4444      2.00000
     43       2.5043      2.00000
     44       2.9293      2.00000
     45       4.2038      2.00000
     46       5.3276      2.00000
     47       6.6202      0.00000
     48       7.9575      0.00000
     49       8.2092      0.00000
     50       8.6997      0.00000
     51       8.9753      0.00000
     52       9.7074      0.00000
     53       9.7923      0.00000
     54      10.6072      0.00000
     55      10.6646      0.00000
     56      11.1440      0.00000
     57      11.2733      0.00000
     58      11.3436      0.00000
     59      11.4404      0.00000
[...]
     45       6.0414      2.00000
     46       6.0687      2.00000
     47       6.2903      1.99999
     48       6.4524      0.90642
     49       6.7813      0.00000
     50       7.1104      0.00000
     51       7.2777      0.00000
     52       7.7032      0.00000
     53       7.8425      0.00000
     54       7.9566      0.00000
     55       8.5040      0.00000
     56       8.7377      0.00000
     57       9.2194      0.00000
     58       9.4872      0.00000
     59       9.9476      0.00000
     60      10.4240      0.00000
     61      10.6550      0.00000
     62      11.0259      0.00000

 k-point    19 :       0.3077    0.2308    0.0000
  band No.  band energies     occupation 
      1     -13.2908      2.00000
      2     -13.2842      2.00000
      3     -13.2588      2.00000
      4     -13.2250      2.00000
      5     -13.1871      2.00000
      6     -13.1444      2.00000
      7     -13.1057      2.00000
      8     -13.0709      2.00000
      9     -13.0462      2.00000
     10      -1.2315      2.00000
     11      -1.1430      2.00000
     12      -1.0132      2.00000
     13      -0.9909      2.00000
     14      -0.9430      2.00000
     15      -0.8820      2.00000
     16      -0.8370      2.00000
     17      -0.6877      2.00000
     18      -0.5310      2.00000
     19      -0.1165      2.00000
     20       0.0326      2.00000
     21       0.1817      2.00000
     22       0.3578      2.00000
     23       0.4754      2.00000
     24       0.5409      2.00000
     25       0.5800      2.00000
     26       0.6678      2.00000
     27       0.8057      2.00000
     28       0.8762      2.00000
     29       0.9015      2.00000
     30       0.9606      2.00000
     31       1.1021      2.00000
     32       1.2606      2.00000
     33       1.2773      2.00000
     34       1.3742      2.00000
     35       1.4461      2.00000
     36       1.5486      2.00000
     37       1.6393      2.00000
     38       1.7528      2.00000
     39       1.8087      2.00000
     40       2.5605      2.00000
     41       3.4561      2.00000
     42       4.1268      2.00000
     43       4.4406      2.00000
     44       4.5271      2.00000
     45       5.0234      2.00000
     46       5.5340      2.00000
     47       5.7150      2.00000
     48       5.8625      2.00000
     49       6.0670      2.00000
     50       6.4886      0.25358
     51       6.7369      0.00000
     52       6.9034      0.00000
     53       7.4044      0.00000
     54       7.7807      0.00000
     55       7.9792      0.00000
     56       8.3488      0.00000
     57       8.7396      0.00000
     58       9.0379      0.00000
     59       9.3662      0.00000
     60       9.6865      0.00000
     61      10.2412      0.00000
     62      10.4295      0.00000

 k-point    20 :       0.3846    0.2308   -0.0000
  band No.  band energies     occupation 
      1     -13.2158      2.00000
      2     -13.2097      2.00000
      3     -13.1790      2.00000
      4     -13.1649      2.00000
      5     -13.1463      2.00000
      6     -13.1220      2.00000
      7     -13.0999      2.00000
      8     -13.0780      2.00000
      9     -13.0622      2.00000
     10      -1.3122      2.00000
     11      -1.2151      2.00000
     12      -1.0613      2.00000
     13      -0.8865      2.00000
     14      -0.8719      2.00000
     15      -0.8488      2.00000
     16      -0.8068      2.00000
     17      -0.7605      2.00000
     18      -0.7509      2.00000
     19       0.0669      2.00000
     20       0.0887      2.00000
     21       0.1448      2.00000
     22       0.1976      2.00000
     23       0.2011      2.00000
     24       0.2517      2.00000
     25       0.3797      2.00000
     26       0.5539      2.00000
     27       0.7346      2.00000
     28       0.9953      2.00000
     29       1.0203      2.00000
     30       1.1887      2.00000
     31       1.2419      2.00000
     32       1.3007      2.00000
     33       1.4073      2.00000
     34       1.5375      2.00000
     35       1.6217      2.00000
     36       1.6262      2.00000
     37       2.3858      2.00000
     38       2.3883      2.00000
     39       2.7659      2.00000
     40       2.7719      2.00000
     41       3.2608      2.00000
     42       3.3369      2.00000
     43       3.9720      2.00000
     44       4.0791      2.00000
     45       4.8042      2.00000
     46       5.0737      2.00000
     47       5.5982      2.00000
     48       5.8044      2.00000
     49       5.9659      2.00000
     50       6.1282      2.00000
     51       6.5469      0.00526
     52       7.0442      0.00000
     53       7.0544      0.00000
     54       7.5313      0.00000
     55       8.1021      0.00000
     56       8.1959      0.00000
     57       8.3194      0.00000
     58       8.9338      0.00000
     59       9.3335      0.00000
     60       9.4166      0.00000
     61       9.9533      0.00000
     62      10.4609      0.00000

 k-point    21 :       0.3077    0.3077    0.0000
  band No.  band energies     occupation 
      1     -13.1909      2.00000
      2     -13.1851      2.00000
      3     -13.1468      2.00000
      4     -13.1378      2.00000
      5     -13.1247      2.00000
      6     -13.1070      2.00000
      7     -13.0919      2.00000
      8     -13.0764      2.00000
      9     -13.0656      2.00000
     10      -0.9599      2.00000
     11      -0.9579      2.00000
     12      -0.8768      2.00000
     13      -0.8699      2.00000
     14      -0.7701      2.00000
     15      -0.7248      2.00000
     16      -0.5642      2.00000
     17      -0.5625      2.00000
     18      -0.4568      2.00000
     19      -0.3588      2.00000
     20      -0.2959      2.00000
     21      -0.1574      2.00000
     22      -0.0967      2.00000
     23      -0.0113      2.00000
     24       0.1169      2.00000
     25       0.1345      2.00000
     26       0.2904      2.00000
     27       0.2961      2.00000
     28       1.0025      2.00000
     29       1.0199      2.00000
     30       1.2154      2.00000
     31       1.3352      2.00000
     32       1.3909      2.00000
     33       1.4441      2.00000
     34       1.4471      2.00000
     35       1.4756      2.00000
     36       1.5861      2.00000
     37       2.2628      2.00000
     38       2.6479      2.00000
     39       3.1729      2.00000
     40       3.8545      2.00000
     41       3.8779      2.00000
     42       3.9294      2.00000
     43       4.2565      2.00000
     44       4.2566      2.00000
     45       4.6957      2.00000
     46       4.7752      2.00000
     47       4.8014      2.00000
     48       5.3912      2.00000
     49       5.5919      2.00000
     50       5.8351      2.00000
     51       6.4260      1.47032
     52       6.4957      0.17977
     53       7.2264      0.00000
     54       7.4008      0.00000
     55       7.7858      0.00000
     56       8.0329      0.00000
     57       8.4988      0.00000
     58       8.7323      0.00000
     59       8.9428      0.00000
     60       9.3969      0.00000
     61       9.6857      0.00000
     62      10.0658      0.00000


--------------------------------------------------------------------------------------------------------


 soft charge-density along one line, spin component           1
         0         1         2         3         4         5         6         7         8         9
 total charge-density along one line
 
 pseudopotential strength for first ion, spin component:           1
 12.193   0.000 -14.837   0.000   0.000   0.000  -0.000   0.000  -0.000   0.000  -0.000   0.000   0.000   0.000   0.000   0.000
-14.837   0.000  18.073   0.000  -0.000   0.000   0.000   0.000   0.000   0.000   0.000   0.000  -0.000   0.000  -0.000   0.000
  0.000   0.000  -0.000   0.000  -8.330   0.000  -0.000   0.000   0.000   0.000   9.976   0.000   0.000   0.000  -0.000   0.000
 -0.000   0.000   0.000   0.000  -0.000   0.000  -8.335   0.000   0.000   0.000   0.000   0.000   9.983   0.000  -0.000   0.000
 -0.000   0.000   0.000   0.000   0.000   0.000   0.000   0.000  -8.330   0.000  -0.000   0.000  -0.000   0.000   9.976   0.000
 -0.000   0.000   0.000   0.000   9.976   0.000   0.000   0.000  -0.000   0.000 -11.787   0.000  -0.000   0.000   0.000   0.000
  0.000   0.000  -0.000   0.000   0.000   0.000   9.983   0.000  -0.000   0.000  -0.000   0.000 -11.796   0.000   0.000   0.000
  0.000   0.000  -0.000   0.000  -0.000   0.000  -0.000   0.000   9.976   0.000   0.000   0.000   0.000   0.000 -11.787   0.000
 total augmentation occupancy for first ion, spin component:           1
  2.596   0.360   0.000   0.000  -0.000   0.000  -0.000   0.000
  0.360   0.068   0.000   0.000   0.000   0.000  -0.000   0.000
  0.000   0.000   2.156  -0.000   0.000   0.257  -0.000   0.000
  0.000   0.000  -0.000   2.152   0.000  -0.000   0.262   0.000
  0.000  -0.000   0.000  -0.000   2.156   0.000   0.000   0.257
  0.000   0.000   0.257  -0.000   0.000   0.033  -0.000   0.000
 -0.000  -0.000  -0.000   0.262  -0.000  -0.000   0.034  -0.000
  0.000   0.000   0.000   0.000   0.257   0.000   0.000   0.033


------------------------ aborting loop because EDIFF is reached ----------------------------------------


    CHARGE:  cpu time    0.35: real time    0.35
    FORLOC:  cpu time    0.03: real time    0.03
    FORNL :  cpu time    3.02: real time    3.02
    STRESS:  cpu time    4.07: real time    4.08
    FORCOR:  cpu time    0.13: real time    0.13
    FORHAR:  cpu time    0.06: real time    0.06
    MIXING:  cpu time    0.00: real time    0.00
    OFIELD:  cpu time    0.00: real time    0.00

  FORCE on cell =-STRESS in cart. coord.  units (eV):
  Direction    XX          YY          ZZ          XY          YZ          ZX
  --------------------------------------------------------------------------------------
  Alpha Z   122.22086   122.22086   122.22086
  Ewald   17343.32049 17343.32079-19806.76687    -0.00002    -0.00003    -0.00014
  Hartree 18945.29464 18945.29457-18089.47210    -0.00000    -0.00000     0.00004
  E(xc)    -388.44066  -388.44067  -388.64643    -0.00000     0.00000    -0.00000
  Local  -37425.34464-37425.34417 36757.40490    -0.00016     0.00003     0.00004
  n-local   -26.23396   -38.13882   -28.57974     2.68370    -1.50413     4.83772
  augment    53.58473    53.58451    52.89180     0.00016     0.00000     0.00000
  Kinetic  1402.19809  1353.74560  1368.18268     1.31832    -0.38427     0.52088
  Fock        0.00000     0.00000     0.00000     0.00000     0.00000     0.00000
  -------------------------------------------------------------------------------------
  Total      -3.57890    -3.57890   -12.76490     0.00000    -0.00000    -0.00000
  in kB     -17.33232   -17.33231   -61.81938     0.00000    -0.00000    -0.00000
  external pressure =      -32.16 kB  Pullay stress =        0.00 kB


 VOLUME and BASIS-vectors are now :
 -----------------------------------------------------------------------------
  energy-cutoff  :      520.00
  volume of cell :      330.83
      direct lattice vectors                 reciprocal lattice vectors
     2.591982046 -1.496481076  0.000000000     0.385805142 -0.000000000 -0.000000000
     0.000000000  2.992962152  0.000000000     0.192902571  0.334117155  0.000000000
     0.000000000 -0.000000000 42.645201406     0.000000000  0.000000000  0.023449297

  length of vectors
     2.992962836  2.992962152 42.645201406     0.385805142  0.385805230  0.023449297


 FORCES acting on ions
    electron-ion (+dipol)            ewald-force                    non-local-force                 convergence-correction
 -----------------------------------------------------------------------------------------------
   -.118E-08 -.493E-08 0.102E+04   -.361E-07 0.466E-07 -.102E+04   -.108E-18 0.205E-18 0.315E-01   0.231E-09 -.369E-09 0.104E-01
   0.106E-02 -.184E-02 0.679E+03   0.560E-04 -.970E-04 -.679E+03   -.179E-20 -.645E-19 0.263E-01   -.183E-08 0.319E-08 0.950E-02
   0.205E-08 -.488E-09 0.266E+00   0.429E-08 -.555E-08 -.267E+00   0.514E-20 0.116E-19 -.359E-02   -.804E-11 0.329E-10 0.316E-02
   0.106E-02 -.184E-02 -.340E+03   0.560E-04 -.970E-04 0.340E+03   -.849E-20 -.396E-19 0.146E-01   -.132E-08 0.227E-08 -.264E-02
   -.266E-08 0.573E-08 -.102E+04   0.135E-07 -.198E-07 0.102E+04   -.340E-18 0.225E-18 -.198E-01   -.165E-09 0.234E-09 -.118E-01
   0.107E-02 -.185E-02 -.135E+04   0.513E-04 -.850E-04 0.135E+04   -.261E-17 -.303E-17 -.112E+01   -.122E-08 0.208E-08 -.112E-01
   -.107E-02 0.185E-02 0.135E+04   -.513E-04 0.850E-04 -.135E+04   -.432E-17 0.304E-17 0.111E+01   -.147E-08 0.256E-08 0.964E-02
   -.106E-02 0.184E-02 0.340E+03   -.560E-04 0.969E-04 -.340E+03   0.277E-20 0.489E-19 -.210E-01   0.356E-09 -.573E-09 0.733E-02
   -.106E-02 0.184E-02 -.679E+03   -.560E-04 0.971E-04 0.679E+03   0.155E-20 0.266E-19 -.161E-01   0.237E-08 -.417E-08 -.878E-02
   -.981E-05 0.267E-05 0.489E+03   0.236E-04 -.250E-04 -.489E+03   0.761E-17 0.416E-16 0.197E+00   -.715E-11 0.335E-11 0.305E-02
   -.240E-07 0.372E-07 0.170E+03   0.917E-08 -.101E-07 -.170E+03   -.299E-19 -.132E-19 -.890E-03   0.824E-10 -.151E-09 0.293E-02
   0.225E-07 -.343E-07 -.170E+03   -.955E-08 0.106E-07 0.170E+03   -.244E-19 0.131E-19 0.115E-02   -.301E-10 0.571E-10 -.203E-02
   0.982E-05 -.268E-05 -.489E+03   -.237E-04 0.250E-04 0.490E+03   0.201E-16 -.138E-16 -.193E+00   0.982E-10 -.178E-09 -.324E-02
   0.429E-04 -.743E-04 0.283E+03   -.481E-04 0.834E-04 -.283E+03   0.159E-21 0.112E-18 -.965E-02   -.218E-09 0.406E-09 0.325E-02
   0.429E-04 -.743E-04 -.566E+02   -.482E-04 0.834E-04 0.566E+02   0.354E-19 -.143E-20 0.365E-02   0.158E-10 -.263E-10 0.129E-03
   0.429E-04 -.742E-04 -.396E+03   -.480E-04 0.832E-04 0.396E+03   -.202E-17 0.171E-17 0.564E-01   -.238E-09 0.440E-09 -.419E-02
   -.429E-04 0.742E-04 0.396E+03   0.480E-04 -.832E-04 -.396E+03   0.279E-18 0.207E-19 -.531E-01   0.137E-09 -.242E-09 0.354E-02
   -.429E-04 0.743E-04 0.567E+02   0.482E-04 -.834E-04 -.567E+02   -.998E-21 0.289E-19 -.447E-02   0.244E-10 -.386E-10 0.185E-02
   -.429E-04 0.743E-04 -.283E+03   0.482E-04 -.835E-04 0.283E+03   -.173E-19 -.166E-20 0.424E-02   0.109E-09 -.224E-09 -.356E-02
   0.587E-10 0.527E-10 0.329E-01   -.520E-09 0.515E-09 -.320E-01   0.146E-20 0.338E-21 -.865E-03   0.132E-12 -.156E-12 -.455E-03
   -.484E-06 -.308E-07 0.478E+03   0.184E-05 -.168E-05 -.478E+03   0.217E-17 0.278E-16 -.117E+00   -.114E-11 0.176E-11 0.297E-02
   0.151E-04 -.261E-04 0.313E+03   -.295E-05 0.520E-05 -.313E+03   -.144E-16 0.416E-16 0.159E+00   0.313E-11 -.348E-11 0.178E-02
   -.148E-04 0.256E-04 0.155E+03   0.319E-05 -.545E-05 -.155E+03   -.895E-19 -.320E-19 0.818E-01   -.168E-11 0.486E-11 0.655E-03
   0.483E-06 0.307E-07 -.478E+03   -.184E-05 0.167E-05 0.478E+03   -.564E-17 -.278E-16 0.119E+00   -.516E-12 -.105E-11 -.355E-02
   0.148E-04 -.256E-04 -.155E+03   -.318E-05 0.544E-05 0.155E+03   0.146E-17 -.344E-17 -.856E-01   0.141E-11 -.433E-11 -.153E-02
   -.151E-04 0.261E-04 -.313E+03   0.294E-05 -.519E-05 0.313E+03   0.248E-16 -.277E-16 -.159E+00   -.251E-11 0.220E-11 -.252E-02
 -----------------------------------------------------------------------------------------------
   0.112E-07 -.173E-07 -.672E-02   0.955E-13 -.345E-13 0.512E-12   0.269E-16 0.405E-16 0.202E-02   -.308E-08 0.530E-08 0.468E-02
 
 
 POSITION                                       TOTAL-FORCE (eV/Angst)
 -----------------------------------------------------------------------------------
      0.00000     -0.00000     14.91629        -0.000000      0.000000     -0.007895
      0.86399      1.49648     17.41805         0.000000     -0.000000      0.012696
      0.00000     -0.00000     22.42330        -0.000000      0.000000     -0.001924
      0.86399      1.49648     24.92404         0.000000     -0.000000      0.008466
      0.00000     -0.00000     29.92775        -0.000000     -0.000000      0.014125
      0.86399      1.49648     32.43043         0.000000     -0.000000     -0.012554
      1.72799     -0.00000     12.41335        -0.000000      0.000000      0.006891
      1.72799     -0.00000     19.92216        -0.000000      0.000000     -0.012018
      1.72799     -0.00000     27.42703         0.000000     -0.000000     -0.007676
      0.00000     -0.00000     11.12971        -0.000000      0.000000     -0.005665
      0.00000     -0.00000     18.67020        -0.000000     -0.000000      0.004233
      0.00000     -0.00000     26.17544        -0.000000      0.000000     -0.003499
      0.00000     -0.00000     33.71336         0.000000     -0.000000      0.012421
      1.72799     -0.00000     16.16805        -0.000000      0.000000     -0.000859
      1.72799     -0.00000     23.67341        -0.000000     -0.000000      0.006883
      1.72799     -0.00000     31.17826        -0.000000      0.000000     -0.012358
      0.86399      1.49648     13.66537        -0.000000     -0.000000      0.018376
      0.86399      1.49648     21.17299        -0.000000      0.000000     -0.008191
      0.86399      1.49648     28.67709        -0.000000      0.000000     -0.010971
      0.00000     -0.00000      1.10002        -0.000000      0.000000     -0.000514
      0.00000     -0.00000      8.19806        -0.000000      0.000000      0.003292
      1.72799     -0.00000      5.80162        -0.000000     -0.000000      0.008228
      0.86399      1.49648      3.43978        -0.000000     -0.000000      0.007628
      0.00000     -0.00000     36.64541        -0.000000      0.000000     -0.002624
      1.72799     -0.00000     41.40533        -0.000000      0.000000     -0.008345
      0.86399      1.49648     39.04274         0.000000      0.000000     -0.008145
 -----------------------------------------------------------------------------------
    total drift:                                0.000000     -0.000000     -0.000021


--------------------------------------------------------------------------------------------------------



  FREE ENERGIE OF THE ION-ELECTRON SYSTEM (eV)
  ---------------------------------------------------
  free  energy   TOTEN  =      -133.10957572 eV

  energy  without entropy=     -133.10325719  energy(sigma->0) =     -133.10641646
 
 d Force = 0.2703844E-05[ 0.149E-05, 0.391E-05]  d Energy = 0.2635938E-05 0.679E-07
 d Force = 0.1185760E+01[ 0.119E+01, 0.119E+01]  d Ewald  = 0.1185760E+01 0.928E-10


--------------------------------------------------------------------------------------------------------


    POTLOK:  cpu time    0.20: real time    0.20


--------------------------------------------------------------------------------------------------------




--------------------------------------------------------------------------------------------------------


  
 reached required accuracy - stopping structural energy minimisation
     LOOP+:  cpu time   28.12: real time   28.15
    4ORBIT:  cpu time    0.00: real time    0.00

 total amount of memory used by VASP on root node   147800. kBytes
========================================================================

   base      :      30000. kBytes
   nonl-proj :      15914. kBytes
   fftplans  :      55172. kBytes
   grid      :      22118. kBytes
   one-center:         56. kBytes
   wavefun   :      24540. kBytes
 
  
  
 General timing and accounting informations for this job:
 ========================================================
  
                  Total CPU time used (sec):     1185.881
                            User time (sec):     1171.297
                          System time (sec):       14.585
                         Elapsed time (sec):     1187.406
  
                   Maximum memory used (kb):      251284.
                   Average memory used (kb):           0.
  
                          Minor page faults:       292346
                          Major page faults:            0
                 Voluntary context switches:           80
