       N       E                     dE             d eps       ncg     rms          rms(c)
DAV:   1     0.471132845289E+03    0.47113E+03   -0.41002E+04  2628   0.131E+03
DAV:   2    -0.904158580961E+02   -0.56155E+03   -0.53120E+03  3386   0.248E+02
DAV:   3    -0.146904914010E+03   -0.56489E+02   -0.56137E+02  3048   0.846E+01
DAV:   4    -0.147687428495E+03   -0.78251E+00   -0.78017E+00  3032   0.108E+01
DAV:   5    -0.147700488612E+03   -0.13060E-01   -0.13053E-01  3066   0.137E+00    0.219E+01
DAV:   6    -0.132942120748E+03    0.14758E+02   -0.84457E+01  2960   0.288E+01    0.749E+00
DAV:   7    -0.132778645438E+03    0.16348E+00   -0.14757E+00  2860   0.502E+00    0.451E+00
DAV:   8    -0.132681957021E+03    0.96688E-01   -0.46061E-01  3050   0.373E+00    0.748E-01
DAV:   9    -0.132662982880E+03    0.18974E-01   -0.76199E-02  2982   0.108E+00    0.433E-01
DAV:  10    -0.132664043326E+03   -0.10604E-02   -0.39362E-02  2982   0.831E-01    0.270E-01
DAV:  11    -0.132663821247E+03    0.22208E-03   -0.32215E-03  3028   0.305E-01    0.167E-01
DAV:  12    -0.132664017682E+03   -0.19644E-03   -0.35889E-03  3378   0.310E-01    0.652E-02
DAV:  13    -0.132663993797E+03    0.23885E-04   -0.73469E-04  2974   0.120E-01    0.494E-02
DAV:  14    -0.132663955446E+03    0.38351E-04   -0.23024E-04  2932   0.700E-02    0.191E-02
DAV:  15    -0.132663944648E+03    0.10798E-04   -0.77417E-05  2892   0.373E-02    0.621E-03
DAV:  16    -0.132663942176E+03    0.24725E-05   -0.69498E-06  1706   0.159E-02
   1 F= -.13266394E+03 E0= -.13266175E+03  d E =-.132664E+03
       N       E                     dE             d eps       ncg     rms          rms(c)
DAV:   1    -0.132664917045E+03   -0.97240E-03   -0.17927E-02  2712   0.577E-01    0.263E-02
DAV:   2    -0.132664951407E+03   -0.34362E-04   -0.72259E-04  3018   0.114E-01    0.224E-02
DAV:   3    -0.132664941285E+03    0.10121E-04   -0.32407E-05  2744   0.273E-02    0.160E-02
DAV:   4    -0.132664931387E+03    0.98982E-05   -0.78522E-05  2876   0.372E-02    0.117E-02
DAV:   5    -0.132664928121E+03    0.32657E-05   -0.62807E-06  1790   0.159E-02    0.108E-02
DAV:   6    -0.132664925375E+03    0.27465E-05   -0.95202E-06  1746   0.148E-02
   2 F= -.13266493E+03 E0= -.13266267E+03  d E =-.983199E-03
       N       E                     dE             d eps       ncg     rms          rms(c)
DAV:   1    -0.132665559727E+03   -0.63161E-03   -0.55934E-02  2652   0.102E+00    0.450E-02
DAV:   2    -0.132665676821E+03   -0.11709E-03   -0.21968E-03  3004   0.196E-01    0.391E-02
DAV:   3    -0.132665648735E+03    0.28086E-04   -0.90721E-05  2978   0.455E-02    0.276E-02
DAV:   4    -0.132665625149E+03    0.23586E-04   -0.24770E-04  2982   0.643E-02    0.217E-02
DAV:   5    -0.132665616210E+03    0.89394E-05   -0.17713E-05  2212   0.263E-02    0.182E-02
DAV:   6    -0.132665609800E+03    0.64098E-05   -0.31846E-05  2526   0.254E-02
   3 F= -.13266561E+03 E0= -.13266324E+03  d E =-.166762E-02
       N       E                     dE             d eps       ncg     rms          rms(c)
DAV:   1    -0.132666133243E+03   -0.51703E-03   -0.15439E-01  2658   0.164E+00    0.487E-02
DAV:   2    -0.132666411131E+03   -0.27789E-03   -0.32304E-03  2912   0.217E-01    0.274E-02
DAV:   3    -0.132666392149E+03    0.18982E-04   -0.47636E-05  2994   0.370E-02    0.188E-02
DAV:   4    -0.132666379017E+03    0.13132E-04   -0.31321E-05  2662   0.338E-02    0.797E-03
DAV:   5    -0.132666375210E+03    0.38074E-05   -0.11172E-05  1778   0.250E-02    0.524E-03
DAV:   6    -0.132666373312E+03    0.18980E-05   -0.92751E-06  1580   0.194E-02
   4 F= -.13266637E+03 E0= -.13266397E+03  d E =-.763512E-03
       N       E                     dE             d eps       ncg     rms          rms(c)
DAV:   1    -0.132665358133E+03    0.10171E-02   -0.13895E+00  2656   0.495E+00    0.140E-01
DAV:   2    -0.132667838032E+03   -0.24799E-02   -0.28588E-02  2926   0.651E-01    0.838E-02
DAV:   3    -0.132667669545E+03    0.16849E-03   -0.38229E-04  3098   0.106E-01    0.570E-02
DAV:   4    -0.132667556847E+03    0.11270E-03   -0.29735E-04  3020   0.103E-01    0.230E-02
DAV:   5    -0.132667539217E+03    0.17630E-04   -0.12355E-04  3052   0.676E-02    0.154E-02
DAV:   6    -0.132667530235E+03    0.89823E-05   -0.65646E-05  2816   0.459E-02
   5 F= -.13266753E+03 E0= -.13266502E+03  d E =-.192043E-02
       N       E                     dE             d eps       ncg     rms          rms(c)
DAV:   1    -0.132667548000E+03   -0.87831E-05   -0.63796E-01  2696   0.343E+00    0.937E-02
DAV:   2    -0.132668714784E+03   -0.11668E-02   -0.12698E-02  2868   0.448E-01    0.541E-02
DAV:   3    -0.132668638051E+03    0.76733E-04   -0.11965E-04  3050   0.611E-02    0.368E-02
DAV:   4    -0.132668575173E+03    0.62878E-04   -0.22888E-04  2992   0.969E-02    0.116E-02
DAV:   5    -0.132668578929E+03   -0.37561E-05   -0.96704E-05  2810   0.414E-02    0.151E-02
DAV:   6    -0.132668577059E+03    0.18700E-05   -0.58497E-06  1584   0.105E-02
   6 F= -.13266858E+03 E0= -.13266602E+03  d E =-.104682E-02
       N       E                     dE             d eps       ncg     rms          rms(c)
DAV:   1    -0.132663717950E+03    0.48610E-02   -0.36197E+00  2684   0.818E+00    0.219E-01
DAV:   2    -0.132670296951E+03   -0.65790E-02   -0.72063E-02  2884   0.107E+00    0.132E-01
DAV:   3    -0.132669812802E+03    0.48415E-03   -0.64745E-04  3084   0.146E-01    0.906E-02
DAV:   4    -0.132669326837E+03    0.48597E-03   -0.13581E-03  3008   0.249E-01    0.281E-02
DAV:   5    -0.132669319814E+03    0.70232E-05   -0.62825E-04  2974   0.104E-01    0.353E-02
DAV:   6    -0.132669278764E+03    0.41050E-04   -0.66941E-05  2890   0.357E-02    0.174E-02
DAV:   7    -0.132669175987E+03    0.10278E-03   -0.18886E-04  3002   0.790E-02    0.304E-02
DAV:   8    -0.132669116096E+03    0.59891E-04   -0.51051E-05  2948   0.653E-02    0.346E-02
DAV:   9    -0.132669049552E+03    0.66544E-04   -0.88695E-05  3072   0.773E-02    0.184E-02
DAV:  10    -0.132668967206E+03    0.82346E-04   -0.47958E-05  2824   0.113E-01    0.131E-02
DAV:  11    -0.132668889402E+03    0.77804E-04   -0.19510E-04  3866   0.181E-01    0.157E-02
DAV:  12    -0.132668877371E+03    0.12031E-04   -0.17576E-04  2996   0.110E-01    0.195E-02
DAV:  13    -0.132668866780E+03    0.10591E-04   -0.11214E-04  2884   0.616E-02    0.612E-03
DAV:  14    -0.132668865815E+03    0.96491E-06   -0.37797E-05  2566   0.324E-02
   7 F= -.13266887E+03 E0= -.13266627E+03  d E =-.133558E-02
       N       E                     dE             d eps       ncg     rms          rms(c)
DAV:   1    -0.132668312505E+03    0.55427E-03   -0.53515E-01  2680   0.312E+00    0.859E-02
DAV:   2    -0.132669319008E+03   -0.10065E-02   -0.11060E-02  2872   0.410E-01    0.521E-02
DAV:   3    -0.132669247587E+03    0.71421E-04   -0.99744E-05  3056   0.587E-02    0.366E-02
DAV:   4    -0.132669179331E+03    0.68256E-04   -0.25417E-04  2980   0.102E-01    0.133E-02
DAV:   5    -0.132669180336E+03   -0.10045E-05   -0.10098E-04  2794   0.411E-02    0.160E-02
DAV:   6    -0.132669175245E+03    0.50906E-05   -0.91867E-06  1578   0.131E-02
   8 F= -.13266918E+03 E0= -.13266661E+03  d E =-.164501E-02
       N       E                     dE             d eps       ncg     rms          rms(c)
DAV:   1    -0.132669332673E+03   -0.15234E-03   -0.92314E-02  2644   0.130E+00    0.435E-02
DAV:   2    -0.132669503031E+03   -0.17036E-03   -0.20232E-03  2890   0.182E-01    0.189E-02
DAV:   3    -0.132669496573E+03    0.64583E-05   -0.56554E-05  2802   0.311E-02    0.148E-02
DAV:   4    -0.132669490446E+03    0.61271E-05   -0.13092E-05  1658   0.174E-02    0.732E-03
DAV:   5    -0.132669485097E+03    0.53486E-05   -0.11301E-05  1750   0.208E-02    0.675E-03
DAV:   6    -0.132669483481E+03    0.16162E-05   -0.37439E-06  1554   0.123E-02
   9 F= -.13266948E+03 E0= -.13266690E+03  d E =-.308236E-03
       N       E                     dE             d eps       ncg     rms          rms(c)
DAV:   1    -0.132668677487E+03    0.80761E-03   -0.83111E-01  2628   0.391E+00    0.113E-01
DAV:   2    -0.132670327545E+03   -0.16501E-02   -0.17799E-02  2830   0.527E-01    0.622E-02
DAV:   3    -0.132670254710E+03    0.72835E-04   -0.19774E-04  3030   0.664E-02    0.441E-02
DAV:   4    -0.132670211315E+03    0.43395E-04   -0.31736E-04  3030   0.896E-02    0.203E-02
DAV:   5    -0.132670212229E+03   -0.91398E-06   -0.65460E-05  2670   0.368E-02    0.214E-02
DAV:   6    -0.132670206616E+03    0.56122E-05   -0.39735E-05  2382   0.317E-02
  10 F= -.13267021E+03 E0= -.13266758E+03  d E =-.103137E-02
       N       E                     dE             d eps       ncg     rms          rms(c)
DAV:   1    -0.132664293432E+03    0.59188E-02   -0.33256E+00  2636   0.782E+00    0.223E-01
DAV:   2    -0.132670887955E+03   -0.65945E-02   -0.70858E-02  2830   0.105E+00    0.126E-01
DAV:   3    -0.132670595004E+03    0.29295E-03   -0.76423E-04  3050   0.130E-01    0.881E-02
DAV:   4    -0.132670419952E+03    0.17505E-03   -0.11799E-03  3062   0.177E-01    0.375E-02
DAV:   5    -0.132670427501E+03   -0.75491E-05   -0.26397E-04  2872   0.715E-02    0.391E-02
DAV:   6    -0.132670412496E+03    0.15005E-04   -0.15512E-04  2836   0.603E-02    0.154E-02
DAV:   7    -0.132670411990E+03    0.50641E-06   -0.34719E-05  2366   0.278E-02
  11 F= -.13267041E+03 E0= -.13266771E+03  d E =-.123674E-02
       N       E                     dE             d eps       ncg     rms          rms(c)
DAV:   1    -0.132671088234E+03   -0.67574E-03   -0.15494E-01  2604   0.170E+00    0.490E-02
DAV:   2    -0.132671369050E+03   -0.28082E-03   -0.32412E-03  2920   0.230E-01    0.277E-02
DAV:   3    -0.132671351553E+03    0.17497E-04   -0.46638E-05  2906   0.344E-02    0.194E-02
DAV:   4    -0.132671335751E+03    0.15802E-04   -0.62583E-05  2838   0.407E-02    0.965E-03
DAV:   5    -0.132671331308E+03    0.44431E-05   -0.13734E-05  1686   0.236E-02    0.989E-03
DAV:   6    -0.132671324454E+03    0.68546E-05   -0.17269E-05  2014   0.312E-02
  12 F= -.13267132E+03 E0= -.13266860E+03  d E =-.912464E-03
       N       E                     dE             d eps       ncg     rms          rms(c)
DAV:   1    -0.132670705336E+03    0.62597E-03   -0.99013E-01  2604   0.429E+00    0.121E-01
DAV:   2    -0.132672466951E+03   -0.17616E-02   -0.20460E-02  2942   0.579E-01    0.706E-02
DAV:   3    -0.132672347402E+03    0.11955E-03   -0.33788E-04  3094   0.911E-02    0.490E-02
DAV:   4    -0.132672234079E+03    0.11332E-03   -0.30557E-04  3002   0.878E-02    0.230E-02
DAV:   5    -0.132672183728E+03    0.50352E-04   -0.74421E-05  3118   0.677E-02    0.227E-02
DAV:   6    -0.132672122150E+03    0.61577E-04   -0.10407E-04  3102   0.951E-02    0.112E-02
DAV:   7    -0.132672093293E+03    0.28857E-04   -0.69632E-05  2760   0.564E-02    0.142E-02
DAV:   8    -0.132672025238E+03    0.68055E-04   -0.31464E-05  2584   0.798E-02    0.671E-03
DAV:   9    -0.132671955766E+03    0.69472E-04   -0.94492E-05  3112   0.127E-01    0.186E-02
DAV:  10    -0.132671928501E+03    0.27265E-04   -0.80051E-05  3018   0.864E-02    0.122E-02
DAV:  11    -0.132671909241E+03    0.19260E-04   -0.96598E-05  3224   0.109E-01    0.111E-02
DAV:  12    -0.132671897926E+03    0.11315E-04   -0.28075E-05  2488   0.952E-02    0.891E-03
DAV:  13    -0.132671901438E+03   -0.35121E-05   -0.66987E-05  2558   0.383E-02
  13 F= -.13267190E+03 E0= -.13266909E+03  d E =-.148945E-02
       N       E                     dE             d eps       ncg     rms          rms(c)
DAV:   1    -0.132671919700E+03   -0.21775E-04   -0.42716E-01  2644   0.280E+00    0.775E-02
DAV:   2    -0.132672738698E+03   -0.81900E-03   -0.88252E-03  2922   0.374E-01    0.457E-02
DAV:   3    -0.132672692088E+03    0.46609E-04   -0.86614E-05  3004   0.458E-02    0.309E-02
DAV:   4    -0.132672653353E+03    0.38735E-04   -0.14881E-04  2846   0.709E-02    0.111E-02
DAV:   5    -0.132672654726E+03   -0.13731E-05   -0.52857E-05  2532   0.321E-02    0.118E-02
DAV:   6    -0.132672653068E+03    0.16581E-05   -0.57591E-06  1530   0.108E-02
  14 F= -.13267265E+03 E0= -.13266981E+03  d E =-.751630E-03
       N       E                     dE             d eps       ncg     rms          rms(c)
DAV:   1    -0.132670525546E+03    0.21292E-02   -0.15617E+00  2644   0.535E+00    0.148E-01
DAV:   2    -0.132673531342E+03   -0.30058E-02   -0.32418E-02  2920   0.716E-01    0.877E-02
DAV:   3    -0.132673350647E+03    0.18069E-03   -0.29761E-04  3080   0.886E-02    0.597E-02
DAV:   4    -0.132673177897E+03    0.17275E-03   -0.56319E-04  3014   0.159E-01    0.202E-02
DAV:   5    -0.132673183481E+03   -0.55842E-05   -0.25927E-04  2842   0.696E-02    0.239E-02
DAV:   6    -0.132673173780E+03    0.97006E-05   -0.21058E-05  1910   0.201E-02
  15 F= -.13267317E+03 E0= -.13267027E+03  d E =-.127234E-02
       N       E                     dE             d eps       ncg     rms          rms(c)
DAV:   1    -0.132673630321E+03   -0.44684E-03   -0.22332E-01  2736   0.201E+00    0.577E-02
DAV:   2    -0.132674010033E+03   -0.37971E-03   -0.46964E-03  2918   0.274E-01    0.381E-02
DAV:   3    -0.132673948388E+03    0.61644E-04   -0.56183E-05  2952   0.529E-02    0.274E-02
DAV:   4    -0.132673840256E+03    0.10813E-03   -0.12736E-04  3168   0.105E-01    0.125E-02
DAV:   5    -0.132673809177E+03    0.31079E-04   -0.10530E-04  2808   0.608E-02    0.150E-02
DAV:   6    -0.132673790622E+03    0.18556E-04   -0.49178E-05  2554   0.365E-02    0.729E-03
DAV:   7    -0.132673673277E+03    0.11734E-03   -0.12798E-04  3494   0.152E-01    0.287E-02
DAV:   8    -0.132673643191E+03    0.30086E-04   -0.93858E-05  3138   0.811E-02    0.404E-02
DAV:   9    -0.132673606219E+03    0.36972E-04   -0.87022E-05  3224   0.759E-02    0.320E-02
DAV:  10    -0.132673528267E+03    0.77952E-04   -0.15544E-04  4058   0.184E-01    0.179E-02
DAV:  11    -0.132673508537E+03    0.19730E-04   -0.15238E-04  3048   0.128E-01    0.116E-02
DAV:  12    -0.132673509975E+03   -0.14379E-05   -0.85205E-05  2702   0.523E-02
  16 F= -.13267351E+03 E0= -.13267064E+03  d E =-.336195E-03
       N       E                     dE             d eps       ncg     rms          rms(c)
DAV:   1    -0.132673527993E+03   -0.19456E-04   -0.12287E-02  2864   0.471E-01    0.118E-02
DAV:   2    -0.132673553318E+03   -0.25324E-04   -0.27579E-04  2824   0.652E-02    0.104E-02
DAV:   3    -0.132673551238E+03    0.20792E-05   -0.26080E-06  1572   0.104E-02    0.763E-03
DAV:   4    -0.132673548653E+03    0.25854E-05   -0.77043E-06  1658   0.200E-02    0.226E-03
DAV:   5    -0.132673548609E+03    0.43612E-07   -0.41300E-06  1518   0.883E-03    0.229E-03
DAV:   6    -0.132673548388E+03    0.22146E-06   -0.43446E-07  1500   0.320E-03
  17 F= -.13267355E+03 E0= -.13267067E+03  d E =-.374608E-03
       N       E                     dE             d eps       ncg     rms          rms(c)
DAV:   1    -0.132673497089E+03    0.51521E-04   -0.48447E-02  2780   0.937E-01    0.257E-02
DAV:   2    -0.132673586049E+03   -0.88960E-04   -0.10245E-03  2894   0.127E-01    0.184E-02
DAV:   3    -0.132673576029E+03    0.10020E-04   -0.92737E-06  1810   0.206E-02    0.132E-02
DAV:   4    -0.132673562020E+03    0.14009E-04   -0.40823E-05  2568   0.466E-02    0.555E-03
DAV:   5    -0.132673561595E+03    0.42583E-06   -0.18019E-05  1796   0.186E-02    0.614E-03
DAV:   6    -0.132673560646E+03    0.94854E-06   -0.24673E-06  1518   0.709E-03
  18 F= -.13267356E+03 E0= -.13267068E+03  d E =-.386866E-03
       N       E                     dE             d eps       ncg     rms          rms(c)
DAV:   1    -0.132673960752E+03   -0.39916E-03   -0.11247E-01  2756   0.138E+00    0.399E-02
DAV:   2    -0.132674149285E+03   -0.18853E-03   -0.23917E-03  2988   0.197E-01    0.333E-02
DAV:   3    -0.132674126044E+03    0.23242E-04   -0.47749E-05  2700   0.389E-02    0.245E-02
DAV:   4    -0.132674106716E+03    0.19328E-04   -0.11661E-04  2822   0.563E-02    0.115E-02
DAV:   5    -0.132674106040E+03    0.67528E-06   -0.30045E-05  2360   0.262E-02    0.113E-02
DAV:   6    -0.132674104807E+03    0.12334E-05   -0.54531E-06  1518   0.108E-02
  19 F= -.13267410E+03 E0= -.13267125E+03  d E =-.544161E-03
       N       E                     dE             d eps       ncg     rms          rms(c)
DAV:   1    -0.132674129494E+03   -0.23453E-04   -0.41505E-02  2724   0.839E-01    0.278E-02
DAV:   2    -0.132674194263E+03   -0.64769E-04   -0.96114E-04  3014   0.132E-01    0.212E-02
DAV:   3    -0.132674184636E+03    0.96268E-05   -0.41075E-05  2616   0.331E-02    0.161E-02
DAV:   4    -0.132674175130E+03    0.95059E-05   -0.21978E-05  2308   0.237E-02    0.765E-03
DAV:   5    -0.132674167773E+03    0.73567E-05   -0.86987E-06  1766   0.281E-02    0.605E-03
DAV:   6    -0.132674164116E+03    0.36572E-05   -0.96900E-06  1700   0.246E-02
  20 F= -.13267416E+03 E0= -.13267132E+03  d E =-.603470E-03
       N       E                     dE             d eps       ncg     rms          rms(c)
DAV:   1    -0.132674443447E+03   -0.27567E-03   -0.36451E-02  2768   0.822E-01    0.266E-02
DAV:   2    -0.132674497631E+03   -0.54184E-04   -0.91636E-04  2950   0.126E-01    0.188E-02
DAV:   3    -0.132674477526E+03    0.20105E-04   -0.20908E-05  2334   0.277E-02    0.144E-02
DAV:   4    -0.132674434351E+03    0.43175E-04   -0.36712E-05  2652   0.541E-02    0.757E-03
DAV:   5    -0.132674413480E+03    0.20871E-04   -0.28382E-05  2352   0.417E-02    0.937E-03
DAV:   6    -0.132674394339E+03    0.19141E-04   -0.17429E-05  2126   0.395E-02    0.491E-03
DAV:   7    -0.132674337321E+03    0.57018E-04   -0.46341E-05  2850   0.133E-01    0.134E-02
DAV:   8    -0.132674301611E+03    0.35710E-04   -0.71909E-05  3168   0.118E-01    0.119E-02
DAV:   9    -0.132674292440E+03    0.91710E-05   -0.79270E-05  2902   0.779E-02
  21 F= -.13267429E+03 E0= -.13267143E+03  d E =-.128324E-03
       N       E                     dE             d eps       ncg     rms          rms(c)
DAV:   1    -0.132674290355E+03    0.11256E-04   -0.21089E-03  2870   0.198E-01    0.103E-02
DAV:   2    -0.132674292359E+03   -0.20048E-05   -0.57758E-05  2798   0.324E-02    0.650E-03
DAV:   3    -0.132674291070E+03    0.12889E-05   -0.35784E-06  1536   0.100E-02    0.372E-03
DAV:   4    -0.132674290371E+03    0.69958E-06   -0.16440E-06  1534   0.723E-03    0.181E-03
DAV:   5    -0.132674290075E+03    0.29543E-06   -0.79771E-07  1506   0.536E-03    0.120E-03
DAV:   6    -0.132674289892E+03    0.18300E-06   -0.42837E-07  1516   0.484E-03
  22 F= -.13267429E+03 E0= -.13267143E+03  d E =-.125776E-03
       N       E                     dE             d eps       ncg     rms          rms(c)
DAV:   1    -0.132674388554E+03   -0.98479E-04   -0.36857E-02  2684   0.812E-01    0.241E-02
DAV:   2    -0.132674451398E+03   -0.62844E-04   -0.80177E-04  2960   0.116E-01    0.178E-02
DAV:   3    -0.132674443218E+03    0.81803E-05   -0.16484E-05  1896   0.248E-02    0.136E-02
DAV:   4    -0.132674434671E+03    0.85476E-05   -0.27416E-05  2544   0.332E-02    0.574E-03
DAV:   5    -0.132674433193E+03    0.14777E-05   -0.11941E-05  1654   0.214E-02    0.578E-03
DAV:   6    -0.132674432792E+03    0.40110E-06   -0.46648E-06  1518   0.997E-03
  23 F= -.13267443E+03 E0= -.13267156E+03  d E =-.142899E-03
       N       E                     dE             d eps       ncg     rms          rms(c)
DAV:   1    -0.132674435628E+03   -0.24355E-05   -0.22999E-02  2676   0.642E-01    0.197E-02
DAV:   2    -0.132674471463E+03   -0.35835E-04   -0.50857E-04  2976   0.947E-02    0.148E-02
DAV:   3    -0.132674465095E+03    0.63685E-05   -0.14607E-05  1792   0.242E-02    0.116E-02
DAV:   4    -0.132674458173E+03    0.69217E-05   -0.12824E-05  1852   0.260E-02    0.539E-03
DAV:   5    -0.132674454072E+03    0.41011E-05   -0.10575E-05  1828   0.283E-02    0.481E-03
DAV:   6    -0.132674453205E+03    0.86648E-06   -0.87460E-06  1566   0.166E-02
  24 F= -.13267445E+03 E0= -.13267157E+03  d E =-.163313E-03
