 vasp.5.3.5 31Mar14 (build Apr 08 2024 10:12:10) complex                        
  
 executed on             LinuxIFC date 2024.07.29  17:26:57
 running on    8 total cores
 distrk:  each k-point on    8 cores,    1 groups
 distr:  one band on NCORES_PER_BAND=   4 cores,    2 groups


--------------------------------------------------------------------------------------------------------


 INCAR:
 POTCAR:    PAW_PBE O 08Apr2002                   
 POTCAR:    PAW_PBE Mg 13Apr2007                  
 POTCAR:    PAW_PBE Al 04Jan2001                  
 POTCAR:    PAW_PBE O 08Apr2002                   
   VRHFIN =O: s2p4                                                              
   LEXCH  = PE                                                                  
   EATOM  =   432.3788 eV,   31.7789 Ry                                         
                                                                                
   TITEL  = PAW_PBE O 08Apr2002                                                 
   LULTRA =        F    use ultrasoft PP ?                                      
   IUNSCR =        1    unscreen: 0-lin 1-nonlin 2-no                           
   RPACOR =    1.200    partial core radius                                     
   POMASS =   16.000; ZVAL   =    6.000    mass and valenz                      
   RCORE  =    1.520    outmost cutoff radius                                   
   RWIGS  =    1.550; RWIGS  =    0.820    wigner-seitz radius (au A)           
   ENMAX  =  400.000; ENMIN  =  300.000 eV                                      
   ICORE  =        2    local potential                                         
   LCOR   =        T    correct aug charges                                     
   LPAW   =        T    paw PP                                                  
   EAUG   =  605.392                                                            
   DEXC   =    0.000                                                            
   RMAX   =    1.553    core radius for proj-oper                               
   RAUG   =    1.300    factor for augmentation sphere                          
   RDEP   =    1.550    radius for radial grids                                 
   RDEPT  =    1.329    core radius for aug-charge                              
                                                                                
   Atomic configuration                                                         
    4 entries                                                                   
     n  l   j            E        occ.                                          
     1  0  0.50      -514.6923   2.0000                                         
     2  0  0.50       -23.9615   2.0000                                         
     2  1  0.50        -9.0305   4.0000                                         
     3  2  1.50        -9.5241   0.0000                                         
   Description                                                                  
     l       E           TYP  RCUT    TYP  RCUT                                 
     0    -23.9615318     23  1.200                                             
     0     -9.5240782     23  1.200                                             
     1     -9.0304911     23  1.520                                             
     1      8.1634956     23  1.520                                             
     2     -9.5240782      7  1.500                                             
  local pseudopotential read in
  partial core-charges read in
  partial kinetic energy density read in
  kinetic energy density of atom read in
  atomic valenz-charges read in
  non local Contribution for L=           0  read in
    real space projection operators read in
  non local Contribution for L=           0  read in
    real space projection operators read in
  non local Contribution for L=           1  read in
    real space projection operators read in
  non local Contribution for L=           1  read in
    real space projection operators read in
    PAW grid and wavefunctions read in
 
   number of l-projection  operators is LMAX  =           4
   number of lm-projection operators is LMMAX =           8
 
 POTCAR:    PAW_PBE Mg 13Apr2007                  
   VRHFIN =Mg: s2p0                                                             
   LEXCH  = PE                                                                  
   EATOM  =    23.0369 eV,    1.6932 Ry                                         
                                                                                
   TITEL  = PAW_PBE Mg 13Apr2007                                                
   LULTRA =        F    use ultrasoft PP ?                                      
   IUNSCR =        1    unscreen: 0-lin 1-nonlin 2-no                           
   RPACOR =    1.500    partial core radius                                     
   POMASS =   24.305; ZVAL   =    2.000    mass and valenz                      
   RCORE  =    2.000    outmost cutoff radius                                   
   RWIGS  =    2.880; RWIGS  =    1.524    wigner-seitz radius (au A)           
   ENMAX  =  200.000; ENMIN  =  100.000 eV                                      
   RCLOC  =    1.506    cutoff for local pot                                    
   LCOR   =        T    correct aug charges                                     
   LPAW   =        T    paw PP                                                  
   EAUG   =  454.734                                                            
   DEXC   =    0.000                                                            
   RMAX   =    2.045    core radius for proj-oper                               
   RAUG   =    1.300    factor for augmentation sphere                          
   RDEP   =    2.025    radius for radial grids                                 
   RDEPT  =    1.942    core radius for aug-charge                              
                                                                                
   Atomic configuration                                                         
    6 entries                                                                   
     n  l   j            E        occ.                                          
     1  0  0.50     -1259.6230   2.0000                                         
     2  0  0.50       -79.8442   2.0000                                         
     2  1  1.50       -46.6121   6.0000                                         
     3  0  0.50        -4.7055   2.0000                                         
     3  1  0.50        -1.3660   0.0000                                         
     3  2  1.50        -1.3606   0.0000                                         
   Description                                                                  
     l       E           TYP  RCUT    TYP  RCUT                                 
     0     -4.7054661     23  2.000                                             
     0     27.2116520     23  2.000                                             
     1      1.3605826     23  2.000                                             
     1     27.2116520     23  2.000                                             
     2     -1.3605826     23  2.000                                             
  local pseudopotential read in
  partial core-charges read in
  partial kinetic energy density read in
  atomic valenz-charges read in
  non local Contribution for L=           0  read in
    real space projection operators read in
  non local Contribution for L=           0  read in
    real space projection operators read in
  non local Contribution for L=           1  read in
    real space projection operators read in
  non local Contribution for L=           1  read in
    real space projection operators read in
  non local Contribution for L=           2  read in
    real space projection operators read in
    PAW grid and wavefunctions read in
 
   number of l-projection  operators is LMAX  =           5
   number of lm-projection operators is LMMAX =          13
 
 POTCAR:    PAW_PBE Al 04Jan2001                  
   VRHFIN =Al: s2p1                                                             
   LEXCH  = PE                                                                  
   EATOM  =    53.5387 eV,    3.9350 Ry                                         
                                                                                
   TITEL  = PAW_PBE Al 04Jan2001                                                
   LULTRA =        F    use ultrasoft PP ?                                      
   IUNSCR =        1    unscreen: 0-lin 1-nonlin 2-no                           
   RPACOR =    1.500    partial core radius                                     
   POMASS =   26.981; ZVAL   =    3.000    mass and valenz                      
   RCORE  =    1.900    outmost cutoff radius                                   
   RWIGS  =    2.650; RWIGS  =    1.402    wigner-seitz radius (au A)           
   ENMAX  =  240.300; ENMIN  =  180.225 eV                                      
   ICORE  =        2    local potential                                         
   LCOR   =        T    correct aug charges                                     
   LPAW   =        T    paw PP                                                  
   EAUG   =  291.052                                                            
   DEXC   =    0.000                                                            
   RMAX   =    1.939    core radius for proj-oper                               
   RAUG   =    1.300    factor for augmentation sphere                          
   RDEP   =    1.966    radius for radial grids                                 
   RDEPT  =    1.856    core radius for aug-charge                              
                                                                                
   Atomic configuration                                                         
    6 entries                                                                   
     n  l   j            E        occ.                                          
     1  0  0.50     -1511.1048   2.0000                                         
     2  0  0.50      -108.1629   2.0000                                         
     2  1  1.50       -69.6402   6.0000                                         
     3  0  0.50        -7.7528   2.0000                                         
     3  1  1.50        -2.7121   1.0000                                         
     3  2  2.50        -2.7212   0.0000                                         
   Description                                                                  
     l       E           TYP  RCUT    TYP  RCUT                                 
     0     -7.7528455     23  1.900                                             
     0     -3.3096929     23  1.900                                             
     1     -2.7120682     23  1.900                                             
     1     13.6058260     23  1.900                                             
     2     -2.7211652      7  1.900                                             
  local pseudopotential read in
  partial core-charges read in
  partial kinetic energy density read in
  atomic valenz-charges read in
  non local Contribution for L=           0  read in
    real space projection operators read in
  non local Contribution for L=           0  read in
    real space projection operators read in
  non local Contribution for L=           1  read in
    real space projection operators read in
  non local Contribution for L=           1  read in
    real space projection operators read in
    PAW grid and wavefunctions read in
 
   number of l-projection  operators is LMAX  =           4
   number of lm-projection operators is LMMAX =           8
 

 ----------------------------------------------------------------------------- 
|                                                                             |
|  ADVICE TO THIS USER RUNNING 'VASP/VAMP'   (HEAR YOUR MASTER'S VOICE ...):  |
|                                                                             |
|      You have a (more or less) 'large supercell' and for larger cells       |
|      it might be more efficient to use real space projection opertators     |
|      So try LREAL= Auto  in the INCAR   file.                               |
|      Mind: At the moment your POTCAR file does not contain real space       |
|       projectors, and has to be modified,  BUT if you                       |
|      want to do an extremely  accurate calculation you might also keep the  |
|      reciprocal projection scheme          (i.e. LREAL=.FALSE.)             |
|                                                                             |
 ----------------------------------------------------------------------------- 

  PAW_PBE O 08Apr2002                   :
 energy of atom  1       EATOM= -432.3788
 kinetic energy error for atom=    0.0208 (will be added to EATOM!!)
  PAW_PBE Mg 13Apr2007                  :
 energy of atom  2       EATOM=  -23.0369
 kinetic energy error for atom=    0.0000 (will be added to EATOM!!)
  PAW_PBE Al 04Jan2001                  :
 energy of atom  3       EATOM=  -53.5387
 kinetic energy error for atom=    0.0002 (will be added to EATOM!!)
 
 
 POSCAR: Layer                                   
  positions in direct lattice
  velocities in cartesian coordinates
 exchange correlation table for  LEXCH =        8
   RHO(1)=    0.500       N(1)  =     2000
   RHO(2)=  100.500       N(2)  =     4000
 


--------------------------------------------------------------------------------------------------------


 ion  position               nearest neighbor table
   1  0.000  0.000  0.352-  17 2.14  17 2.14  17 2.14  14 2.14  14 2.14  14 2.14
   2  0.333  0.667  0.410-  14 2.14  14 2.14  14 2.14  11 2.14  11 2.14  11 2.14
   3  0.000  0.000  0.526-  18 2.14  18 2.14  18 2.14  15 2.14  15 2.14  15 2.14
   4  0.333  0.667  0.584-  15 2.14  15 2.14  15 2.14  12 2.14  12 2.14  12 2.14
   5  0.000  0.000  0.699-  16 2.14  16 2.14  16 2.14  19 2.15  19 2.15  19 2.15
   6  0.333  0.667  0.757-  16 2.15  16 2.15  16 2.15  13 2.17  13 2.17  13 2.17
   7  0.667  0.333  0.294-  17 2.15  17 2.15  17 2.15  10 2.17  10 2.17  10 2.17
   8  0.667  0.333  0.468-  11 2.14  11 2.14  11 2.14  18 2.14  18 2.14  18 2.14
   9  0.667  0.333  0.642-  19 2.14  19 2.14  19 2.14  12 2.14  12 2.14  12 2.14
  10  0.000  0.000  0.264-   7 2.17   7 2.17   7 2.17  21 3.08  17 3.10  17 3.10  17 3.10
  11  0.000  0.000  0.439-   2 2.14   2 2.14   2 2.14   8 2.14   8 2.14   8 2.14  14 3.07  14 3.07
                            14 3.07  18 3.07  18 3.07  18 3.07
  12  0.000  0.000  0.613-   9 2.14   9 2.14   9 2.14   4 2.14   4 2.14   4 2.14  19 3.07  19 3.07
                            19 3.07  15 3.07  15 3.07  15 3.07
  13  0.000  0.000  0.787-   6 2.17   6 2.17   6 2.17  24 3.07  16 3.10  16 3.10  16 3.10
  14  0.667  0.333  0.381-   2 2.14   2 2.14   2 2.14   1 2.14   1 2.14   1 2.14  11 3.07  11 3.07
                            11 3.07  17 3.07  17 3.07  17 3.07
  15  0.667  0.333  0.555-   4 2.14   4 2.14   4 2.14   3 2.14   3 2.14   3 2.14  12 3.07  12 3.07
                            12 3.07  18 3.07  18 3.07  18 3.07
  16  0.667  0.333  0.728-   5 2.14   5 2.14   5 2.14   6 2.15   6 2.15   6 2.15  19 3.07  19 3.07
                            19 3.07  13 3.10  13 3.10  13 3.10
  17  0.333  0.667  0.323-   1 2.14   1 2.14   1 2.14   7 2.15   7 2.15   7 2.15  14 3.07  14 3.07
                            14 3.07  10 3.10  10 3.10  10 3.10
  18  0.333  0.667  0.497-   8 2.14   8 2.14   8 2.14   3 2.14   3 2.14   3 2.14  11 3.07  11 3.07
                            11 3.07  15 3.07  15 3.07  15 3.07
  19  0.333  0.667  0.670-   9 2.14   9 2.14   9 2.14   5 2.15   5 2.15   5 2.15  12 3.07  12 3.07
                            12 3.07  16 3.07  16 3.07  16 3.07
  20  0.000  0.000  0.026-  23 2.99  23 2.99  23 2.99  25 2.99  25 2.99  25 2.99
  21  0.000  0.000  0.194-  22 3.05  22 3.05  22 3.05  10 3.08
  22  0.667  0.333  0.137-  23 2.99  23 2.99  23 2.99  21 3.05  21 3.05  21 3.05
  23  0.333  0.667  0.081-  20 2.99  20 2.99  20 2.99  22 2.99  22 2.99  22 2.99
  24  0.000  0.000  0.857-  26 3.05  26 3.05  26 3.05  13 3.07
  25  0.667  0.333  0.970-  20 2.99  20 2.99  20 2.99  26 2.99  26 2.99  26 2.99
  26  0.333  0.667  0.915-  25 2.99  25 2.99  25 2.99  24 3.05  24 3.05  24 3.05
 
  LATTYP: Found a hexagonal cell.
 ALAT       =     2.9929628358
 C/A-ratio  =    14.6595042617
  
  Lattice vectors:
  
 A1 = (   2.5919820457,  -1.4964810762,   0.0000000000)
 A2 = (   0.0000000000,   2.9929621524,   0.0000000000)
 A3 = (   0.0000000000,  -0.0000000000,  43.8753514464)


Analysis of symmetry for initial positions (statically):
=====================================================================
 Subroutine PRICEL returns:
 Original cell was already a primitive cell.
 

 Routine SETGRP: Setting up the symmetry group for a 
 hexagonal supercell.


 Subroutine GETGRP returns: Found  6 space group operations
 (whereof  6 operations were pure point group operations)
 out of a pool of 24 trial point group operations.


The static configuration has the point symmetry C_3v.


Analysis of symmetry for dynamics (positions and initial velocities):
=====================================================================
 Subroutine PRICEL returns:
 Original cell was already a primitive cell.
 

 Routine SETGRP: Setting up the symmetry group for a 
 hexagonal supercell.


 Subroutine GETGRP returns: Found  6 space group operations
 (whereof  6 operations were pure point group operations)
 out of a pool of 24 trial point group operations.


The dynamic configuration has the point symmetry C_3v.


Analysis of constrained symmetry for selective dynamics:
=====================================================================
 Subroutine PRICEL returns:
 Original cell was already a primitive cell.
 

 Routine SETGRP: Setting up the symmetry group for a 
 hexagonal supercell.


 Subroutine GETGRP returns: Found  6 space group operations
 (whereof  6 operations were pure point group operations)
 out of a pool of 24 trial point group operations.


The constrained configuration has the point symmetry C_3v.
 
 
 KPOINTS: K-Spacing Value to Generate K-Mesh: 0.02

Automatic generation of k-mesh.
Space group operators:
 irot       det(A)        alpha          n_x          n_y          n_z        tau_x        tau_y        tau_z
    1     1.000000     0.000000     1.000000     0.000000     0.000000     0.000000     0.000000     0.000000
    2     1.000000   120.000000    -0.000000     0.000000    -1.000000     0.000000     0.000000     0.000000
    3     1.000000   120.000000    -0.000000    -0.000000     1.000000     0.000000     0.000000     0.000000
    4    -1.000000   180.000000    -0.866025     0.500000     0.000000     0.000000     0.000000     0.000000
    5    -1.000000   180.000000     0.000000     1.000000     0.000000     0.000000     0.000000     0.000000
    6    -1.000000   180.000000    -0.866025    -0.500000    -0.000000     0.000000     0.000000     0.000000
 
 Subroutine IBZKPT returns following result:
 ===========================================
 
 Found     21 irreducible k-points:
 
 Following reciprocal coordinates:
            Coordinates               Weight
  0.000000  0.000000  0.000000      1.000000
  0.076923 -0.000000  0.000000      6.000000
  0.153846 -0.000000  0.000000      6.000000
  0.230769 -0.000000  0.000000      6.000000
  0.307692 -0.000000  0.000000      6.000000
  0.384615 -0.000000  0.000000      6.000000
  0.461538 -0.000000  0.000000      6.000000
  0.076923  0.076923  0.000000      6.000000
  0.153846  0.076923  0.000000     12.000000
  0.230769  0.076923  0.000000     12.000000
  0.307692  0.076923  0.000000     12.000000
  0.384615  0.076923  0.000000     12.000000
  0.461538  0.076923  0.000000      6.000000
  0.153846  0.153846  0.000000      6.000000
  0.230769  0.153846  0.000000     12.000000
  0.307692  0.153846  0.000000     12.000000
  0.384615  0.153846  0.000000     12.000000
  0.230769  0.230769  0.000000      6.000000
  0.307692  0.230769  0.000000     12.000000
  0.384615  0.230769 -0.000000      6.000000
  0.307692  0.307692  0.000000      6.000000
 
 Following cartesian coordinates:
            Coordinates               Weight
  0.000000  0.000000  0.000000      1.000000
  0.029677 -0.000000 -0.000000      6.000000
  0.059355 -0.000000 -0.000000      6.000000
  0.089032 -0.000000 -0.000000      6.000000
  0.118709 -0.000000 -0.000000      6.000000
  0.148387 -0.000000 -0.000000      6.000000
  0.178064 -0.000000 -0.000000      6.000000
  0.044516  0.025701  0.000000      6.000000
  0.074193  0.025701  0.000000     12.000000
  0.103871  0.025701  0.000000     12.000000
  0.133548  0.025701  0.000000     12.000000
  0.163225  0.025701  0.000000     12.000000
  0.192903  0.025701  0.000000      6.000000
  0.089032  0.051403  0.000000      6.000000
  0.118709  0.051403  0.000000     12.000000
  0.148387  0.051403  0.000000     12.000000
  0.178064  0.051403  0.000000     12.000000
  0.133548  0.077104  0.000000      6.000000
  0.163225  0.077104  0.000000     12.000000
  0.192903  0.077104  0.000000      6.000000
  0.178064  0.102805  0.000000      6.000000
 


--------------------------------------------------------------------------------------------------------




 Dimension of arrays:
   k-points           NKPTS =     21   k-points in BZ     NKDIM =     21   number of bands    NBANDS=     62
   number of dos      NEDOS =    301   number of ions     NIONS =     26
   non local maximal  LDIM  =      5   non local SUM 2l+1 LMDIM =     13
   total plane-waves  NPLWV = 193536
   max r-space proj   IRMAX =      1   max aug-charges    IRDMAX= 193410
   dimension x,y,z NGX =    24 NGY =   24 NGZ =  336
   dimension x,y,z NGXF=    48 NGYF=   48 NGZF=  672
   support grid    NGXF=    96 NGYF=   96 NGZF= 1344
   ions per type =               9  10   7
 NGX,Y,Z   is equivalent  to a cutoff of  13.33, 13.33, 12.73 a.u.
 NGXF,Y,Z  is equivalent  to a cutoff of  26.66, 26.66, 25.46 a.u.


 I would recommend the setting:
   dimension x,y,z NGX =    22 NGY =   22 NGZ =  326
 SYSTEM =  unknown system                          
 POSCAR =  Layer                                   

 Startparameter for this run:
   NWRITE =      2    write-flag & timer
   PREC   = accura    normal or accurate (medium, high low for compatibility)
   ISTART =      0    job   : 0-new  1-cont  2-samecut
   ICHARG =      2    charge: 1-file 2-atom 10-const
   ISPIN  =      1    spin polarized calculation?
   LNONCOLLINEAR =      F non collinear calculations
   LSORBIT =      F    spin-orbit coupling
   INIWAV =      1    electr: 0-lowe 1-rand  2-diag
   LASPH  =      F    aspherical Exc in radial PAW
   METAGGA=      F    non-selfconsistent MetaGGA calc.

 Electronic Relaxation 1
   ENCUT  =  520.0 eV  38.22 Ry    6.18 a.u.   5.56  5.56 81.58*2*pi/ulx,y,z
   ENINI  =  520.0     initial cutoff
   ENAUG  =  605.4 eV  augmentation charge cutoff
   NELM   =    100;   NELMIN=  6; NELMDL=  0     # of ELM steps 
   EDIFF  = 0.1E-04   stopping-criterion for ELM
   LREAL  =      F    real-space projection
   NLSPLINE    = F    spline interpolate recip. space projectors
   LCOMPAT=      F    compatible to vasp.4.4
   GGA_COMPAT  = T    GGA compatible to vasp.4.4-vasp.4.6
   LMAXPAW     = -100 max onsite density
   LMAXMIX     =    2 max onsite mixed and CHGCAR
   VOSKOWN=      0    Vosko Wilk Nusair interpolation
   ROPT   =    0.00000   0.00000   0.00000
 Ionic relaxation
   EDIFFG = -.2E-01   stopping-criterion for IOM
   NSW    =    500    number of steps for IOM
   NBLOCK =      1;   KBLOCK =    500    inner block; outer block 
   IBRION =      2    ionic relax: 0-MD 1-quasi-New 2-CG
   NFREE  =      1    steps in history (QN), initial steepest desc. (CG)
   ISIF   =      2    stress and relaxation
   IWAVPR =     11    prediction:  0-non 1-charg 2-wave 3-comb
   ISYM   =      2    0-nonsym 1-usesym 2-fastsym
   LCORR  =      T    Harris-Foulkes like correction to forces

   POTIM  = 0.5000    time-step for ionic-motion
   TEIN   =    0.0    initial temperature
   TEBEG  =    0.0;   TEEND  =   0.0 temperature during run
   SMASS  =  -3.00    Nose mass-parameter (am)
   estimated Nose-frequenzy (Omega)   =  0.10E-29 period in steps =****** mass=  -0.205E-27a.u.
   SCALEE = 1.0000    scale energy and forces
   NPACO  =    256;   APACO  = 16.0  distance and # of slots for P.C.
   PSTRESS=    0.0 pullay stress

  Mass of Ions in am
   POMASS =  16.00 24.30 26.98
  Ionic Valenz
   ZVAL   =   6.00  2.00  3.00
  Atomic Wigner-Seitz radii
   RWIGS  =  -1.00 -1.00 -1.00
  virtual crystal weights 
   VCA    =   1.00  1.00  1.00
   NELECT =      95.0000    total number of electrons
   NUPDOWN=      -1.0000    fix difference up-down

 DOS related values:
   EMIN   =  10.00;   EMAX   =-10.00  energy-range for DOS
   EFERMI =   0.00
   ISMEAR =     0;   SIGMA  =   0.05  broadening in eV -4-tet -1-fermi 0-gaus

 Electronic relaxation 2 (details)
   IALGO  =     38    algorithm
   LDIAG  =      T    sub-space diagonalisation (order eigenvalues)
   LSUBROT=      F    optimize rotation matrix (better conditioning)
   TURBO    =      0    0=normal 1=particle mesh
   IRESTART =      0    0=no restart 2=restart with 2 vectors
   NREBOOT  =      0    no. of reboots
   NMIN     =      0    reboot dimension
   EREF     =   0.00    reference energy to select bands
   IMIX   =      4    mixing-type and parameters
     AMIX     =   0.40;   BMIX     =  1.00
     AMIX_MAG =   1.60;   BMIX_MAG =  1.00
     AMIN     =   0.01
     WC   =   100.;   INIMIX=   1;  MIXPRE=   1;  MAXMIX= -45

 Intra band minimization:
   WEIMIN = 0.0010     energy-eigenvalue tresh-hold
   EBREAK =  0.40E-07  absolut break condition
   DEPER  =   0.30     relativ break condition  

   TIME   =   0.40     timestep for ELM

  volume/ion in A,a.u.               =      13.09        88.34
  Fermi-wavevector in a.u.,A,eV,Ry     =   1.069871  2.021763 15.573555  1.144624
  Thomas-Fermi vector in A             =   2.205564
 
 Write flags
   LWAVE  =      F    write WAVECAR
   LCHARG =      T    write CHGCAR
   LVTOT  =      F    write LOCPOT, total local potential
   LVHAR  =      F    write LOCPOT, Hartree potential only
   LELF   =      F    write electronic localiz. function (ELF)
   LORBIT =      0    0 simple, 1 ext, 2 COOP (PROOUT)


 Dipole corrections
   LMONO  =      F    monopole corrections only (constant potential shift)
   LDIPOL =      F    correct potential (dipole corrections)
   IDIPOL =      0    1-x, 2-y, 3-z, 4-all directions 
   EPSILON=  1.0000000 bulk dielectric constant

 Exchange correlation treatment:
   GGA     =    --    GGA type
   LEXCH   =     8    internal setting for exchange type
   VOSKOWN=      0    Vosko Wilk Nusair interpolation
   LHFCALC =     F    Hartree Fock is set to
   LHFONE  =     F    Hartree Fock one center treatment
   AEXX    =    0.0000 exact exchange contribution

 Linear response parameters
   LEPSILON=     F    determine dielectric tensor
   LRPA    =     F    only Hartree local field effects (RPA)
   LNABLA  =     F    use nabla operator in PAW spheres
   LVEL    =     F    velocity operator in full k-point grid
   LINTERFAST=   F  fast interpolation
   KINTER  =     0    interpolate to denser k-point grid
   CSHIFT  =0.1000    complex shift for real part using Kramers Kronig
   OMEGAMAX=  -1.0    maximum frequency
   DEG_THRESHOLD= 0.2000000E-02 threshold for treating states as degnerate
   RTIME   =    0.100 relaxation time in fs

 Orbital magnetization related:
   ORBITALMAG=     F  switch on orbital magnetization
   LCHIMAG   =     F  perturbation theory with respect to B field
   DQ        =  0.001000  dq finite difference perturbation B field



--------------------------------------------------------------------------------------------------------


 conjugate gradient relaxation of ions
   using selective dynamics as specified on POSCAR
 charge density and potential will be updated during run
 non-spin polarized calculation
 Variant of blocked Davidson
 Davidson routine will perform the subspace rotation
 perform sub-space diagonalisation
    after iterative eigenvector-optimisation
 modified Broyden-mixing scheme, WC =      100.0
 initial mixing is a Kerker type mixing with AMIX =  0.4000 and BMIX =      1.0000
 Hartree-type preconditioning will be used
 using additional bands           14
 reciprocal scheme for non local part
 use partial core corrections
 calculate Harris-corrections to forces 
   (improved forces if not selfconsistent)
 use gradient corrections 
 use of overlap-Matrix (Vanderbilt PP)
 Gauss-broadening in eV      SIGMA  =   0.05


--------------------------------------------------------------------------------------------------------


  energy-cutoff  :      520.00
  volume of cell :      340.37
      direct lattice vectors                 reciprocal lattice vectors
     2.591982046 -1.496481076  0.000000000     0.385805142 -0.000000000 -0.000000000
     0.000000000  2.992962152  0.000000000     0.192902571  0.334117155  0.000000000
     0.000000000 -0.000000000 43.875351446     0.000000000  0.000000000  0.022791840

  length of vectors
     2.992962836  2.992962152 43.875351446     0.385805142  0.385805230  0.022791840


 
 k-points in units of 2pi/SCALE and weight: K-Spacing Value to Generate K-Mesh: 0.02
   0.00000000  0.00000000  0.00000000       0.006
   0.02967732 -0.00000000 -0.00000000       0.036
   0.05935464 -0.00000000 -0.00000000       0.036
   0.08903196 -0.00000000 -0.00000000       0.036
   0.11870927 -0.00000000 -0.00000000       0.036
   0.14838659 -0.00000000 -0.00000000       0.036
   0.17806391 -0.00000000 -0.00000000       0.036
   0.04451598  0.02570132  0.00000000       0.036
   0.07419330  0.02570132  0.00000000       0.071
   0.10387062  0.02570132  0.00000000       0.071
   0.13354793  0.02570132  0.00000000       0.071
   0.16322525  0.02570132  0.00000000       0.071
   0.19290257  0.02570132  0.00000000       0.036
   0.08903196  0.05140264  0.00000000       0.036
   0.11870927  0.05140264  0.00000000       0.071
   0.14838659  0.05140264  0.00000000       0.071
   0.17806391  0.05140264  0.00000000       0.071
   0.13354793  0.07710396  0.00000000       0.036
   0.16322525  0.07710396  0.00000000       0.071
   0.19290257  0.07710396  0.00000000       0.036
   0.17806391  0.10280528  0.00000000       0.036
 
 k-points in reciprocal lattice and weights: K-Spacing Value to Generate K-Mesh: 0.02
   0.00000000  0.00000000  0.00000000       0.006
   0.07692308 -0.00000000  0.00000000       0.036
   0.15384615 -0.00000000  0.00000000       0.036
   0.23076923 -0.00000000  0.00000000       0.036
   0.30769231 -0.00000000  0.00000000       0.036
   0.38461538 -0.00000000  0.00000000       0.036
   0.46153846 -0.00000000  0.00000000       0.036
   0.07692308  0.07692308  0.00000000       0.036
   0.15384615  0.07692308  0.00000000       0.071
   0.23076923  0.07692308  0.00000000       0.071
   0.30769231  0.07692308  0.00000000       0.071
   0.38461538  0.07692308  0.00000000       0.071
   0.46153846  0.07692308  0.00000000       0.036
   0.15384615  0.15384615  0.00000000       0.036
   0.23076923  0.15384615  0.00000000       0.071
   0.30769231  0.15384615  0.00000000       0.071
   0.38461538  0.15384615  0.00000000       0.071
   0.23076923  0.23076923  0.00000000       0.036
   0.30769231  0.23076923  0.00000000       0.071
   0.38461538  0.23076923 -0.00000000       0.036
   0.30769231  0.30769231  0.00000000       0.036
 
 position of ions in fractional coordinates (direct lattice) 
   0.00000000  0.00000000  0.35214267
   0.33333300  0.66666700  0.41002815
   0.00000000  0.00000000  0.52578658
   0.33333300  0.66666700  0.58367387
   0.00000000  0.00000000  0.69944752
   0.33333300  0.66666700  0.75733835
   0.66666700  0.33333300  0.29425148
   0.66666700  0.33333300  0.46790091
   0.66666700  0.33333300  0.64155129
   0.00000000  0.00000000  0.26448512
   0.00000000  0.00000000  0.43896401
   0.00000000  0.00000000  0.61261420
   0.00000000  0.00000000  0.78710088
   0.66666700  0.33333300  0.38110195
   0.66666700  0.33333300  0.55473570
   0.66666700  0.33333300  0.72835225
   0.33333300  0.66666700  0.32322785
   0.33333300  0.66666700  0.49684223
   0.33333300  0.66666700  0.67048118
   0.00000000  0.00000000  0.02578552
   0.00000000  0.00000000  0.19439256
   0.66666700  0.33333300  0.13702868
   0.33333300  0.66666700  0.08129789
   0.00000000  0.00000000  0.85717309
   0.66666700  0.33333300  0.97027279
   0.33333300  0.66666700  0.91453831
 
 position of ions in cartesian coordinates  (Angst):
   0.00000000 -0.00000000 15.45038326
   0.86399315  1.49648257 17.99012910
   0.00000000 -0.00000000 23.06907089
   0.86399315  1.49648257 25.60889601
   0.00000000 -0.00000000 30.68850572
   0.86399315  1.49648257 33.22848612
   1.72798889 -0.00000150 12.91038698
   1.72798889 -0.00000150 20.52931693
   1.72798889 -0.00000150 28.14828819
   0.00000000 -0.00000000 11.60437771
   0.00000000 -0.00000000 19.25970028
   0.00000000 -0.00000000 26.87866327
   0.00000000 -0.00000000 34.53432769
   1.72798889 -0.00000150 16.72098207
   1.72798889 -0.00000150 24.33922392
   1.72798889 -0.00000150 31.95671074
   0.86399315  1.49648257 14.18173547
   0.86399315  1.49648257 21.79912738
   0.86399315  1.49648257 29.41759721
   0.00000000 -0.00000000  1.13134863
   0.00000000 -0.00000000  8.52904204
   1.72798889 -0.00000150  6.01218134
   0.86399315  1.49648257  3.56697352
   0.00000000 -0.00000000 37.60877046
   1.72798889 -0.00000150 42.57105980
   0.86399315  1.49648257 40.12568963
 


--------------------------------------------------------------------------------------------------------


 k-point  1 :   0.0000 0.0000 0.0000  plane waves:    9307
 k-point  2 :   0.0769-0.0000 0.0000  plane waves:    9279
 k-point  3 :   0.1538-0.0000 0.0000  plane waves:    9255
 k-point  4 :   0.2308-0.0000 0.0000  plane waves:    9218
 k-point  5 :   0.3077-0.0000 0.0000  plane waves:    9164
 k-point  6 :   0.3846-0.0000 0.0000  plane waves:    9100
 k-point  7 :   0.4615-0.0000 0.0000  plane waves:    9116
 k-point  8 :   0.0769 0.0769 0.0000  plane waves:    9269
 k-point  9 :   0.1538 0.0769 0.0000  plane waves:    9230
 k-point 10 :   0.2308 0.0769 0.0000  plane waves:    9181
 k-point 11 :   0.3077 0.0769 0.0000  plane waves:    9162
 k-point 12 :   0.3846 0.0769 0.0000  plane waves:    9112
 k-point 13 :   0.4615 0.0769 0.0000  plane waves:    9090
 k-point 14 :   0.1538 0.1538 0.0000  plane waves:    9205
 k-point 15 :   0.2308 0.1538 0.0000  plane waves:    9168
 k-point 16 :   0.3077 0.1538 0.0000  plane waves:    9148
 k-point 17 :   0.3846 0.1538 0.0000  plane waves:    9108
 k-point 18 :   0.2308 0.2308 0.0000  plane waves:    9150
 k-point 19 :   0.3077 0.2308 0.0000  plane waves:    9119
 k-point 20 :   0.3846 0.2308-0.0000  plane waves:    9144
 k-point 21 :   0.3077 0.3077 0.0000  plane waves:    9162

 maximum and minimum number of plane-waves per node :      2337     2258

 maximum number of plane-waves:      9307
 maximum index in each direction: 
   IXMAX=    5   IYMAX=    5   IZMAX=   81
   IXMIN=   -6   IYMIN=   -5   IZMIN=  -81

 NGX is ok and might be reduce to  24
 NGY is ok and might be reduce to  22
 NGZ is ok and might be reduce to 326

 parallel 3D FFT for wavefunctions:
    minimum data exchange during FFTs selected (reduces bandwidth)
 parallel 3D FFT for charge:
    minimum data exchange during FFTs selected (reduces bandwidth)


 total amount of memory used by VASP on root node   152606. kBytes
========================================================================

   base      :      30000. kBytes
   nonl-proj :      16291. kBytes
   fftplans  :      57933. kBytes
   grid      :      23224. kBytes
   one-center:         56. kBytes
   wavefun   :      25102. kBytes
 
     INWAV:  cpu time    0.00: real time    0.00
 Broyden mixing: mesh for mixing (old mesh)
   NGX = 11   NGY = 11   NGZ =163
  (NGX  = 48   NGY  = 48   NGZ  =672)
  gives a total of  19723 points

 initial charge density was supplied:
 charge density of overlapping atoms calculated
 number of electron      95.0000000 magnetization 
 keeping initial charge density in first step


--------------------------------------------------------------------------------------------------------


 Maximum index for augmentation-charges        23276 (set IRDMAX)


--------------------------------------------------------------------------------------------------------


 First call to EWALD:  gamma=   0.254
 Maximum number of real-space cells 7x 7x 1
 Maximum number of reciprocal cells 1x 1x15

 FEWALD executed in parallel
    FEWALD:  cpu time    0.00: real time    0.00


----------------------------------------- Iteration    1(   1)  ---------------------------------------


    POTLOK:  cpu time    0.11: real time    0.11
    SETDIJ:  cpu time    0.11: real time    0.11
     EDDAV:  cpu time    4.38: real time    4.40
       DOS:  cpu time    0.00: real time    0.00
    --------------------------------------------
      LOOP:  cpu time    4.60: real time    4.62

 eigenvalue-minimisations  :  2628
 total energy-change (2. order) : 0.4711328E+03  (-0.4100218E+04)
 number of electron      95.0000000 magnetization 
 augmentation part       95.0000000 magnetization 

 Free energy of the ion-electron system (eV)
  ---------------------------------------------------
  alpha Z        PSCENC =       118.79410306
  Ewald energy   TEWEN  =     16610.32410922
  -Hartree energ DENC   =    -21332.08471789
  -exchange      EXHF   =         0.00000000
  -V(xc)+E(xc)   XCENC  =      -420.25087390
  PAW double counting   =      4235.41334458    -3509.29226066
  entropy T*S    EENTRO =        -0.00545981
  eigenvalues    EBANDS =       271.87488487
  atomic energy  EATOM  =      4496.35971583
  ---------------------------------------------------
  free energy    TOTEN  =       471.13284529 eV

  energy without entropy =      471.13830510  energy(sigma->0) =      471.13557519


--------------------------------------------------------------------------------------------------------




----------------------------------------- Iteration    1(   2)  ---------------------------------------


     EDDAV:  cpu time    5.08: real time    5.08
       DOS:  cpu time    0.00: real time    0.00
    --------------------------------------------
      LOOP:  cpu time    5.08: real time    5.08

 eigenvalue-minimisations  :  3386
 total energy-change (2. order) :-0.5615487E+03  (-0.5312002E+03)
 number of electron      95.0000000 magnetization 
 augmentation part       95.0000000 magnetization 

 Free energy of the ion-electron system (eV)
  ---------------------------------------------------
  alpha Z        PSCENC =       118.79410306
  Ewald energy   TEWEN  =     16610.32410922
  -Hartree energ DENC   =    -21332.08471789
  -exchange      EXHF   =         0.00000000
  -V(xc)+E(xc)   XCENC  =      -420.25087390
  PAW double counting   =      4235.41334458    -3509.29226066
  entropy T*S    EENTRO =        -0.00689207
  eigenvalues    EBANDS =      -289.67238626
  atomic energy  EATOM  =      4496.35971583
  ---------------------------------------------------
  free energy    TOTEN  =       -90.41585810 eV

  energy without entropy =      -90.40896603  energy(sigma->0) =      -90.41241206


--------------------------------------------------------------------------------------------------------




----------------------------------------- Iteration    1(   3)  ---------------------------------------


     EDDAV:  cpu time    4.54: real time    4.54
       DOS:  cpu time    0.00: real time    0.00
    --------------------------------------------
      LOOP:  cpu time    4.54: real time    4.54

 eigenvalue-minimisations  :  3048
 total energy-change (2. order) :-0.5648906E+02  (-0.5613665E+02)
 number of electron      95.0000000 magnetization 
 augmentation part       95.0000000 magnetization 

 Free energy of the ion-electron system (eV)
  ---------------------------------------------------
  alpha Z        PSCENC =       118.79410306
  Ewald energy   TEWEN  =     16610.32410922
  -Hartree energ DENC   =    -21332.08471789
  -exchange      EXHF   =         0.00000000
  -V(xc)+E(xc)   XCENC  =      -420.25087390
  PAW double counting   =      4235.41334458    -3509.29226066
  entropy T*S    EENTRO =        -0.00622654
  eigenvalues    EBANDS =      -346.16210770
  atomic energy  EATOM  =      4496.35971583
  ---------------------------------------------------
  free energy    TOTEN  =      -146.90491401 eV

  energy without entropy =     -146.89868747  energy(sigma->0) =     -146.90180074


--------------------------------------------------------------------------------------------------------




----------------------------------------- Iteration    1(   4)  ---------------------------------------


     EDDAV:  cpu time    4.66: real time    4.67
       DOS:  cpu time    0.00: real time    0.00
    --------------------------------------------
      LOOP:  cpu time    4.66: real time    4.67

 eigenvalue-minimisations  :  3032
 total energy-change (2. order) :-0.7825145E+00  (-0.7801723E+00)
 number of electron      95.0000000 magnetization 
 augmentation part       95.0000000 magnetization 

 Free energy of the ion-electron system (eV)
  ---------------------------------------------------
  alpha Z        PSCENC =       118.79410306
  Ewald energy   TEWEN  =     16610.32410922
  -Hartree energ DENC   =    -21332.08471789
  -exchange      EXHF   =         0.00000000
  -V(xc)+E(xc)   XCENC  =      -420.25087390
  PAW double counting   =      4235.41334458    -3509.29226066
  entropy T*S    EENTRO =        -0.00560916
  eigenvalues    EBANDS =      -346.94523956
  atomic energy  EATOM  =      4496.35971583
  ---------------------------------------------------
  free energy    TOTEN  =      -147.68742849 eV

  energy without entropy =     -147.68181933  energy(sigma->0) =     -147.68462391


--------------------------------------------------------------------------------------------------------




----------------------------------------- Iteration    1(   5)  ---------------------------------------


     EDDAV:  cpu time    4.72: real time    4.72
       DOS:  cpu time    0.00: real time    0.00
    CHARGE:  cpu time    0.40: real time    0.40
    MIXING:  cpu time    0.01: real time    0.01
    --------------------------------------------
      LOOP:  cpu time    5.13: real time    5.13

 eigenvalue-minimisations  :  3066
 total energy-change (2. order) :-0.1306012E-01  (-0.1305349E-01)
 number of electron      95.0000001 magnetization 
 augmentation part        6.9029765 magnetization 

 Broyden mixing:
  rms(total) = 0.21934E+01    rms(broyden)= 0.21930E+01
  rms(prec ) = 0.22528E+01
  weight for this iteration     100.00

 Free energy of the ion-electron system (eV)
  ---------------------------------------------------
  alpha Z        PSCENC =       118.79410306
  Ewald energy   TEWEN  =     16610.32410922
  -Hartree energ DENC   =    -21332.08471789
  -exchange      EXHF   =         0.00000000
  -V(xc)+E(xc)   XCENC  =      -420.25087390
  PAW double counting   =      4235.41334458    -3509.29226066
  entropy T*S    EENTRO =        -0.00558976
  eigenvalues    EBANDS =      -346.95831908
  atomic energy  EATOM  =      4496.35971583
  ---------------------------------------------------
  free energy    TOTEN  =      -147.70048861 eV

  energy without entropy =     -147.69489885  energy(sigma->0) =     -147.69769373


--------------------------------------------------------------------------------------------------------




----------------------------------------- Iteration    1(   6)  ---------------------------------------


    POTLOK:  cpu time    0.11: real time    0.11
    SETDIJ:  cpu time    0.11: real time    0.11
     EDDAV:  cpu time    4.59: real time    4.59
       DOS:  cpu time    0.00: real time    0.00
    CHARGE:  cpu time    0.38: real time    0.38
    MIXING:  cpu time    0.00: real time    0.00
    --------------------------------------------
      LOOP:  cpu time    5.19: real time    5.19

 eigenvalue-minimisations  :  2960
 total energy-change (2. order) : 0.1475837E+02  (-0.8445714E+01)
 number of electron      95.0000001 magnetization 
 augmentation part        5.5605230 magnetization 

 Broyden mixing:
  rms(total) = 0.74938E+00    rms(broyden)= 0.74849E+00
  rms(prec ) = 0.75635E+00
  weight for this iteration     100.00

 eigenvalues of (default mixing * dielectric matrix)
  average eigenvalue GAMMA=   0.8340
  0.8340

 Free energy of the ion-electron system (eV)
  ---------------------------------------------------
  alpha Z        PSCENC =       118.79410306
  Ewald energy   TEWEN  =     16610.32410922
  -Hartree energ DENC   =    -21505.45477520
  -exchange      EXHF   =         0.00000000
  -V(xc)+E(xc)   XCENC  =      -408.07380815
  PAW double counting   =      4999.24661210    -4276.22098263
  entropy T*S    EENTRO =        -0.00470082
  eigenvalues    EBANDS =      -167.91239416
  atomic energy  EATOM  =      4496.35971583
  ---------------------------------------------------
  free energy    TOTEN  =      -132.94212075 eV

  energy without entropy =     -132.93741993  energy(sigma->0) =     -132.93977034


--------------------------------------------------------------------------------------------------------




----------------------------------------- Iteration    1(   7)  ---------------------------------------


    POTLOK:  cpu time    0.11: real time    0.11
    SETDIJ:  cpu time    0.10: real time    0.10
     EDDAV:  cpu time    4.54: real time    4.55
       DOS:  cpu time    0.00: real time    0.00
    CHARGE:  cpu time    0.37: real time    0.37
    MIXING:  cpu time    0.01: real time    0.01
    --------------------------------------------
      LOOP:  cpu time    5.13: real time    5.14

 eigenvalue-minimisations  :  2860
 total energy-change (2. order) : 0.1634753E+00  (-0.1475709E+00)
 number of electron      95.0000001 magnetization 
 augmentation part        5.6128797 magnetization 

 Broyden mixing:
  rms(total) = 0.45092E+00    rms(broyden)= 0.45091E+00
  rms(prec ) = 0.45563E+00
  weight for this iteration     100.00

 eigenvalues of (default mixing * dielectric matrix)
  average eigenvalue GAMMA=   1.6508
  0.9633  2.3383

 Free energy of the ion-electron system (eV)
  ---------------------------------------------------
  alpha Z        PSCENC =       118.79410306
  Ewald energy   TEWEN  =     16610.32410922
  -Hartree energ DENC   =    -21502.27387804
  -exchange      EXHF   =         0.00000000
  -V(xc)+E(xc)   XCENC  =      -407.82227720
  PAW double counting   =      5251.42424385    -4527.93901081
  entropy T*S    EENTRO =        -0.00373455
  eigenvalues    EBANDS =      -171.64191679
  atomic energy  EATOM  =      4496.35971583
  ---------------------------------------------------
  free energy    TOTEN  =      -132.77864544 eV

  energy without entropy =     -132.77491088  energy(sigma->0) =     -132.77677816


--------------------------------------------------------------------------------------------------------




----------------------------------------- Iteration    1(   8)  ---------------------------------------


    POTLOK:  cpu time    0.10: real time    0.10
    SETDIJ:  cpu time    0.10: real time    0.10
     EDDAV:  cpu time    4.77: real time    4.78
       DOS:  cpu time    0.00: real time    0.00
    CHARGE:  cpu time    0.38: real time    0.38
    MIXING:  cpu time    0.00: real time    0.00
    --------------------------------------------
      LOOP:  cpu time    5.36: real time    5.37

 eigenvalue-minimisations  :  3050
 total energy-change (2. order) : 0.9668842E-01  (-0.4606107E-01)
 number of electron      95.0000001 magnetization 
 augmentation part        5.6537488 magnetization 

 Broyden mixing:
  rms(total) = 0.74813E-01    rms(broyden)= 0.74773E-01
  rms(prec ) = 0.91026E-01
  weight for this iteration     100.00

 eigenvalues of (default mixing * dielectric matrix)
  average eigenvalue GAMMA=   1.3804
  2.4370  0.9059  0.7983

 Free energy of the ion-electron system (eV)
  ---------------------------------------------------
  alpha Z        PSCENC =       118.79410306
  Ewald energy   TEWEN  =     16610.32410922
  -Hartree energ DENC   =    -21508.33290774
  -exchange      EXHF   =         0.00000000
  -V(xc)+E(xc)   XCENC  =      -406.38993723
  PAW double counting   =      5705.74601040    -4981.93512971
  entropy T*S    EENTRO =        -0.00540821
  eigenvalues    EBANDS =      -167.24251265
  atomic energy  EATOM  =      4496.35971583
  ---------------------------------------------------
  free energy    TOTEN  =      -132.68195702 eV

  energy without entropy =     -132.67654881  energy(sigma->0) =     -132.67925292


--------------------------------------------------------------------------------------------------------




----------------------------------------- Iteration    1(   9)  ---------------------------------------


    POTLOK:  cpu time    0.10: real time    0.10
    SETDIJ:  cpu time    0.10: real time    0.10
     EDDAV:  cpu time    4.68: real time    4.69
       DOS:  cpu time    0.00: real time    0.00
    CHARGE:  cpu time    0.38: real time    0.38
    MIXING:  cpu time    0.01: real time    0.01
    --------------------------------------------
      LOOP:  cpu time    5.28: real time    5.29

 eigenvalue-minimisations  :  2982
 total energy-change (2. order) : 0.1897414E-01  (-0.7619918E-02)
 number of electron      95.0000001 magnetization 
 augmentation part        5.6367855 magnetization 

 Broyden mixing:
  rms(total) = 0.43277E-01    rms(broyden)= 0.43277E-01
  rms(prec ) = 0.43939E-01
  weight for this iteration     100.00

 eigenvalues of (default mixing * dielectric matrix)
  average eigenvalue GAMMA=   1.4739
  2.5002  0.9047  0.9047  1.5857

 Free energy of the ion-electron system (eV)
  ---------------------------------------------------
  alpha Z        PSCENC =       118.79410306
  Ewald energy   TEWEN  =     16610.32410922
  -Hartree energ DENC   =    -21511.61381716
  -exchange      EXHF   =         0.00000000
  -V(xc)+E(xc)   XCENC  =      -406.07401168
  PAW double counting   =      5724.33899780    -5000.56210300
  entropy T*S    EENTRO =        -0.00445827
  eigenvalues    EBANDS =      -164.22551868
  atomic energy  EATOM  =      4496.35971583
  ---------------------------------------------------
  free energy    TOTEN  =      -132.66298288 eV

  energy without entropy =     -132.65852461  energy(sigma->0) =     -132.66075375


--------------------------------------------------------------------------------------------------------




----------------------------------------- Iteration    1(  10)  ---------------------------------------


    POTLOK:  cpu time    0.11: real time    0.11
    SETDIJ:  cpu time    0.10: real time    0.10
     EDDAV:  cpu time    4.66: real time    4.67
       DOS:  cpu time    0.00: real time    0.00
    CHARGE:  cpu time    0.38: real time    0.38
    MIXING:  cpu time    0.01: real time    0.01
    --------------------------------------------
      LOOP:  cpu time    5.26: real time    5.26

 eigenvalue-minimisations  :  2982
 total energy-change (2. order) :-0.1060447E-02  (-0.3936218E-02)
 number of electron      95.0000001 magnetization 
 augmentation part        5.6175911 magnetization 

 Broyden mixing:
  rms(total) = 0.27026E-01    rms(broyden)= 0.27007E-01
  rms(prec ) = 0.27450E-01
  weight for this iteration     100.00

 eigenvalues of (default mixing * dielectric matrix)
  average eigenvalue GAMMA=   1.2927
  2.5139  1.7517  0.8869  0.8869  0.4243

 Free energy of the ion-electron system (eV)
  ---------------------------------------------------
  alpha Z        PSCENC =       118.79410306
  Ewald energy   TEWEN  =     16610.32410922
  -Hartree energ DENC   =    -21513.56352443
  -exchange      EXHF   =         0.00000000
  -V(xc)+E(xc)   XCENC  =      -405.87945772
  PAW double counting   =      5707.04153541    -4983.30089777
  entropy T*S    EENTRO =        -0.00424506
  eigenvalues    EBANDS =      -162.43538187
  atomic energy  EATOM  =      4496.35971583
  ---------------------------------------------------
  free energy    TOTEN  =      -132.66404333 eV

  energy without entropy =     -132.65979827  energy(sigma->0) =     -132.66192080


--------------------------------------------------------------------------------------------------------




----------------------------------------- Iteration    1(  11)  ---------------------------------------


    POTLOK:  cpu time    0.11: real time    0.11
    SETDIJ:  cpu time    0.11: real time    0.11
     EDDAV:  cpu time    4.77: real time    4.78
       DOS:  cpu time    0.00: real time    0.00
    CHARGE:  cpu time    0.37: real time    0.38
    MIXING:  cpu time    0.01: real time    0.01
    --------------------------------------------
      LOOP:  cpu time    5.38: real time    5.39

 eigenvalue-minimisations  :  3028
 total energy-change (2. order) : 0.2220797E-03  (-0.3221510E-03)
 number of electron      95.0000001 magnetization 
 augmentation part        5.6222454 magnetization 

 Broyden mixing:
  rms(total) = 0.16734E-01    rms(broyden)= 0.16734E-01
  rms(prec ) = 0.16971E-01
  weight for this iteration     100.00

 eigenvalues of (default mixing * dielectric matrix)
  average eigenvalue GAMMA=   1.4417
  2.7927  2.2923  0.9385  0.9385  0.9981  0.6902

 Free energy of the ion-electron system (eV)
  ---------------------------------------------------
  alpha Z        PSCENC =       118.79410306
  Ewald energy   TEWEN  =     16610.32410922
  -Hartree energ DENC   =    -21513.10663384
  -exchange      EXHF   =         0.00000000
  -V(xc)+E(xc)   XCENC  =      -405.88365094
  PAW double counting   =      5691.40522502    -4967.66153037
  entropy T*S    EENTRO =        -0.00430856
  eigenvalues    EBANDS =      -162.89085066
  atomic energy  EATOM  =      4496.35971583
  ---------------------------------------------------
  free energy    TOTEN  =      -132.66382125 eV

  energy without entropy =     -132.65951269  energy(sigma->0) =     -132.66166697


--------------------------------------------------------------------------------------------------------




----------------------------------------- Iteration    1(  12)  ---------------------------------------


    POTLOK:  cpu time    0.10: real time    0.10
    SETDIJ:  cpu time    0.10: real time    0.10
     EDDAV:  cpu time    5.13: real time    5.14
       DOS:  cpu time    0.00: real time    0.00
    CHARGE:  cpu time    0.37: real time    0.37
    MIXING:  cpu time    0.01: real time    0.01
    --------------------------------------------
      LOOP:  cpu time    5.72: real time    5.72

 eigenvalue-minimisations  :  3378
 total energy-change (2. order) :-0.1964353E-03  (-0.3588870E-03)
 number of electron      95.0000001 magnetization 
 augmentation part        5.6226627 magnetization 

 Broyden mixing:
  rms(total) = 0.65170E-02    rms(broyden)= 0.65096E-02
  rms(prec ) = 0.66878E-02
  weight for this iteration     100.00

 eigenvalues of (default mixing * dielectric matrix)
  average eigenvalue GAMMA=   1.3826
  2.9288  2.4779  0.8938  0.8938  0.9224  0.9224  0.6395

 Free energy of the ion-electron system (eV)
  ---------------------------------------------------
  alpha Z        PSCENC =       118.79410306
  Ewald energy   TEWEN  =     16610.32410922
  -Hartree energ DENC   =    -21513.11055268
  -exchange      EXHF   =         0.00000000
  -V(xc)+E(xc)   XCENC  =      -405.84137165
  PAW double counting   =      5666.43981003    -4942.71128680
  entropy T*S    EENTRO =        -0.00436061
  eigenvalues    EBANDS =      -162.91418407
  atomic energy  EATOM  =      4496.35971583
  ---------------------------------------------------
  free energy    TOTEN  =      -132.66401768 eV

  energy without entropy =     -132.65965707  energy(sigma->0) =     -132.66183738


--------------------------------------------------------------------------------------------------------




----------------------------------------- Iteration    1(  13)  ---------------------------------------


    POTLOK:  cpu time    0.10: real time    0.10
    SETDIJ:  cpu time    0.10: real time    0.10
     EDDAV:  cpu time    4.66: real time    4.67
       DOS:  cpu time    0.00: real time    0.00
    CHARGE:  cpu time    0.38: real time    0.39
    MIXING:  cpu time    0.01: real time    0.01
    --------------------------------------------
      LOOP:  cpu time    5.25: real time    5.26

 eigenvalue-minimisations  :  2974
 total energy-change (2. order) : 0.2388534E-04  (-0.7346872E-04)
 number of electron      95.0000001 magnetization 
 augmentation part        5.6242808 magnetization 

 Broyden mixing:
  rms(total) = 0.49376E-02    rms(broyden)= 0.49369E-02
  rms(prec ) = 0.50572E-02
  weight for this iteration     100.00

 eigenvalues of (default mixing * dielectric matrix)
  average eigenvalue GAMMA=   1.3539
  2.9342  2.5548  0.9376  0.9376  1.0347  1.0347  0.6989  0.6989

 Free energy of the ion-electron system (eV)
  ---------------------------------------------------
  alpha Z        PSCENC =       118.79410306
  Ewald energy   TEWEN  =     16610.32410922
  -Hartree energ DENC   =    -21512.82656136
  -exchange      EXHF   =         0.00000000
  -V(xc)+E(xc)   XCENC  =      -405.85625421
  PAW double counting   =      5660.58468362    -4936.85440445
  entropy T*S    EENTRO =        -0.00437843
  eigenvalues    EBANDS =      -163.18500708
  atomic energy  EATOM  =      4496.35971583
  ---------------------------------------------------
  free energy    TOTEN  =      -132.66399380 eV

  energy without entropy =     -132.65961537  energy(sigma->0) =     -132.66180458


--------------------------------------------------------------------------------------------------------




----------------------------------------- Iteration    1(  14)  ---------------------------------------


    POTLOK:  cpu time    0.11: real time    0.11
    SETDIJ:  cpu time    0.13: real time    0.13
     EDDAV:  cpu time    4.61: real time    4.62
       DOS:  cpu time    0.00: real time    0.00
    CHARGE:  cpu time    0.38: real time    0.38
    MIXING:  cpu time    0.01: real time    0.01
    --------------------------------------------
      LOOP:  cpu time    5.24: real time    5.24

 eigenvalue-minimisations  :  2932
 total energy-change (2. order) : 0.3835055E-04  (-0.2302377E-04)
 number of electron      95.0000001 magnetization 
 augmentation part        5.6248708 magnetization 

 Broyden mixing:
  rms(total) = 0.19138E-02    rms(broyden)= 0.19123E-02
  rms(prec ) = 0.20145E-02
  weight for this iteration     100.00

 eigenvalues of (default mixing * dielectric matrix)
  average eigenvalue GAMMA=   1.3839
  2.9298  2.4128  1.7189  0.9041  0.9041  1.0128  1.0128  0.8952  0.6644

 Free energy of the ion-electron system (eV)
  ---------------------------------------------------
  alpha Z        PSCENC =       118.79410306
  Ewald energy   TEWEN  =     16610.32410922
  -Hartree energ DENC   =    -21512.70833519
  -exchange      EXHF   =         0.00000000
  -V(xc)+E(xc)   XCENC  =      -405.86239939
  PAW double counting   =      5659.07398435    -4935.34178804
  entropy T*S    EENTRO =        -0.00438242
  eigenvalues    EBANDS =      -163.29896287
  atomic energy  EATOM  =      4496.35971583
  ---------------------------------------------------
  free energy    TOTEN  =      -132.66395545 eV

  energy without entropy =     -132.65957303  energy(sigma->0) =     -132.66176424


--------------------------------------------------------------------------------------------------------




----------------------------------------- Iteration    1(  15)  ---------------------------------------


    POTLOK:  cpu time    0.10: real time    0.10
    SETDIJ:  cpu time    0.10: real time    0.10
     EDDAV:  cpu time    4.56: real time    4.56
       DOS:  cpu time    0.00: real time    0.00
    CHARGE:  cpu time    0.38: real time    0.38
    MIXING:  cpu time    0.01: real time    0.01
    --------------------------------------------
      LOOP:  cpu time    5.15: real time    5.16

 eigenvalue-minimisations  :  2892
 total energy-change (2. order) : 0.1079816E-04  (-0.7741668E-05)
 number of electron      95.0000001 magnetization 
 augmentation part        5.6240803 magnetization 

 Broyden mixing:
  rms(total) = 0.62143E-03    rms(broyden)= 0.62025E-03
  rms(prec ) = 0.80764E-03
  weight for this iteration     100.00

 eigenvalues of (default mixing * dielectric matrix)
  average eigenvalue GAMMA=   1.3793
  2.9146  2.3328  2.3328  0.9248  0.9248  1.0477  0.9697  0.6819  0.8318  0.8318

 Free energy of the ion-electron system (eV)
  ---------------------------------------------------
  alpha Z        PSCENC =       118.79410306
  Ewald energy   TEWEN  =     16610.32410922
  -Hartree energ DENC   =    -21512.76592287
  -exchange      EXHF   =         0.00000000
  -V(xc)+E(xc)   XCENC  =      -405.85613889
  PAW double counting   =      5660.13205649    -4936.40033700
  entropy T*S    EENTRO =        -0.00438538
  eigenvalues    EBANDS =      -163.24714510
  atomic energy  EATOM  =      4496.35971583
  ---------------------------------------------------
  free energy    TOTEN  =      -132.66394465 eV

  energy without entropy =     -132.65955926  energy(sigma->0) =     -132.66175196


--------------------------------------------------------------------------------------------------------




----------------------------------------- Iteration    1(  16)  ---------------------------------------


    POTLOK:  cpu time    0.11: real time    0.11
    SETDIJ:  cpu time    0.10: real time    0.10
     EDDAV:  cpu time    3.23: real time    3.23
       DOS:  cpu time    0.00: real time    0.00
    --------------------------------------------
      LOOP:  cpu time    3.44: real time    3.44

 eigenvalue-minimisations  :  1706
 total energy-change (2. order) : 0.2472529E-05  (-0.6949840E-06)
 number of electron      95.0000001 magnetization 
 augmentation part        5.6240803 magnetization 

 Free energy of the ion-electron system (eV)
  ---------------------------------------------------
  alpha Z        PSCENC =       118.79410306
  Ewald energy   TEWEN  =     16610.32410922
  -Hartree energ DENC   =    -21512.73624468
  -exchange      EXHF   =         0.00000000
  -V(xc)+E(xc)   XCENC  =      -405.85652977
  PAW double counting   =      5660.09489527    -4936.36293159
  entropy T*S    EENTRO =        -0.00438868
  eigenvalues    EBANDS =      -163.27667083
  atomic energy  EATOM  =      4496.35971583
  ---------------------------------------------------
  free energy    TOTEN  =      -132.66394218 eV

  energy without entropy =     -132.65955350  energy(sigma->0) =     -132.66174784


--------------------------------------------------------------------------------------------------------




 average (electrostatic) potential at core
  the test charge radii are     0.7215  1.0714  1.0406
  (the norm of the test charge is              1.0000)
       1 -70.3642       2 -70.3596       3 -70.3581       4 -70.3615       5 -70.3689
       6 -70.4676       7 -70.4672       8 -70.3586       9 -70.3639      10 -36.2560
      11 -36.0216      12 -36.0254      13 -36.2559      14 -36.0231      15 -36.0245
      16 -36.0464      17 -36.0441      18 -36.0229      19 -36.0285      20 -74.7023
      21 -74.7314      22 -74.6907      23 -74.6337      24 -74.7317      25 -74.6339
      26 -74.6912
 
 
 
 E-fermi :   6.1450     XC(G=0): -10.1236     alpha+bet :-12.0516


 k-point     1 :       0.0000    0.0000    0.0000
  band No.  band energies     occupation 
      1     -14.5912      2.00000
      2     -14.5318      2.00000
      3     -14.4302      2.00000
      4     -14.2954      2.00000
      5     -14.1355      2.00000
      6     -13.9659      2.00000
      7     -13.8034      2.00000
      8     -13.6675      2.00000
      9     -13.5737      2.00000
     10      -3.9429      2.00000
     11      -3.5698      2.00000
     12      -3.0460      2.00000
     13      -2.3657      2.00000
     14      -2.0812      2.00000
     15      -1.9367      2.00000
     16      -1.6002      2.00000
     17      -1.5322      2.00000
     18      -1.0975      2.00000
     19      -0.7334      2.00000
     20      -0.2904      2.00000
     21      -0.0157      2.00000
     22       0.7186      2.00000
     23       0.8362      2.00000
     24       1.4561      2.00000
     25       1.8881      2.00000
     26       1.9638      2.00000
     27       1.9638      2.00000
     28       1.9935      2.00000
     29       1.9935      2.00000
     30       2.0466      2.00000
     31       2.0466      2.00000
     32       2.1158      2.00000
     33       2.1158      2.00000
     34       2.1972      2.00000
     35       2.1972      2.00000
     36       2.2645      2.00000
     37       2.2814      2.00000
     38       2.2814      2.00000
     39       2.3612      2.00000
     40       2.3612      2.00000
     41       2.4263      2.00000
     42       2.4263      2.00000
     43       2.4723      2.00000
     44       2.4723      2.00000
     45       3.1738      2.00000
     46       4.1536      2.00000
     47       5.3157      2.00000
     48       6.5612      0.00000
     49       6.7953      0.00000
     50       7.4742      0.00000
     51       7.6926      0.00000
     52       8.5095      0.00000
     53       8.6342      0.00000
     54       9.4656      0.00000
     55       9.4792      0.00000
     56      10.0159      0.00000
     57      10.0847      0.00000
     58      10.2250      0.00000
     59      11.1280      0.00000
     60      12.6487      0.00000
     61      13.9234      0.00000
     62      13.9401      0.00000

 k-point     2 :       0.0769   -0.0000    0.0000
  band No.  band energies     occupation 
      1     -14.5387      2.00000
      2     -14.4809      2.00000
      3     -14.3818      2.00000
      4     -14.2503      2.00000
      5     -14.0944      2.00000
      6     -13.9294      2.00000
      7     -13.7713      2.00000
      8     -13.6393      2.00000
      9     -13.5484      2.00000
     10      -3.8127      2.00000
     11      -3.4398      2.00000
     12      -2.9165      2.00000
     13      -2.2388      2.00000
     14      -1.9990      2.00000
     15      -1.8562      2.00000
     16      -1.5324      2.00000
     17      -1.4208      2.00000
     18      -1.0383      2.00000
     19      -0.6808      2.00000
     20      -0.2022      2.00000
     21      -0.0141      2.00000
     22       0.6731      2.00000
     23       0.9093      2.00000
     24       1.3779      2.00000
     25       1.7274      2.00000
     26       1.7439      2.00000
     27       1.7706      2.00000
     28       1.8361      2.00000
     29       1.9127      2.00000
     30       1.9199      2.00000
     31       1.9499      2.00000
     32       2.0034      2.00000
     33       2.0079      2.00000
     34       2.0730      2.00000
     35       2.0732      2.00000
     36       2.1348      2.00000
     37       2.1553      2.00000
     38       2.1983      2.00000
     39       2.2393      2.00000
     40       2.2404      2.00000
     41       2.3208      2.00000
     42       2.3590      2.00000
     43       2.3866      2.00000
     44       2.4329      2.00000
     45       3.3045      2.00000
     46       4.2924      2.00000
     47       5.4700      2.00000
     48       6.7527      0.00000
     49       7.1228      0.00000
     50       7.7155      0.00000
     51       7.9171      0.00000
     52       8.6921      0.00000
     53       8.8467      0.00000
     54       9.6836      0.00000
     55       9.6866      0.00000
     56      10.2759      0.00000
     57      10.3286      0.00000
     58      10.4887      0.00000
     59      11.2531      0.00000
     60      12.6844      0.00000
     61      13.8514      0.00000
     62      13.8937      0.00000

 k-point     3 :       0.1538   -0.0000    0.0000
  band No.  band energies     occupation 
      1     -14.3884      2.00000
      2     -14.3352      2.00000
      3     -14.2436      2.00000
      4     -14.1221      2.00000
      5     -13.9783      2.00000
      6     -13.8267      2.00000
      7     -13.6818      2.00000
      8     -13.5612      2.00000
      9     -13.4782      2.00000
     10      -3.4226      2.00000
     11      -3.0505      2.00000
     12      -2.5287      2.00000
     13      -1.8661      2.00000
     14      -1.7557      2.00000
     15      -1.6300      2.00000
     16      -1.3452      2.00000
     17      -1.1275      2.00000
     18      -0.8451      2.00000
     19      -0.5929      2.00000
     20      -0.0718      2.00000
     21       0.0624      2.00000
     22       0.4803      2.00000
     23       0.7783      2.00000
     24       1.0993      2.00000
     25       1.1540      2.00000
     26       1.2041      2.00000
     27       1.2543      2.00000
     28       1.3381      2.00000
     29       1.3880      2.00000
     30       1.5285      2.00000
     31       1.6495      2.00000
     32       1.8014      2.00000
     33       1.8078      2.00000
     34       1.8321      2.00000
     35       1.8867      2.00000
     36       1.9379      2.00000
     37       1.9581      2.00000
     38       2.0419      2.00000
     39       2.0421      2.00000
     40       2.1288      2.00000
     41       2.2110      2.00000
     42       2.2782      2.00000
     43       2.3256      2.00000
     44       2.6525      2.00000
     45       3.6400      2.00000
     46       4.6517      2.00000
     47       5.8601      2.00000
     48       7.2042      0.00000
     49       7.8866      0.00000
     50       8.3243      0.00000
     51       8.4691      0.00000
     52       9.1396      0.00000
     53       9.3761      0.00000
     54      10.1858      0.00000
     55      10.1939      0.00000
     56      10.8755      0.00000
     57      10.9268      0.00000
     58      11.1663      0.00000
     59      11.2483      0.00000
     60      11.4438      0.00000
     61      11.7683      0.00000
     62      11.9457      0.00000

 k-point     4 :       0.2308   -0.0000    0.0000
  band No.  band energies     occupation 
      1     -14.1619      2.00000
      2     -14.1164      2.00000
      3     -14.0372      2.00000
      4     -13.9322      2.00000
      5     -13.8081      2.00000
      6     -13.6779      2.00000
      7     -13.5541      2.00000
      8     -13.4516      2.00000
      9     -13.3809      2.00000
     10      -2.7746      2.00000
     11      -2.4038      2.00000
     12      -1.8853      2.00000
     13      -1.4238      2.00000
     14      -1.3137      2.00000
     15      -1.2358      2.00000
     16      -1.0845      2.00000
     17      -0.9139      2.00000
     18      -0.6370      2.00000
     19      -0.4699      2.00000
     20      -0.2592      2.00000
     21      -0.1035      2.00000
     22       0.1080      2.00000
     23       0.2833      2.00000
     24       0.3896      2.00000
     25       0.4380      2.00000
     26       0.5976      2.00000
     27       0.7165      2.00000
     28       0.8882      2.00000
     29       1.0910      2.00000
     30       1.3535      2.00000
     31       1.5818      2.00000
     32       1.6419      2.00000
     33       1.6733      2.00000
     34       1.7292      2.00000
     35       1.7441      2.00000
     36       1.8021      2.00000
     37       1.8878      2.00000
     38       1.9040      2.00000
     39       1.9767      2.00000
     40       2.0004      2.00000
     41       2.0608      2.00000
     42       2.1297      2.00000
     43       2.1782      2.00000
     44       3.1871      2.00000
     45       4.1790      2.00000
     46       5.1996      2.00000
     47       6.4226      0.00000
     48       7.7555      0.00000
     49       8.6005      0.00000
     50       8.7981      0.00000
     51       8.9929      0.00000
     52       9.0271      0.00000
     53       9.2945      0.00000
     54       9.5216      0.00000
     55       9.6713      0.00000
     56      10.0513      0.00000
     57      10.1584      0.00000
     58      10.6785      0.00000
     59      10.8698      0.00000
     60      10.9641      0.00000
     61      11.5098      0.00000
     62      11.6740      0.00000

 k-point     5 :       0.3077   -0.0000    0.0000
  band No.  band energies     occupation 
      1     -13.8956      2.00000
      2     -13.8606      2.00000
      3     -13.7983      2.00000
      4     -13.7156      2.00000
      5     -13.6179      2.00000
      6     -13.5160      2.00000
      7     -13.4194      2.00000
      8     -13.3400      2.00000
      9     -13.2848      2.00000
     10      -1.8720      2.00000
     11      -1.5036      2.00000
     12      -1.1578      2.00000
     13      -1.0890      2.00000
     14      -1.0595      2.00000
     15      -1.0138      2.00000
     16      -0.9786      2.00000
     17      -0.9190      2.00000
     18      -0.8232      2.00000
     19      -0.6550      2.00000
     20      -0.5613      2.00000
     21      -0.4334      2.00000
     22      -0.3753      2.00000
     23      -0.2694      2.00000
     24      -0.0809      2.00000
     25       0.2124      2.00000
     26       0.5518      2.00000
     27       0.6419      2.00000
     28       0.9530      2.00000
     29       1.2366      2.00000
     30       1.4093      2.00000
     31       1.4811      2.00000
     32       1.5130      2.00000
     33       1.5634      2.00000
     34       1.5698      2.00000
     35       1.6439      2.00000
     36       1.6683      2.00000
     37       1.7310      2.00000
     38       1.7694      2.00000
     39       1.8215      2.00000
     40       1.9071      2.00000
     41       1.9774      2.00000
     42       2.0267      2.00000
     43       2.7992      2.00000
     44       3.9559      2.00000
     45       4.9196      2.00000
     46       5.8576      2.00000
     47       6.2876      0.00005
     48       6.7101      0.00000
     49       7.2033      0.00000
     50       7.3037      0.00000
     51       7.8447      0.00000
     52       8.5421      0.00000
     53       8.6786      0.00000
     54       9.4741      0.00000
     55       9.5703      0.00000
     56       9.7008      0.00000
     57      10.0129      0.00000
     58      10.1786      0.00000
     59      10.6570      0.00000
     60      10.7614      0.00000
     61      10.9668      0.00000
     62      11.4863      0.00000

 k-point     6 :       0.3846   -0.0000    0.0000
  band No.  band energies     occupation 
      1     -13.6389      2.00000
      2     -13.6172      2.00000
      3     -13.5753      2.00000
      4     -13.5191      2.00000
      5     -13.4520      2.00000
      6     -13.3822      2.00000
      7     -13.3161      2.00000
      8     -13.2620      2.00000
      9     -13.2238      2.00000
     10      -1.5732      2.00000
     11      -1.4733      2.00000
     12      -1.3147      2.00000
     13      -1.2847      2.00000
     14      -1.1910      2.00000
     15      -1.1239      2.00000
     16      -1.0510      2.00000
     17      -0.9455      2.00000
     18      -0.9265      2.00000
     19      -0.7186      2.00000
     20      -0.3535      2.00000
     21      -0.2830      2.00000
     22      -0.0241      2.00000
     23       0.1630      2.00000
     24       0.3350      2.00000
     25       0.6644      2.00000
     26       0.8668      2.00000
     27       0.9777      2.00000
     28       1.1118      2.00000
     29       1.1910      2.00000
     30       1.3536      2.00000
     31       1.3859      2.00000
     32       1.4242      2.00000
     33       1.4431      2.00000
     34       1.5179      2.00000
     35       1.6059      2.00000
     36       1.6389      2.00000
     37       1.6973      2.00000
     38       1.7179      2.00000
     39       1.7839      2.00000
     40       1.8549      2.00000
     41       1.9048      2.00000
     42       2.7235      2.00000
     43       3.8475      2.00000
     44       4.1689      2.00000
     45       4.5034      2.00000
     46       4.8672      2.00000
     47       5.1984      2.00000
     48       5.8127      2.00000
     49       5.9930      1.99998
     50       6.5896      0.00000
     51       6.9505      0.00000
     52       7.5183      0.00000
     53       8.1022      0.00000
     54       8.5963      0.00000
     55       9.2139      0.00000
     56       9.7926      0.00000
     57       9.8874      0.00000
     58      10.1742      0.00000
     59      10.3357      0.00000
     60      10.8336      0.00000
     61      10.9422      0.00000
     62      11.2103      0.00000

 k-point     7 :       0.4615   -0.0000    0.0000
  band No.  band energies     occupation 
      1     -13.4567      2.00000
      2     -13.4485      2.00000
      3     -13.4259      2.00000
      4     -13.3945      2.00000
      5     -13.3555      2.00000
      6     -13.3144      2.00000
      7     -13.2744      2.00000
      8     -13.2413      2.00000
      9     -13.2167      2.00000
     10      -1.8778      2.00000
     11      -1.7761      2.00000
     12      -1.6155      2.00000
     13      -1.4348      2.00000
     14      -1.4297      2.00000
     15      -1.3516      2.00000
     16      -1.2856      2.00000
     17      -1.2228      2.00000
     18      -1.1904      2.00000
     19       0.2191      2.00000
     20       0.3519      2.00000
     21       0.5590      2.00000
     22       0.6796      2.00000
     23       0.7517      2.00000
     24       0.7750      2.00000
     25       0.9257      2.00000
     26       1.0177      2.00000
     27       1.0514      2.00000
     28       1.2837      2.00000
     29       1.3162      2.00000
     30       1.3275      2.00000
     31       1.3736      2.00000
     32       1.4487      2.00000
     33       1.5371      2.00000
     34       1.5552      2.00000
     35       1.5699      2.00000
     36       1.6289      2.00000
     37       1.7159      2.00000
     38       1.7873      2.00000
     39       1.8374      2.00000
     40       2.2228      2.00000
     41       2.3311      2.00000
     42       2.6809      2.00000
     43       3.0363      2.00000
     44       3.1981      2.00000
     45       3.8240      2.00000
     46       4.1224      2.00000
     47       4.7100      2.00000
     48       5.2955      2.00000
     49       5.7111      2.00000
     50       6.3014      0.00001
     51       6.7941      0.00000
     52       7.0857      0.00000
     53       7.7043      0.00000
     54       8.0559      0.00000
     55       8.6673      0.00000
     56       9.3492      0.00000
     57       9.7925      0.00000
     58      10.0334      0.00000
     59      10.3654      0.00000
     60      10.6721      0.00000
     61      10.9643      0.00000
     62      11.0235      0.00000

 k-point     8 :       0.0769    0.0769    0.0000
  band No.  band energies     occupation 
      1     -14.4373      2.00000
      2     -14.3826      2.00000
      3     -14.2884      2.00000
      4     -14.1636      2.00000
      5     -14.0159      2.00000
      6     -13.8598      2.00000
      7     -13.7106      2.00000
      8     -13.5862      2.00000
      9     -13.5005      2.00000
[...]
     45       5.8876      2.00000
     46       5.9770      1.99998
     47       6.0884      1.75915
     48       6.3612      0.00000
     49       6.5529      0.00000
     50       6.9748      0.00000
     51       7.0097      0.00000
     52       7.3027      0.00000
     53       7.5492      0.00000
     54       7.6615      0.00000
     55       8.2625      0.00000
     56       8.3509      0.00000
     57       8.6205      0.00000
     58       9.1831      0.00000
     59       9.5937      0.00000
     60       9.7816      0.00000
     61      10.2678      0.00000
     62      10.6116      0.00000

 k-point    19 :       0.3077    0.2308    0.0000
  band No.  band energies     occupation 
      1     -13.4415      2.00000
      2     -13.4339      2.00000
      3     -13.4126      2.00000
      4     -13.3797      2.00000
      5     -13.3436      2.00000
      6     -13.3020      2.00000
      7     -13.2663      2.00000
      8     -13.2338      2.00000
      9     -13.2130      2.00000
     10      -1.3736      2.00000
     11      -1.2835      2.00000
     12      -1.1556      2.00000
     13      -1.1386      2.00000
     14      -1.0877      2.00000
     15      -1.0329      2.00000
     16      -0.9812      2.00000
     17      -0.8367      2.00000
     18      -0.6856      2.00000
     19      -0.2704      2.00000
     20      -0.1181      2.00000
     21       0.0347      2.00000
     22       0.2096      2.00000
     23       0.3199      2.00000
     24       0.3953      2.00000
     25       0.4209      2.00000
     26       0.5150      2.00000
     27       0.6418      2.00000
     28       0.7276      2.00000
     29       0.7861      2.00000
     30       0.8018      2.00000
     31       0.9205      2.00000
     32       1.0757      2.00000
     33       1.1768      2.00000
     34       1.1903      2.00000
     35       1.2548      2.00000
     36       1.3520      2.00000
     37       1.4457      2.00000
     38       1.5548      2.00000
     39       1.7163      2.00000
     40       2.3935      2.00000
     41       3.1995      2.00000
     42       4.0470      2.00000
     43       4.1654      2.00000
     44       4.4265      2.00000
     45       4.9161      2.00000
     46       5.3071      2.00000
     47       5.6338      2.00000
     48       5.6813      2.00000
     49       5.9819      1.99997
     50       6.3441      0.00000
     51       6.4669      0.00000
     52       6.7070      0.00000
     53       7.1930      0.00000
     54       7.3625      0.00000
     55       7.5264      0.00000
     56       8.0766      0.00000
     57       8.1836      0.00000
     58       8.6361      0.00000
     59       9.0350      0.00000
     60       9.2113      0.00000
     61       9.7120      0.00000
     62      10.0430      0.00000

 k-point    20 :       0.3846    0.2308   -0.0000
  band No.  band energies     occupation 
      1     -13.3594      2.00000
      2     -13.3572      2.00000
      3     -13.3391      2.00000
      4     -13.3226      2.00000
      5     -13.3044      2.00000
      6     -13.2803      2.00000
      7     -13.2604      2.00000
      8     -13.2402      2.00000
      9     -13.2275      2.00000
     10      -1.4527      2.00000
     11      -1.3542      2.00000
     12      -1.2020      2.00000
     13      -1.0303      2.00000
     14      -1.0237      2.00000
     15      -0.9970      2.00000
     16      -0.9516      2.00000
     17      -0.9107      2.00000
     18      -0.8994      2.00000
     19      -0.0825      2.00000
     20      -0.0559      2.00000
     21      -0.0079      2.00000
     22       0.0481      2.00000
     23       0.0506      2.00000
     24       0.0986      2.00000
     25       0.2321      2.00000
     26       0.3990      2.00000
     27       0.5702      2.00000
     28       0.8179      2.00000
     29       0.8446      2.00000
     30       0.9973      2.00000
     31       1.0536      2.00000
     32       1.1026      2.00000
     33       1.2206      2.00000
     34       1.3467      2.00000
     35       1.4238      2.00000
     36       1.4257      2.00000
     37       2.3055      2.00000
     38       2.3075      2.00000
     39       2.6768      2.00000
     40       2.7042      2.00000
     41       3.1799      2.00000
     42       3.2417      2.00000
     43       3.8145      2.00000
     44       3.9141      2.00000
     45       4.5616      2.00000
     46       4.8244      2.00000
     47       5.5193      2.00000
     48       5.5518      2.00000
     49       5.8381      2.00000
     50       5.8809      2.00000
     51       6.3784      0.00000
     52       6.8244      0.00000
     53       6.8372      0.00000
     54       7.2770      0.00000
     55       7.8018      0.00000
     56       7.8791      0.00000
     57       8.0180      0.00000
     58       8.3861      0.00000
     59       8.8236      0.00000
     60       8.9742      0.00000
     61       9.3737      0.00000
     62       9.9249      0.00000

 k-point    21 :       0.3077    0.3077    0.0000
  band No.  band energies     occupation 
      1     -13.3337      2.00000
      2     -13.3308      2.00000
      3     -13.3079      2.00000
      4     -13.2963      2.00000
      5     -13.2836      2.00000
      6     -13.2659      2.00000
      7     -13.2527      2.00000
      8     -13.2385      2.00000
      9     -13.2302      2.00000
     10      -1.1018      2.00000
     11      -1.0996      2.00000
     12      -1.0177      2.00000
     13      -1.0100      2.00000
     14      -0.9155      2.00000
     15      -0.8644      2.00000
     16      -0.7081      2.00000
     17      -0.7069      2.00000
     18      -0.5976      2.00000
     19      -0.5107      2.00000
     20      -0.4377      2.00000
     21      -0.3183      2.00000
     22      -0.2433      2.00000
     23      -0.1645      2.00000
     24      -0.0347      2.00000
     25      -0.0188      2.00000
     26       0.1291      2.00000
     27       0.1358      2.00000
     28       0.8237      2.00000
     29       0.8410      2.00000
     30       1.0245      2.00000
     31       1.1450      2.00000
     32       1.1991      2.00000
     33       1.2440      2.00000
     34       1.2466      2.00000
     35       1.2840      2.00000
     36       1.3875      2.00000
     37       2.1822      2.00000
     38       2.5689      2.00000
     39       3.0856      2.00000
     40       3.7291      2.00000
     41       3.8006      2.00000
     42       3.8156      2.00000
     43       4.1693      2.00000
     44       4.1874      2.00000
     45       4.4967      2.00000
     46       4.6766      2.00000
     47       4.6833      2.00000
     48       5.2213      2.00000
     49       5.4167      2.00000
     50       5.5907      2.00000
     51       6.1714      0.24047
     52       6.2830      0.00001
     53       6.8915      0.00000
     54       7.1149      0.00000
     55       7.4298      0.00000
     56       7.7472      0.00000
     57       8.2062      0.00000
     58       8.3715      0.00000
     59       8.4060      0.00000
     60       8.9753      0.00000
     61       9.3075      0.00000
     62       9.5477      0.00000


--------------------------------------------------------------------------------------------------------


 soft charge-density along one line, spin component           1
         0         1         2         3         4         5         6         7         8         9
 total charge-density along one line
 
 pseudopotential strength for first ion, spin component:           1
 12.222   0.000 -14.874   0.000  -0.000   0.000  -0.000   0.000   0.000   0.000   0.000   0.000   0.000   0.000  -0.000   0.000
-14.874   0.000  18.121   0.000   0.000   0.000   0.000   0.000  -0.000   0.000  -0.000   0.000  -0.000   0.000   0.000   0.000
 -0.000   0.000   0.000   0.000  -8.368   0.000  -0.000   0.000   0.000   0.000  10.029   0.000   0.000   0.000  -0.000   0.000
 -0.000   0.000   0.000   0.000  -0.000   0.000  -8.374   0.000   0.000   0.000   0.000   0.000  10.038   0.000  -0.000   0.000
  0.000   0.000  -0.000   0.000   0.000   0.000   0.000   0.000  -8.368   0.000  -0.000   0.000  -0.000   0.000  10.029   0.000
  0.000   0.000  -0.000   0.000  10.029   0.000   0.000   0.000  -0.000   0.000 -11.862   0.000  -0.000   0.000   0.000   0.000
  0.000   0.000  -0.000   0.000   0.000   0.000  10.038   0.000  -0.000   0.000  -0.000   0.000 -11.874   0.000   0.000   0.000
 -0.000   0.000   0.000   0.000  -0.000   0.000  -0.000   0.000  10.029   0.000   0.000   0.000   0.000   0.000 -11.862   0.000
 total augmentation occupancy for first ion, spin component:           1
  2.591   0.357   0.000   0.000   0.000   0.000  -0.000   0.000
  0.357   0.067   0.000   0.000  -0.000   0.000  -0.000   0.000
  0.000   0.000   2.152  -0.000   0.000   0.255  -0.000   0.000
  0.000   0.000  -0.000   2.146  -0.000  -0.000   0.261   0.000
  0.000   0.000   0.000   0.000   2.152   0.000  -0.000   0.255
  0.000   0.000   0.255  -0.000   0.000   0.033  -0.000   0.000
 -0.000  -0.000  -0.000   0.261   0.000  -0.000   0.034  -0.000
  0.000   0.000   0.000   0.000   0.255   0.000  -0.000   0.033


------------------------ aborting loop because EDIFF is reached ----------------------------------------


    CHARGE:  cpu time    0.38: real time    0.38
    FORLOC:  cpu time    0.04: real time    0.04
    FORNL :  cpu time    3.10: real time    3.10
    STRESS:  cpu time    4.21: real time    4.21
    FORCOR:  cpu time    0.14: real time    0.14
    FORHAR:  cpu time    0.06: real time    0.06
    MIXING:  cpu time    0.00: real time    0.00
    OFIELD:  cpu time    0.00: real time    0.00

  FORCE on cell =-STRESS in cart. coord.  units (eV):
  Direction    XX          YY          ZZ          XY          YZ          ZX
  --------------------------------------------------------------------------------------
  Alpha Z   118.79410   118.79410   118.79410
  Ewald   19577.73640 19577.73669-22034.24587    -0.00002    -0.00003    -0.00014
  Hartree 21166.74112 21166.74104-20310.85943    -0.00000    -0.00000     0.00004
  E(xc)    -387.33539  -387.33540  -387.22405    -0.00000     0.00000    -0.00000
  Local  -41877.06283-41877.06235 41211.41073    -0.00016     0.00003     0.00005
  n-local   -26.35705   -38.24407   -31.62213     2.69857    -1.49776     4.76928
  augment    53.28648    53.28626    52.57204     0.00016     0.00000     0.00000
  Kinetic  1398.21964  1351.44301  1362.16783     2.26556    -0.37223     0.75351
  Fock        0.00000     0.00000     0.00000     0.00000     0.00000     0.00000
  -------------------------------------------------------------------------------------
  Total      -5.30912    -5.30912   -19.00678     0.00000    -0.00000    -0.00000
  in kB     -24.99075   -24.99074   -89.46750     0.00000    -0.00000    -0.00000
  external pressure =      -46.48 kB  Pullay stress =        0.00 kB


 VOLUME and BASIS-vectors are now :
 -----------------------------------------------------------------------------
  energy-cutoff  :      520.00
  volume of cell :      340.37
      direct lattice vectors                 reciprocal lattice vectors
     2.591982046 -1.496481076  0.000000000     0.385805142 -0.000000000 -0.000000000
     0.000000000  2.992962152  0.000000000     0.192902571  0.334117155  0.000000000
     0.000000000 -0.000000000 43.875351446     0.000000000  0.000000000  0.022791840

  length of vectors
     2.992962836  2.992962152 43.875351446     0.385805142  0.385805230  0.022791840


 FORCES acting on ions
    electron-ion (+dipol)            ewald-force                    non-local-force                 convergence-correction
 -----------------------------------------------------------------------------------------------
   -.844E-08 -.331E-08 0.107E+04   0.982E-08 -.295E-08 -.107E+04   0.103E-18 -.241E-18 0.626E-01   -.335E-09 0.529E-09 -.481E-01
   0.106E-02 -.184E-02 0.710E+03   0.547E-04 -.947E-04 -.710E+03   -.469E-20 -.643E-19 0.266E-01   0.333E-08 -.562E-08 -.675E-01
   -.980E-09 0.173E-09 0.602E-01   0.188E-07 -.207E-07 -.407E-01   -.414E-21 -.797E-20 0.315E-02   -.281E-09 0.352E-09 -.230E-01
   0.106E-02 -.184E-02 -.355E+03   0.546E-04 -.945E-04 0.355E+03   0.486E-20 0.891E-20 -.234E-01   0.114E-07 -.195E-07 0.197E-01
   0.127E-07 0.248E-08 -.107E+04   0.341E-08 -.135E-07 0.107E+04   0.599E-19 -.189E-18 -.725E-01   0.898E-09 -.132E-08 0.592E-01
   0.107E-02 -.185E-02 -.142E+04   0.500E-04 -.831E-04 0.142E+04   -.156E-17 -.299E-17 -.125E+01   0.527E-08 -.899E-08 0.462E-01
   -.107E-02 0.185E-02 0.142E+04   -.500E-04 0.831E-04 -.142E+04   -.278E-17 0.299E-17 0.125E+01   -.100E-07 0.173E-07 -.192E-01
   -.106E-02 0.184E-02 0.355E+03   -.546E-04 0.945E-04 -.355E+03   0.850E-20 -.356E-19 0.222E-01   -.839E-08 0.141E-07 -.569E-01
   -.106E-02 0.184E-02 -.710E+03   -.547E-04 0.947E-04 0.710E+03   0.380E-20 0.610E-19 -.179E-01   -.675E-08 0.114E-07 0.525E-01
   -.955E-05 0.259E-05 0.513E+03   0.230E-04 -.243E-04 -.513E+03   -.239E-16 -.138E-16 -.150E+00   0.130E-08 -.229E-08 -.298E-02
   0.639E-08 0.227E-07 0.177E+03   -.479E-07 0.539E-07 -.177E+03   0.228E-20 -.112E-18 0.873E-02   -.468E-09 0.753E-09 -.215E-01
   -.319E-07 0.370E-07 -.177E+03   0.192E-07 -.218E-07 0.177E+03   0.130E-20 0.560E-19 -.473E-02   0.248E-09 -.374E-09 0.125E-01
   0.954E-05 -.257E-05 -.513E+03   -.230E-04 0.243E-04 0.513E+03   -.212E-16 -.278E-16 0.145E+00   -.743E-09 0.131E-08 0.125E-01
   0.421E-04 -.730E-04 0.296E+03   -.472E-04 0.817E-04 -.296E+03   -.466E-20 0.108E-18 -.856E-04   0.857E-09 -.167E-08 -.194E-01
   0.421E-04 -.728E-04 -.591E+02   -.471E-04 0.815E-04 0.591E+02   -.853E-20 -.162E-20 0.427E-02   0.194E-09 -.437E-09 -.527E-03
   0.422E-04 -.730E-04 -.414E+03   -.471E-04 0.817E-04 0.414E+03   -.201E-17 -.201E-19 0.529E-01   0.143E-08 -.260E-08 0.183E-01
   -.422E-04 0.730E-04 0.414E+03   0.471E-04 -.816E-04 -.414E+03   0.276E-18 0.194E-19 -.510E-01   -.207E-08 0.379E-08 -.120E-01
   -.420E-04 0.728E-04 0.591E+02   0.471E-04 -.815E-04 -.591E+02   0.130E-20 0.981E-20 0.927E-03   -.327E-09 0.645E-09 -.139E-01
   -.421E-04 0.729E-04 -.296E+03   0.472E-04 -.817E-04 0.296E+03   0.402E-19 -.267E-19 -.117E-02   -.502E-09 0.102E-08 0.191E-01
   0.443E-09 -.687E-09 -.496E-01   0.452E-10 -.448E-10 0.512E-01   -.427E-21 -.339E-20 -.557E-05   0.151E-11 -.981E-12 -.149E-02
   -.360E-06 -.212E-07 0.494E+03   0.133E-05 -.119E-05 -.493E+03   0.316E-17 0.342E-19 -.900E-01   -.826E-11 0.306E-11 -.270E-02
   0.147E-04 -.256E-04 0.318E+03   -.224E-05 0.412E-05 -.318E+03   -.277E-18 0.138E-16 0.300E+00   -.691E-11 -.228E-11 -.199E-02
   -.147E-04 0.254E-04 0.158E+03   0.261E-05 -.448E-05 -.158E+03   -.757E-19 -.135E-17 0.125E+00   -.877E-12 -.709E-11 -.204E-02
   0.360E-06 0.224E-07 -.494E+03   -.133E-05 0.119E-05 0.493E+03   0.246E-16 -.278E-16 0.900E-01   0.632E-11 -.290E-11 0.117E-01
   0.147E-04 -.254E-04 -.158E+03   -.261E-05 0.449E-05 0.158E+03   0.772E-19 0.915E-18 -.124E+00   -.535E-11 0.158E-10 0.222E-03
   -.147E-04 0.256E-04 -.318E+03   0.225E-05 -.412E-05 0.318E+03   -.136E-16 -.138E-16 -.301E+00   0.165E-10 -.200E-10 0.484E-02
 -----------------------------------------------------------------------------------------------
   0.414E-07 -.490E-07 0.277E-01   0.995E-13 0.142E-13 -.341E-12   -.371E-16 -.703E-16 0.901E-02   -.497E-08 0.841E-08 -.365E-01
 
 
 POSITION                                       TOTAL-FORCE (eV/Angst)
 -----------------------------------------------------------------------------------
     -0.00000     -0.00000     15.50036         0.000000     -0.000000     -0.000349
      0.86399      1.49648     18.02233         0.000000     -0.000000      0.005991
     -0.00000     -0.00000     23.06937         0.000000     -0.000000     -0.000323
      0.86399      1.49648     25.59365         0.000000     -0.000000     -0.011311
     -0.00000     -0.00000     30.63833         0.000000      0.000000     -0.004637
      0.86399      1.49648     33.15963         0.000000      0.000000     -0.010881
      1.72799     -0.00000     12.97846        -0.000000      0.000000      0.014506
      1.72799     -0.00000     20.54523        -0.000000      0.000000      0.007074
      1.72799     -0.00000     28.11608        -0.000000     -0.000000     -0.002520
     -0.00000     -0.00000     11.67961         0.000000      0.000000     -0.016555
     -0.00000     -0.00000     19.28323         0.000000     -0.000000      0.008717
     -0.00000     -0.00000     26.85510         0.000000      0.000000     -0.006167
     -0.00000     -0.00000     34.45919         0.000000     -0.000000      0.011212
      1.72799     -0.00000     16.76144         0.000000     -0.000000      0.000984
      1.72799     -0.00000     24.33101         0.000000     -0.000000      0.008068
      1.72799     -0.00000     31.89876         0.000000     -0.000000     -0.000932
      0.86399      1.49648     14.23945         0.000000     -0.000000      0.007652
      0.86399      1.49648     21.80737         0.000000      0.000000     -0.006140
      0.86399      1.49648     29.37721         0.000000      0.000000     -0.004718
     -0.00000     -0.00000      1.13119         0.000000     -0.000000      0.000037
     -0.00000     -0.00000      8.53901         0.000000     -0.000000      0.004655
      1.72799     -0.00000      5.99985         0.000000     -0.000000      0.009329
      0.86399      1.49648      3.55750         0.000000     -0.000000      0.007305
     -0.00000     -0.00000     37.59927         0.000000      0.000000     -0.004579
      1.72799     -0.00000     42.58024         0.000000      0.000000     -0.007061
      0.86399      1.49648     40.13811         0.000000      0.000000     -0.009359
 -----------------------------------------------------------------------------------
    total drift:                                0.000000     -0.000000      0.000277


--------------------------------------------------------------------------------------------------------



  FREE ENERGIE OF THE ION-ELECTRON SYSTEM (eV)
  ---------------------------------------------------
  free  energy   TOTEN  =      -132.67445321 eV

  energy  without entropy=     -132.66867701  energy(sigma->0) =     -132.67156511
 
 d Force = 0.3212820E-04[-0.967E-05, 0.739E-04]  d Energy = 0.2041345E-04 0.117E-04
 d Force =-0.1778140E+01[-0.178E+01,-0.178E+01]  d Ewald  =-0.1778140E+01 0.210E-07


--------------------------------------------------------------------------------------------------------


    POTLOK:  cpu time    0.21: real time    0.21


--------------------------------------------------------------------------------------------------------




--------------------------------------------------------------------------------------------------------


  
 reached required accuracy - stopping structural energy minimisation
     LOOP+:  cpu time   33.71: real time   33.75
    4ORBIT:  cpu time    0.00: real time    0.00

 total amount of memory used by VASP on root node   152606. kBytes
========================================================================

   base      :      30000. kBytes
   nonl-proj :      16291. kBytes
   fftplans  :      57933. kBytes
   grid      :      23224. kBytes
   one-center:         56. kBytes
   wavefun   :      25102. kBytes
 
  
  
 General timing and accounting informations for this job:
 ========================================================
  
                  Total CPU time used (sec):     1079.852
                            User time (sec):     1064.784
                          System time (sec):       15.068
                         Elapsed time (sec):     1080.973
  
                   Maximum memory used (kb):      260028.
                   Average memory used (kb):           0.
  
                          Minor page faults:       328527
                          Major page faults:            0
                 Voluntary context switches:          251
