       N       E                     dE             d eps       ncg     rms          rms(c)
DAV:   1     0.564622512264E+03    0.56462E+03   -0.48357E+04  2872   0.138E+03
DAV:   2    -0.105930983167E+03   -0.67055E+03   -0.63820E+03  3680   0.266E+02
DAV:   3    -0.167681018063E+03   -0.61750E+02   -0.61395E+02  3312   0.882E+01
DAV:   4    -0.168501537234E+03   -0.82052E+00   -0.81866E+00  3336   0.110E+01
DAV:   5    -0.168513978544E+03   -0.12441E-01   -0.12432E-01  3364   0.131E+00    0.240E+01
DAV:   6    -0.151655456425E+03    0.16859E+02   -0.98061E+01  3336   0.329E+01    0.829E+00
DAV:   7    -0.151532179529E+03    0.12328E+00   -0.28405E+00  3252   0.638E+00    0.501E+00
DAV:   8    -0.151459620762E+03    0.72559E-01   -0.94646E-01  3268   0.449E+00    0.135E+00
DAV:   9    -0.151411323338E+03    0.48297E-01   -0.25811E-01  3212   0.170E+00    0.597E-01
DAV:  10    -0.151414646164E+03   -0.33228E-02   -0.10482E-01  3164   0.130E+00    0.418E-01
DAV:  11    -0.151411705230E+03    0.29409E-02   -0.15012E-02  3576   0.537E-01    0.239E-01
DAV:  12    -0.151412002164E+03   -0.29693E-03   -0.12421E-02  3348   0.480E-01    0.144E-01
DAV:  13    -0.151411738959E+03    0.26321E-03   -0.15554E-03  3888   0.243E-01    0.680E-02
DAV:  14    -0.151411673314E+03    0.65644E-04   -0.83847E-04  3344   0.137E-01    0.166E-02
DAV:  15    -0.151411627339E+03    0.45976E-04   -0.98578E-05  3368   0.639E-02    0.105E-02
DAV:  16    -0.151411598260E+03    0.29079E-04   -0.26632E-05  2672   0.491E-02    0.978E-03
DAV:  17    -0.151411575706E+03    0.22553E-04   -0.36080E-05  2784   0.585E-02    0.530E-03
DAV:  18    -0.151411559918E+03    0.15788E-04   -0.37768E-05  2872   0.756E-02    0.644E-03
DAV:  19    -0.151411555265E+03    0.46530E-05   -0.38787E-05  2840   0.567E-02
   1 F= -.15141156E+03 E0= -.15140931E+03  d E =-.151412E+03
       N       E                     dE             d eps       ncg     rms          rms(c)
DAV:   1    -0.151413337873E+03   -0.17780E-02   -0.32902E-02  2948   0.773E-01    0.518E-02
DAV:   2    -0.151413333753E+03    0.41207E-05   -0.20508E-03  3316   0.204E-01    0.439E-02
DAV:   3    -0.151413301773E+03    0.31980E-04   -0.22452E-04  3232   0.650E-02    0.347E-02
DAV:   4    -0.151413271947E+03    0.29826E-04   -0.76269E-05  3064   0.409E-02    0.165E-02
DAV:   5    -0.151413226191E+03    0.45756E-04   -0.64773E-05  3168   0.657E-02    0.111E-02
DAV:   6    -0.151413209613E+03    0.16578E-04   -0.28923E-05  2808   0.424E-02    0.105E-02
DAV:   7    -0.151413190523E+03    0.19090E-04   -0.16993E-05  2168   0.458E-02    0.486E-03
DAV:   8    -0.151413149010E+03    0.41514E-04   -0.42234E-05  2968   0.129E-01    0.169E-02
DAV:   9    -0.151413141789E+03    0.72205E-05   -0.53432E-05  2880   0.403E-02
   2 F= -.15141314E+03 E0= -.15141092E+03  d E =-.158652E-02
       N       E                     dE             d eps       ncg     rms          rms(c)
DAV:   1    -0.151413592997E+03   -0.44399E-03   -0.18711E-02  2932   0.582E-01    0.319E-02
DAV:   2    -0.151413586942E+03    0.60551E-05   -0.10128E-03  3292   0.134E-01    0.314E-02
DAV:   3    -0.151413561116E+03    0.25826E-04   -0.84593E-05  3048   0.437E-02    0.245E-02
DAV:   4    -0.151413532783E+03    0.28333E-04   -0.56752E-05  2992   0.438E-02    0.102E-02
DAV:   5    -0.151413495573E+03    0.37210E-04   -0.30519E-05  2708   0.611E-02    0.892E-03
DAV:   6    -0.151413474548E+03    0.21024E-04   -0.22387E-05  2392   0.469E-02    0.624E-03
DAV:   7    -0.151413448833E+03    0.25716E-04   -0.11459E-05  2172   0.584E-02    0.583E-03
DAV:   8    -0.151413391633E+03    0.57200E-04   -0.47408E-05  2892   0.162E-01    0.123E-02
DAV:   9    -0.151413381980E+03    0.96528E-05   -0.66250E-05  3008   0.621E-02
   3 F= -.15141338E+03 E0= -.15141118E+03  d E =-.182672E-02
       N       E                     dE             d eps       ncg     rms          rms(c)
DAV:   1    -0.151414133834E+03   -0.74220E-03   -0.19371E-01  2920   0.191E+00    0.615E-02
DAV:   2    -0.151414575580E+03   -0.44175E-03   -0.51614E-03  3252   0.277E-01    0.371E-02
DAV:   3    -0.151414545482E+03    0.30098E-04   -0.81044E-05  3356   0.494E-02    0.261E-02
DAV:   4    -0.151414520185E+03    0.25297E-04   -0.54718E-05  3112   0.409E-02    0.120E-02
DAV:   5    -0.151414509070E+03    0.11115E-04   -0.17209E-05  2200   0.386E-02    0.770E-03
DAV:   6    -0.151414502474E+03    0.65957E-05   -0.18747E-05  2412   0.434E-02
   4 F= -.15141450E+03 E0= -.15141230E+03  d E =-.112049E-02
       N       E                     dE             d eps       ncg     rms          rms(c)
DAV:   1    -0.151414020417E+03    0.48865E-03   -0.59441E-01  2912   0.335E+00    0.109E-01
DAV:   2    -0.151415385313E+03   -0.13649E-02   -0.16206E-02  3276   0.496E-01    0.679E-02
DAV:   3    -0.151415270901E+03    0.11441E-03   -0.25800E-04  3372   0.913E-02    0.482E-02
DAV:   4    -0.151415150071E+03    0.12083E-03   -0.22435E-04  3308   0.906E-02    0.215E-02
DAV:   5    -0.151415104423E+03    0.45649E-04   -0.82730E-05  3452   0.776E-02    0.166E-02
DAV:   6    -0.151415063691E+03    0.40731E-04   -0.50119E-05  3108   0.865E-02    0.800E-03
DAV:   7    -0.151415039787E+03    0.23904E-04   -0.45614E-05  2952   0.708E-02    0.800E-03
DAV:   8    -0.151415003747E+03    0.36040E-04   -0.20646E-05  2388   0.906E-02    0.572E-03
DAV:   9    -0.151414987028E+03    0.16719E-04   -0.36486E-05  2840   0.737E-02    0.101E-02
DAV:  10    -0.151414983101E+03    0.39274E-05   -0.69338E-05  2908   0.552E-02
   5 F= -.15141498E+03 E0= -.15141277E+03  d E =-.160112E-02
       N       E                     dE             d eps       ncg     rms          rms(c)
DAV:   1    -0.151415328216E+03   -0.34119E-03   -0.11456E-01  2872   0.143E+00    0.442E-02
DAV:   2    -0.151415590349E+03   -0.26213E-03   -0.29077E-03  3188   0.196E-01    0.284E-02
DAV:   3    -0.151415571871E+03    0.18478E-04   -0.42488E-05  3160   0.309E-02    0.184E-02
DAV:   4    -0.151415559324E+03    0.12547E-04   -0.15324E-05  2296   0.258E-02    0.901E-03
DAV:   5    -0.151415549829E+03    0.94943E-05   -0.15647E-05  2400   0.282E-02    0.303E-03
DAV:   6    -0.151415546416E+03    0.34137E-05   -0.86679E-06  1848   0.171E-02
   6 F= -.15141555E+03 E0= -.15141332E+03  d E =-.563315E-03
       N       E                     dE             d eps       ncg     rms          rms(c)
DAV:   1    -0.151414648543E+03    0.90129E-03   -0.10316E+00  2872   0.428E+00    0.135E-01
DAV:   2    -0.151417069012E+03   -0.24205E-02   -0.26391E-02  3168   0.584E-01    0.763E-02
DAV:   3    -0.151416927128E+03    0.14188E-03   -0.23386E-04  3352   0.792E-02    0.515E-02
DAV:   4    -0.151416831085E+03    0.96044E-04   -0.19445E-04  3320   0.819E-02    0.195E-02
DAV:   5    -0.151416807696E+03    0.23389E-04   -0.10777E-04  3252   0.531E-02    0.794E-03
DAV:   6    -0.151416795874E+03    0.11822E-04   -0.21800E-05  2424   0.258E-02    0.519E-03
DAV:   7    -0.151416783707E+03    0.12166E-04   -0.64795E-06  2076   0.276E-02    0.364E-03
DAV:   8    -0.151416769515E+03    0.14192E-04   -0.12139E-05  2236   0.400E-02    0.353E-03
DAV:   9    -0.151416754770E+03    0.14746E-04   -0.14746E-05  2276   0.583E-02    0.366E-03
DAV:  10    -0.151416749530E+03    0.52400E-05   -0.26343E-05  2584   0.499E-02
   7 F= -.15141675E+03 E0= -.15141449E+03  d E =-.176643E-02
       N       E                     dE             d eps       ncg     rms          rms(c)
DAV:   1    -0.151408242932E+03    0.85118E-02   -0.41299E+00  2872   0.859E+00    0.271E-01
DAV:   2    -0.151418093297E+03   -0.98504E-02   -0.10722E-01  3184   0.118E+00    0.158E-01
DAV:   3    -0.151417519476E+03    0.57382E-03   -0.10019E-03  3344   0.165E-01    0.105E-01
DAV:   4    -0.151417174924E+03    0.34455E-03   -0.73276E-04  3288   0.155E-01    0.416E-02
DAV:   5    -0.151417095314E+03    0.79610E-04   -0.39320E-04  3292   0.101E-01    0.142E-02
DAV:   6    -0.151417068510E+03    0.26804E-04   -0.88402E-05  3168   0.445E-02    0.109E-02
DAV:   7    -0.151417039995E+03    0.28515E-04   -0.16390E-05  2324   0.395E-02    0.624E-03
DAV:   8    -0.151417010353E+03    0.29643E-04   -0.33877E-05  2756   0.537E-02    0.628E-03
DAV:   9    -0.151416994878E+03    0.15475E-04   -0.21718E-05  2464   0.392E-02    0.498E-03
DAV:  10    -0.151416970748E+03    0.24130E-04   -0.19186E-05  2400   0.713E-02    0.602E-03
DAV:  11    -0.151416958040E+03    0.12708E-04   -0.46285E-05  3120   0.782E-02    0.397E-03
DAV:  12    -0.151416956255E+03    0.17847E-05   -0.37291E-05  2824   0.447E-02
   8 F= -.15141696E+03 E0= -.15141464E+03  d E =-.197315E-02
       N       E                     dE             d eps       ncg     rms          rms(c)
DAV:   1    -0.151415443007E+03    0.15150E-02   -0.85289E-01  2864   0.391E+00    0.124E-01
DAV:   2    -0.151417452222E+03   -0.20092E-02   -0.21976E-02  3176   0.538E-01    0.674E-02
DAV:   3    -0.151417343654E+03    0.10857E-03   -0.20682E-04  3336   0.759E-02    0.473E-02
DAV:   4    -0.151417263048E+03    0.80606E-04   -0.16202E-04  3392   0.831E-02    0.178E-02
DAV:   5    -0.151417246602E+03    0.16446E-04   -0.98604E-05  3300   0.577E-02    0.920E-03
DAV:   6    -0.151417240625E+03    0.59772E-05   -0.32425E-05  2744   0.302E-02
   9 F= -.15141724E+03 E0= -.15141495E+03  d E =-.225752E-02
       N       E                     dE             d eps       ncg     rms          rms(c)
DAV:   1    -0.151418434734E+03   -0.11881E-02   -0.20044E-01  2912   0.197E+00    0.607E-02
DAV:   2    -0.151418852754E+03   -0.41802E-03   -0.49199E-03  3196   0.282E-01    0.376E-02
DAV:   3    -0.151418814150E+03    0.38603E-04   -0.85120E-05  3300   0.535E-02    0.274E-02
DAV:   4    -0.151418770722E+03    0.43428E-04   -0.72289E-05  3176   0.639E-02    0.130E-02
DAV:   5    -0.151418748713E+03    0.22009E-04   -0.40375E-05  2932   0.556E-02    0.123E-02
DAV:   6    -0.151418736149E+03    0.12564E-04   -0.38178E-05  2716   0.396E-02    0.668E-03
DAV:   7    -0.151418717642E+03    0.18508E-04   -0.57372E-06  1916   0.371E-02    0.473E-03
DAV:   8    -0.151418688014E+03    0.29628E-04   -0.89536E-06  2132   0.634E-02    0.483E-03
DAV:   9    -0.151418653784E+03    0.34230E-04   -0.22186E-05  2624   0.880E-02    0.459E-03
DAV:  10    -0.151418590728E+03    0.63056E-04   -0.10479E-04  3868   0.265E-01    0.781E-03
DAV:  11    -0.151418594794E+03   -0.40653E-05   -0.16572E-04  3364   0.120E-01    0.696E-03
DAV:  12    -0.151418603784E+03   -0.89902E-05   -0.10518E-04  2808   0.347E-02    0.942E-03
DAV:  13    -0.151418603636E+03    0.14741E-06   -0.23616E-06  1656   0.782E-03
  10 F= -.15141860E+03 E0= -.15141629E+03  d E =-.136301E-02
       N       E                     dE             d eps       ncg     rms          rms(c)
DAV:   1    -0.151418916166E+03   -0.31238E-03   -0.21722E-01  2904   0.206E+00    0.613E-02
DAV:   2    -0.151419359323E+03   -0.44316E-03   -0.51906E-03  3188   0.291E-01    0.382E-02
DAV:   3    -0.151419318190E+03    0.41133E-04   -0.68432E-05  3316   0.536E-02    0.278E-02
DAV:   4    -0.151419267813E+03    0.50377E-04   -0.81934E-05  3204   0.826E-02    0.119E-02
DAV:   5    -0.151419252686E+03    0.15127E-04   -0.72454E-05  3096   0.595E-02    0.135E-02
DAV:   6    -0.151419251648E+03    0.10382E-05   -0.33863E-05  2516   0.237E-02
  11 F= -.15141925E+03 E0= -.15141692E+03  d E =-.201102E-02
       N       E                     dE             d eps       ncg     rms          rms(c)
DAV:   1    -0.151417453877E+03    0.17988E-02   -0.86895E-01  2896   0.412E+00    0.127E-01
DAV:   2    -0.151419131645E+03   -0.16778E-02   -0.20789E-02  3224   0.591E-01    0.770E-02
DAV:   3    -0.151418915729E+03    0.21592E-03   -0.39165E-04  3388   0.136E-01    0.561E-02
DAV:   4    -0.151418645464E+03    0.27026E-03   -0.29583E-04  4096   0.168E-01    0.281E-02
DAV:   5    -0.151418453180E+03    0.19228E-03   -0.21067E-04  3448   0.160E-01    0.237E-02
DAV:   6    -0.151418302611E+03    0.15057E-03   -0.18963E-04  3868   0.141E-01    0.150E-02
DAV:   7    -0.151418092351E+03    0.21026E-03   -0.70612E-05  3660   0.173E-01    0.180E-02
DAV:   8    -0.151417704686E+03    0.38767E-03   -0.24309E-04  4012   0.334E-01    0.167E-02
DAV:   9    -0.151417561464E+03    0.14322E-03   -0.39629E-04  3680   0.213E-01    0.253E-02
DAV:  10    -0.151417348890E+03    0.21257E-03   -0.24875E-04  4356   0.372E-01    0.175E-02
DAV:  11    -0.151417320575E+03    0.28315E-04   -0.52675E-04  3672   0.243E-01    0.150E-02
DAV:  12    -0.151417362245E+03   -0.41671E-04   -0.56322E-04  3052   0.826E-02    0.220E-02
DAV:  13    -0.151417355370E+03    0.68750E-05   -0.25748E-05  2376   0.271E-02
  12 F= -.15141736E+03 E0= -.15141499E+03  d E =-.114745E-03
       N       E                     dE             d eps       ncg     rms          rms(c)
DAV:   1    -0.151418708041E+03   -0.13458E-02   -0.59134E-01  2960   0.333E+00    0.968E-02
DAV:   2    -0.151419803731E+03   -0.10957E-02   -0.13248E-02  3240   0.465E-01    0.621E-02
DAV:   3    -0.151419687197E+03    0.11653E-03   -0.25788E-04  3396   0.932E-02    0.447E-02
DAV:   4    -0.151419560867E+03    0.12633E-03   -0.14348E-04  3388   0.978E-02    0.226E-02
DAV:   5    -0.151419474364E+03    0.86503E-04   -0.10602E-04  3348   0.102E-01    0.153E-02
DAV:   6    -0.151419420750E+03    0.53613E-04   -0.97642E-05  3252   0.871E-02    0.913E-03
DAV:   7    -0.151419364779E+03    0.55971E-04   -0.21283E-05  2372   0.799E-02    0.990E-03
DAV:   8    -0.151419259558E+03    0.10522E-03   -0.59467E-05  3348   0.146E-01    0.715E-03
DAV:   9    -0.151419130972E+03    0.12859E-03   -0.20065E-04  3908   0.261E-01    0.182E-02
DAV:  10    -0.151419099823E+03    0.31149E-04   -0.21227E-04  3640   0.164E-01    0.186E-02
DAV:  11    -0.151419102305E+03   -0.24816E-05   -0.24515E-04  3088   0.760E-02    0.103E-02
DAV:  12    -0.151419099175E+03    0.31298E-05   -0.34937E-05  2668   0.399E-02
  13 F= -.15141910E+03 E0= -.15141676E+03  d E =-.185855E-02
       N       E                     dE             d eps       ncg     rms          rms(c)
DAV:   1    -0.151419581443E+03   -0.47914E-03   -0.30977E-01  2904   0.235E+00    0.662E-02
DAV:   2    -0.151420148087E+03   -0.56664E-03   -0.63676E-03  3244   0.312E-01    0.406E-02
DAV:   3    -0.151420108915E+03    0.39173E-04   -0.55315E-05  3220   0.429E-02    0.277E-02
DAV:   4    -0.151420081205E+03    0.27709E-04   -0.13741E-04  3220   0.671E-02    0.890E-03
DAV:   5    -0.151420083783E+03   -0.25773E-05   -0.44098E-05  2876   0.270E-02    0.925E-03
DAV:   6    -0.151420082594E+03    0.11888E-05   -0.39574E-06  1692   0.894E-03
  14 F= -.15142008E+03 E0= -.15141773E+03  d E =-.983419E-03
       N       E                     dE             d eps       ncg     rms          rms(c)
DAV:   1    -0.151416800251E+03    0.32835E-02   -0.27896E+00  2880   0.704E+00    0.200E-01
DAV:   2    -0.151421971286E+03   -0.51710E-02   -0.57583E-02  3232   0.936E-01    0.122E-01
DAV:   3    -0.151421627162E+03    0.34412E-03   -0.50625E-04  3368   0.124E-01    0.823E-02
DAV:   4    -0.151421416905E+03    0.21026E-03   -0.13220E-03  3348   0.193E-01    0.298E-02
DAV:   5    -0.151421431977E+03   -0.15072E-04   -0.33430E-04  3232   0.766E-02    0.281E-02
DAV:   6    -0.151421422677E+03    0.92996E-05   -0.65405E-05  2892   0.364E-02
  15 F= -.15142142E+03 E0= -.15141902E+03  d E =-.232350E-02
       N       E                     dE             d eps       ncg     rms          rms(c)
DAV:   1    -0.151422321785E+03   -0.88981E-03   -0.53300E-01  3024   0.306E+00    0.890E-02
DAV:   2    -0.151423256613E+03   -0.93483E-03   -0.10973E-02  3272   0.416E-01    0.545E-02
DAV:   3    -0.151423145211E+03    0.11140E-03   -0.15386E-04  3392   0.801E-02    0.370E-02
DAV:   4    -0.151423004528E+03    0.14068E-03   -0.11974E-04  3336   0.108E-01    0.152E-02
DAV:   5    -0.151422941640E+03    0.62888E-04   -0.13014E-04  3216   0.970E-02    0.114E-02
DAV:   6    -0.151422909321E+03    0.32319E-04   -0.81794E-05  3084   0.685E-02    0.937E-03
DAV:   7    -0.151422802505E+03    0.10682E-03   -0.46702E-05  3012   0.152E-01    0.140E-02
DAV:   8    -0.151422758738E+03    0.43767E-04   -0.55581E-05  3148   0.797E-02    0.150E-02
DAV:   9    -0.151422750226E+03    0.85124E-05   -0.87405E-05  3092   0.528E-02
  16 F= -.15142275E+03 E0= -.15142033E+03  d E =-.132755E-02
       N       E                     dE             d eps       ncg     rms          rms(c)
DAV:   1    -0.151422094092E+03    0.66465E-03   -0.43194E-01  3008   0.279E+00    0.957E-02
DAV:   2    -0.151422983431E+03   -0.88934E-03   -0.11088E-02  3268   0.431E-01    0.636E-02
DAV:   3    -0.151422864559E+03    0.11887E-03   -0.22433E-04  3248   0.690E-02    0.423E-02
DAV:   4    -0.151422730618E+03    0.13394E-03   -0.17248E-04  3276   0.811E-02    0.176E-02
DAV:   5    -0.151422675327E+03    0.55291E-04   -0.72815E-05  3132   0.725E-02    0.118E-02
DAV:   6    -0.151422621481E+03    0.53846E-04   -0.27798E-05  2492   0.775E-02    0.701E-03
DAV:   7    -0.151422498652E+03    0.12283E-03   -0.67533E-05  3572   0.185E-01    0.138E-02
DAV:   8    -0.151422383605E+03    0.11505E-03   -0.13396E-04  3684   0.190E-01    0.998E-03
DAV:   9    -0.151422294775E+03    0.88829E-04   -0.11435E-04  3652   0.199E-01    0.783E-03
DAV:  10    -0.151422258892E+03    0.35883E-04   -0.15479E-04  4056   0.189E-01    0.625E-03
DAV:  11    -0.151422275465E+03   -0.16573E-04   -0.25465E-04  3032   0.680E-02    0.124E-02
DAV:  12    -0.151422272046E+03    0.34198E-05   -0.27362E-05  2496   0.252E-02
  17 F= -.15142227E+03 E0= -.15141985E+03  d E =-.849369E-03
       N       E                     dE             d eps       ncg     rms          rms(c)
DAV:   1    -0.151422491058E+03   -0.21559E-03   -0.11587E-01  3056   0.143E+00    0.405E-02
DAV:   2    -0.151422700955E+03   -0.20990E-03   -0.24292E-03  3316   0.193E-01    0.260E-02
DAV:   3    -0.151422677171E+03    0.23783E-04   -0.23107E-05  2424   0.329E-02    0.177E-02
DAV:   4    -0.151422643825E+03    0.33346E-04   -0.44139E-05  2988   0.635E-02    0.468E-03
DAV:   5    -0.151422638667E+03    0.51582E-05   -0.40020E-05  2932   0.376E-02    0.569E-03
DAV:   6    -0.151422630573E+03    0.80939E-05   -0.57844E-06  1948   0.313E-02
  18 F= -.15142263E+03 E0= -.15142021E+03  d E =-.120790E-02
       N       E                     dE             d eps       ncg     rms          rms(c)
DAV:   1    -0.151422671420E+03   -0.32753E-04   -0.13677E-02  2944   0.495E-01    0.153E-02
DAV:   2    -0.151422694106E+03   -0.22686E-04   -0.33489E-04  3300   0.784E-02    0.122E-02
DAV:   3    -0.151422688360E+03    0.57463E-05   -0.10233E-05  1824   0.169E-02    0.855E-03
DAV:   4    -0.151422678853E+03    0.95073E-05   -0.40926E-06  1928   0.201E-02    0.450E-03
DAV:   5    -0.151422669994E+03    0.88588E-05   -0.49052E-06  1916   0.274E-02    0.339E-03
DAV:   6    -0.151422659027E+03    0.10967E-04   -0.70584E-06  2040   0.457E-02    0.302E-03
DAV:   7    -0.151422639786E+03    0.19241E-04   -0.85941E-06  2216   0.856E-02    0.316E-03
DAV:   8    -0.151422623224E+03    0.16561E-04   -0.66163E-05  3488   0.145E-01    0.493E-03
DAV:   9    -0.151422627784E+03   -0.45601E-05   -0.70714E-05  2776   0.276E-02
  19 F= -.15142263E+03 E0= -.15142021E+03  d E =-.120511E-02
       N       E                     dE             d eps       ncg     rms          rms(c)
DAV:   1    -0.151423323998E+03   -0.70077E-03   -0.24619E-01  3024   0.209E+00    0.619E-02
DAV:   2    -0.151423765623E+03   -0.44162E-03   -0.52978E-03  3296   0.286E-01    0.404E-02
DAV:   3    -0.151423726554E+03    0.39068E-04   -0.59585E-05  3200   0.428E-02    0.294E-02
DAV:   4    -0.151423696773E+03    0.29781E-04   -0.17288E-04  3180   0.743E-02    0.125E-02
DAV:   5    -0.151423697867E+03   -0.10937E-05   -0.50901E-05  2856   0.297E-02    0.144E-02
DAV:   6    -0.151423694446E+03    0.34209E-05   -0.72386E-06  1684   0.130E-02
  20 F= -.15142369E+03 E0= -.15142127E+03  d E =-.106666E-02
       N       E                     dE             d eps       ncg     rms          rms(c)
DAV:   1    -0.151423315407E+03    0.38246E-03   -0.67474E-01  2976   0.346E+00    0.101E-01
DAV:   2    -0.151424571769E+03   -0.12564E-02   -0.14842E-02  3280   0.478E-01    0.700E-02
DAV:   3    -0.151424460433E+03    0.11134E-03   -0.16301E-04  3352   0.733E-02    0.507E-02
DAV:   4    -0.151424372949E+03    0.87484E-04   -0.55789E-04  3328   0.131E-01    0.234E-02
DAV:   5    -0.151424374012E+03   -0.10630E-05   -0.14831E-04  3088   0.519E-02    0.254E-02
DAV:   6    -0.151424366671E+03    0.73414E-05   -0.15341E-05  1784   0.179E-02
  21 F= -.15142437E+03 E0= -.15142192E+03  d E =-.173889E-02
       N       E                     dE             d eps       ncg     rms          rms(c)
DAV:   1    -0.151425457631E+03   -0.10836E-02   -0.80428E-02  2896   0.122E+00    0.472E-02
DAV:   2    -0.151425532571E+03   -0.74940E-04   -0.21920E-03  3328   0.218E-01    0.322E-02
DAV:   3    -0.151425489844E+03    0.42727E-04   -0.17089E-04  3248   0.662E-02    0.270E-02
DAV:   4    -0.151425431765E+03    0.58079E-04   -0.31059E-05  2836   0.408E-02    0.151E-02
DAV:   5    -0.151425303428E+03    0.12834E-03   -0.10392E-04  3284   0.130E-01    0.208E-02
DAV:   6    -0.151425188336E+03    0.11509E-03   -0.13799E-04  4116   0.179E-01    0.108E-02
DAV:   7    -0.151425098820E+03    0.89517E-04   -0.21311E-04  4292   0.222E-01    0.268E-02
DAV:   8    -0.151425000187E+03    0.98632E-04   -0.17424E-04  3356   0.139E-01    0.895E-03
DAV:   9    -0.151424919813E+03    0.80374E-04   -0.99872E-05  3560   0.260E-01    0.889E-03
DAV:  10    -0.151424918081E+03    0.17321E-05   -0.21074E-04  3120   0.114E-01    0.108E-02
DAV:  11    -0.151424929222E+03   -0.11141E-04   -0.19027E-04  2948   0.493E-02    0.145E-02
DAV:  12    -0.151424924661E+03    0.45614E-05   -0.57015E-06  1704   0.213E-02
  22 F= -.15142492E+03 E0= -.15142247E+03  d E =-.557990E-03
       N       E                     dE             d eps       ncg     rms          rms(c)
DAV:   1    -0.151424923941E+03    0.52812E-05   -0.23999E-03  3104   0.218E-01    0.115E-02
DAV:   2    -0.151424927071E+03   -0.31304E-05   -0.10199E-04  3216   0.430E-02    0.119E-02
DAV:   3    -0.151424924248E+03    0.28236E-05   -0.53251E-06  1720   0.100E-02    0.815E-03
DAV:   4    -0.151424921005E+03    0.32428E-05   -0.68380E-06  1904   0.125E-02    0.292E-03
DAV:   5    -0.151424919687E+03    0.13181E-05   -0.14980E-06  1708   0.991E-03    0.256E-03
DAV:   6    -0.151424917415E+03    0.22718E-05   -0.20147E-06  1952   0.247E-02
  23 F= -.15142492E+03 E0= -.15142247E+03  d E =-.550744E-03
       N       E                     dE             d eps       ncg     rms          rms(c)
DAV:   1    -0.151425171260E+03   -0.25157E-03   -0.42132E-01  2928   0.275E+00    0.794E-02
DAV:   2    -0.151425945003E+03   -0.77374E-03   -0.89967E-03  3316   0.373E-01    0.493E-02
DAV:   3    -0.151425883423E+03    0.61579E-04   -0.10284E-04  3316   0.512E-02    0.349E-02
DAV:   4    -0.151425833569E+03    0.49854E-04   -0.15968E-04  3140   0.689E-02    0.124E-02
DAV:   5    -0.151425829697E+03    0.38729E-05   -0.54327E-05  2984   0.354E-02    0.107E-02
DAV:   6    -0.151425825146E+03    0.45501E-05   -0.15112E-05  1740   0.203E-02
  24 F= -.15142583E+03 E0= -.15142337E+03  d E =-.907732E-03
       N       E                     dE             d eps       ncg     rms          rms(c)
DAV:   1    -0.151425456567E+03    0.37313E-03   -0.40665E-01  2920   0.270E+00    0.776E-02
DAV:   2    -0.151426203650E+03   -0.74708E-03   -0.87401E-03  3300   0.367E-01    0.499E-02
DAV:   3    -0.151426135110E+03    0.68540E-04   -0.93665E-05  3308   0.528E-02    0.352E-02
DAV:   4    -0.151426065832E+03    0.69278E-04   -0.18710E-04  3188   0.835E-02    0.125E-02
DAV:   5    -0.151426058402E+03    0.74309E-05   -0.74725E-05  3108   0.422E-02    0.109E-02
DAV:   6    -0.151426049406E+03    0.89958E-05   -0.20291E-05  2024   0.242E-02
  25 F= -.15142605E+03 E0= -.15142358E+03  d E =-.113199E-02
       N       E                     dE             d eps       ncg     rms          rms(c)
DAV:   1    -0.151425860771E+03    0.19763E-03   -0.63794E-01  3024   0.341E+00    0.101E-01
DAV:   2    -0.151427115601E+03   -0.12548E-02   -0.14400E-02  3244   0.479E-01    0.626E-02
DAV:   3    -0.151426995174E+03    0.12043E-03   -0.22376E-04  3384   0.882E-02    0.448E-02
DAV:   4    -0.151426857871E+03    0.13730E-03   -0.14484E-04  3584   0.109E-01    0.204E-02
DAV:   5    -0.151426772605E+03    0.85267E-04   -0.12984E-04  3264   0.110E-01    0.151E-02
DAV:   6    -0.151426711481E+03    0.61123E-04   -0.13005E-04  3540   0.106E-01    0.136E-02
DAV:   7    -0.151426622622E+03    0.88859E-04   -0.43040E-05  3000   0.138E-01    0.216E-02
DAV:   8    -0.151426497759E+03    0.12486E-03   -0.90959E-05  3712   0.197E-01    0.231E-02
DAV:   9    -0.151426439534E+03    0.58225E-04   -0.13036E-04  3552   0.122E-01    0.139E-02
DAV:  10    -0.151426369068E+03    0.70466E-04   -0.10476E-04  3956   0.191E-01    0.118E-02
DAV:  11    -0.151426328992E+03    0.40076E-04   -0.10881E-04  3728   0.209E-01    0.137E-02
DAV:  12    -0.151426346643E+03   -0.17651E-04   -0.26835E-04  3092   0.722E-02    0.168E-02
DAV:  13    -0.151426340681E+03    0.59616E-05   -0.67569E-05  3072   0.483E-02
  26 F= -.15142634E+03 E0= -.15142386E+03  d E =-.291275E-03
       N       E                     dE             d eps       ncg     rms          rms(c)
DAV:   1    -0.151426239358E+03    0.10728E-03   -0.99406E-02  3040   0.135E+00    0.432E-02
DAV:   2    -0.151426440678E+03   -0.20132E-03   -0.24360E-03  3272   0.199E-01    0.309E-02
DAV:   3    -0.151426417746E+03    0.22931E-04   -0.56619E-05  3176   0.430E-02    0.221E-02
DAV:   4    -0.151426396980E+03    0.20766E-04   -0.36207E-05  2744   0.432E-02    0.110E-02
DAV:   5    -0.151426383114E+03    0.13866E-04   -0.18993E-05  2168   0.452E-02    0.664E-03
DAV:   6    -0.151426377022E+03    0.60922E-05   -0.24441E-05  2392   0.377E-02
  27 F= -.15142638E+03 E0= -.15142390E+03  d E =-.327616E-03
       N       E                     dE             d eps       ncg     rms          rms(c)
DAV:   1    -0.151426903354E+03   -0.52024E-03   -0.15534E-01  2900   0.169E+00    0.548E-02
DAV:   2    -0.151427191592E+03   -0.28824E-03   -0.38623E-03  3328   0.258E-01    0.375E-02
DAV:   3    -0.151427160960E+03    0.30632E-04   -0.11191E-04  3320   0.475E-02    0.296E-02
DAV:   4    -0.151427126760E+03    0.34200E-04   -0.90813E-05  3240   0.468E-02    0.133E-02
DAV:   5    -0.151427107000E+03    0.19759E-04   -0.36843E-05  3100   0.427E-02    0.157E-02
DAV:   6    -0.151427091756E+03    0.15244E-04   -0.17168E-05  2232   0.347E-02    0.997E-03
DAV:   7    -0.151427080679E+03    0.11077E-04   -0.17889E-05  2172   0.303E-02    0.491E-03
DAV:   8    -0.151427062919E+03    0.17760E-04   -0.57015E-06  2044   0.425E-02    0.398E-03
DAV:   9    -0.151427028558E+03    0.34360E-04   -0.23651E-05  2512   0.967E-02    0.498E-03
DAV:  10    -0.151427008072E+03    0.20486E-04   -0.53745E-05  3344   0.106E-01    0.317E-03
DAV:  11    -0.151427006468E+03    0.16040E-05   -0.53916E-05  2968   0.608E-02
  28 F= -.15142701E+03 E0= -.15142452E+03  d E =-.629446E-03
       N       E                     dE             d eps       ncg     rms          rms(c)
DAV:   1    -0.151427005627E+03    0.24447E-05   -0.29164E-02  2936   0.731E-01    0.233E-02
DAV:   2    -0.151427057698E+03   -0.52070E-04   -0.69461E-04  3344   0.108E-01    0.158E-02
DAV:   3    -0.151427051789E+03    0.59083E-05   -0.14622E-05  1960   0.187E-02    0.121E-02
DAV:   4    -0.151427045300E+03    0.64891E-05   -0.22062E-05  2516   0.255E-02    0.517E-03
DAV:   5    -0.151427043648E+03    0.16519E-05   -0.71419E-06  1656   0.158E-02    0.616E-03
DAV:   6    -0.151427041894E+03    0.17542E-05   -0.25163E-06  1696   0.113E-02
  29 F= -.15142704E+03 E0= -.15142455E+03  d E =-.664873E-03
       N       E                     dE             d eps       ncg     rms          rms(c)
DAV:   1    -0.151427463013E+03   -0.41936E-03   -0.29472E-02  2872   0.767E-01    0.278E-02
DAV:   2    -0.151427513037E+03   -0.50024E-04   -0.82744E-04  3308   0.128E-01    0.178E-02
DAV:   3    -0.151427502017E+03    0.11020E-04   -0.47263E-05  2984   0.384E-02    0.144E-02
DAV:   4    -0.151427490438E+03    0.11579E-04   -0.10124E-05  1884   0.214E-02    0.819E-03
DAV:   5    -0.151427466227E+03    0.24211E-04   -0.99548E-06  2068   0.512E-02    0.596E-03
DAV:   6    -0.151427443681E+03    0.22546E-04   -0.17663E-05  2532   0.691E-02    0.679E-03
DAV:   7    -0.151427420799E+03    0.22882E-04   -0.31788E-05  2712   0.947E-02    0.631E-03
DAV:   8    -0.151427394380E+03    0.26420E-04   -0.22227E-05  2568   0.137E-01    0.882E-03
DAV:   9    -0.151427386485E+03    0.78946E-05   -0.71385E-05  2948   0.771E-02
  30 F= -.15142739E+03 E0= -.15142489E+03  d E =-.344591E-03
       N       E                     dE             d eps       ncg     rms          rms(c)
DAV:   1    -0.151427434586E+03   -0.40206E-04   -0.60460E-03  3048   0.346E-01    0.117E-02
DAV:   2    -0.151427446651E+03   -0.12066E-04   -0.16758E-04  3304   0.546E-02    0.763E-03
DAV:   3    -0.151427444361E+03    0.22900E-05   -0.43715E-06  1772   0.121E-02    0.550E-03
DAV:   4    -0.151427440172E+03    0.41889E-05   -0.26484E-06  1900   0.164E-02    0.250E-03
DAV:   5    -0.151427437268E+03    0.29041E-05   -0.23311E-06  1768   0.173E-02    0.311E-03
DAV:   6    -0.151427432503E+03    0.47652E-05   -0.40557E-06  1944   0.350E-02
  31 F= -.15142743E+03 E0= -.15142494E+03  d E =-.390609E-03
       N       E                     dE             d eps       ncg     rms          rms(c)
DAV:   1    -0.151427621512E+03   -0.18424E-03   -0.69590E-02  2968   0.115E+00    0.361E-02
DAV:   2    -0.151427782148E+03   -0.16064E-03   -0.17886E-03  3272   0.170E-01    0.242E-02
DAV:   3    -0.151427770400E+03    0.11748E-04   -0.22505E-05  2248   0.249E-02    0.175E-02
DAV:   4    -0.151427761190E+03    0.92104E-05   -0.62008E-05  2892   0.403E-02    0.904E-03
DAV:   5    -0.151427760656E+03    0.53357E-06   -0.12540E-05  1664   0.173E-02    0.857E-03
DAV:   6    -0.151427760047E+03    0.60884E-06   -0.32693E-06  1568   0.805E-03
  32 F= -.15142776E+03 E0= -.15142527E+03  d E =-.327544E-03
       N       E                     dE             d eps       ncg     rms          rms(c)
DAV:   1    -0.151427580034E+03    0.18062E-03   -0.16119E-01  2924   0.176E+00    0.562E-02
DAV:   2    -0.151427941794E+03   -0.36176E-03   -0.41957E-03  3276   0.266E-01    0.375E-02
DAV:   3    -0.151427910999E+03    0.30795E-04   -0.72403E-05  3288   0.425E-02    0.283E-02
DAV:   4    -0.151427874935E+03    0.36063E-04   -0.12861E-04  3232   0.628E-02    0.147E-02
DAV:   5    -0.151427865937E+03    0.89986E-05   -0.38609E-05  2924   0.372E-02    0.163E-02
DAV:   6    -0.151427861463E+03    0.44733E-05   -0.13960E-05  1752   0.178E-02
  33 F= -.15142786E+03 E0= -.15142537E+03  d E =-.428960E-03
       N       E                     dE             d eps       ncg     rms          rms(c)
DAV:   1    -0.151427913186E+03   -0.47250E-04   -0.52133E-02  3024   0.101E+00    0.298E-02
DAV:   2    -0.151428013765E+03   -0.10058E-03   -0.12342E-03  3188   0.147E-01    0.187E-02
DAV:   3    -0.151427999350E+03    0.14415E-04   -0.30062E-05  2704   0.314E-02    0.127E-02
DAV:   4    -0.151427980601E+03    0.18749E-04   -0.59178E-06  1920   0.270E-02    0.759E-03
DAV:   5    -0.151427952276E+03    0.28325E-04   -0.10750E-05  2132   0.545E-02    0.536E-03
DAV:   6    -0.151427934944E+03    0.17332E-04   -0.17946E-05  2376   0.477E-02    0.473E-03
DAV:   7    -0.151427899972E+03    0.34972E-04   -0.22861E-05  2460   0.106E-01    0.907E-03
DAV:   8    -0.151427836234E+03    0.63738E-04   -0.92058E-05  3580   0.236E-01    0.956E-03
DAV:   9    -0.151427835865E+03    0.36897E-06   -0.15996E-04  3096   0.842E-02    0.760E-03
DAV:  10    -0.151427841954E+03   -0.60890E-05   -0.83960E-05  2772   0.335E-02
  34 F= -.15142784E+03 E0= -.15142535E+03  d E =0.195098E-04
       N       E                     dE             d eps       ncg     rms          rms(c)
DAV:   1    -0.151427838265E+03   -0.24003E-05   -0.77576E-03  2952   0.388E-01    0.108E-02
DAV:   2    -0.151427853578E+03   -0.15313E-04   -0.17960E-04  3108   0.538E-02    0.794E-03
DAV:   3    -0.151427852121E+03    0.14571E-05   -0.16642E-06  1620   0.779E-03    0.574E-03
DAV:   4    -0.151427850282E+03    0.18380E-05   -0.21574E-06  1768   0.153E-02    0.186E-03
DAV:   5    -0.151427849945E+03    0.33725E-06   -0.33817E-06  1652   0.109E-02    0.172E-03
DAV:   6    -0.151427849865E+03    0.80037E-07   -0.80071E-07  1572   0.378E-03
  35 F= -.15142785E+03 E0= -.15142535E+03  d E =0.115982E-04
       N       E                     dE             d eps       ncg     rms          rms(c)
DAV:   1    -0.151428146282E+03   -0.29634E-03   -0.16072E-02  2880   0.565E-01    0.198E-02
DAV:   2    -0.151428182862E+03   -0.36580E-04   -0.46357E-04  3284   0.885E-02    0.128E-02
DAV:   3    -0.151428180099E+03    0.27627E-05   -0.12673E-05  1876   0.175E-02    0.992E-03
DAV:   4    -0.151428177580E+03    0.25190E-05   -0.97558E-06  1844   0.160E-02    0.380E-03
DAV:   5    -0.151428176859E+03    0.72117E-06   -0.44656E-06  1804   0.131E-02    0.433E-03
DAV:   6    -0.151428176318E+03    0.54109E-06   -0.20973E-06  1576   0.995E-03
  36 F= -.15142818E+03 E0= -.15142568E+03  d E =-.326452E-03
       N       E                     dE             d eps       ncg     rms          rms(c)
DAV:   1    -0.151428370729E+03   -0.19387E-03   -0.14490E-01  2856   0.169E+00    0.584E-02
DAV:   2    -0.151428697466E+03   -0.32674E-03   -0.42027E-03  3300   0.267E-01    0.392E-02
DAV:   3    -0.151428671398E+03    0.26067E-04   -0.12801E-04  3300   0.523E-02    0.309E-02
DAV:   4    -0.151428646172E+03    0.25227E-04   -0.85847E-05  3208   0.418E-02    0.131E-02
DAV:   5    -0.151428632127E+03    0.14045E-04   -0.26635E-05  2404   0.374E-02    0.135E-02
DAV:   6    -0.151428621323E+03    0.10804E-04   -0.21453E-05  2480   0.391E-02    0.830E-03
DAV:   7    -0.151428620495E+03    0.82844E-06   -0.21300E-05  2092   0.186E-02
  37 F= -.15142862E+03 E0= -.15142611E+03  d E =-.770630E-03
       N       E                     dE             d eps       ncg     rms          rms(c)
DAV:   1    -0.151428898498E+03   -0.27718E-03   -0.13106E-02  2864   0.507E-01    0.188E-02
DAV:   2    -0.151428914981E+03   -0.16483E-04   -0.32476E-04  3240   0.804E-02    0.106E-02
DAV:   3    -0.151428905654E+03    0.93267E-05   -0.17686E-05  2072   0.287E-02    0.742E-03
DAV:   4    -0.151428893070E+03    0.12584E-04   -0.23619E-06  1952   0.263E-02    0.479E-03
DAV:   5    -0.151428863352E+03    0.29718E-04   -0.11000E-05  2212   0.705E-02    0.480E-03
DAV:   6    -0.151428845551E+03    0.17801E-04   -0.20663E-05  2508   0.607E-02    0.404E-03
DAV:   7    -0.151428805043E+03    0.40508E-04   -0.36213E-05  2644   0.174E-01    0.960E-03
DAV:   8    -0.151428791184E+03    0.13858E-04   -0.11438E-04  3844   0.155E-01    0.911E-03
DAV:   9    -0.151428797160E+03   -0.59751E-05   -0.10224E-04  2816   0.375E-02    0.840E-03
DAV:  10    -0.151428796135E+03    0.10246E-05   -0.70751E-06  1704   0.158E-02
  38 F= -.15142880E+03 E0= -.15142629E+03  d E =-.175640E-03
       N       E                     dE             d eps       ncg     rms          rms(c)
DAV:   1    -0.151428824738E+03   -0.27578E-04   -0.19670E-03  2984   0.196E-01    0.696E-03
DAV:   2    -0.151428828994E+03   -0.42569E-05   -0.50418E-05  2976   0.287E-02    0.375E-03
DAV:   3    -0.151428828343E+03    0.65113E-06   -0.78592E-07  1620   0.750E-03    0.258E-03
DAV:   4    -0.151428827193E+03    0.11500E-05   -0.60362E-07  1740   0.132E-02    0.105E-03
DAV:   5    -0.151428826580E+03    0.61332E-06   -0.12872E-06  1696   0.987E-03    0.119E-03
DAV:   6    -0.151428826004E+03    0.57574E-06   -0.32883E-07  1680   0.778E-03
  39 F= -.15142883E+03 E0= -.15142631E+03  d E =-.205510E-03
       N       E                     dE             d eps       ncg     rms          rms(c)
DAV:   1    -0.151428827412E+03   -0.83226E-06   -0.77482E-03  2904   0.392E-01    0.144E-02
DAV:   2    -0.151428842380E+03   -0.14968E-04   -0.23149E-04  3244   0.685E-02    0.882E-03
DAV:   3    -0.151428838714E+03    0.36662E-05   -0.10732E-05  1876   0.179E-02    0.648E-03
DAV:   4    -0.151428832978E+03    0.57356E-05   -0.22141E-06  1916   0.167E-02    0.359E-03
DAV:   5    -0.151428825003E+03    0.79754E-05   -0.43809E-06  1980   0.311E-02    0.369E-03
DAV:   6    -0.151428819467E+03    0.55354E-05   -0.66383E-06  2048   0.326E-02
  40 F= -.15142882E+03 E0= -.15142631E+03  d E =-.198973E-03
       N       E                     dE             d eps       ncg     rms          rms(c)
DAV:   1    -0.151428918085E+03   -0.93083E-04   -0.60516E-02  2944   0.107E+00    0.331E-02
DAV:   2    -0.151429053617E+03   -0.13553E-03   -0.15293E-03  3304   0.157E-01    0.217E-02
DAV:   3    -0.151429042107E+03    0.11510E-04   -0.18715E-05  2200   0.226E-02    0.153E-02
DAV:   4    -0.151429031268E+03    0.10839E-04   -0.48407E-05  2832   0.370E-02    0.756E-03
DAV:   5    -0.151429030449E+03    0.81850E-06   -0.11224E-05  1732   0.173E-02    0.709E-03
DAV:   6    -0.151429029402E+03    0.10471E-05   -0.38111E-06  1704   0.110E-02
  41 F= -.15142903E+03 E0= -.15142651E+03  d E =-.209935E-03
       N       E                     dE             d eps       ncg     rms          rms(c)
DAV:   1    -0.151428918775E+03    0.11167E-03   -0.13042E-01  2888   0.156E+00    0.475E-02
DAV:   2    -0.151429187599E+03   -0.26882E-03   -0.30937E-03  3300   0.225E-01    0.295E-02
DAV:   3    -0.151429165725E+03    0.21874E-04   -0.51550E-05  3276   0.387E-02    0.215E-02
DAV:   4    -0.151429144821E+03    0.20904E-04   -0.51546E-05  2968   0.400E-02    0.946E-03
DAV:   5    -0.151429138618E+03    0.62034E-05   -0.16337E-05  2060   0.307E-02    0.846E-03
DAV:   6    -0.151429134895E+03    0.37230E-05   -0.18927E-05  2344   0.297E-02
  42 F= -.15142913E+03 E0= -.15142662E+03  d E =-.315428E-03
       N       E                     dE             d eps       ncg     rms          rms(c)
DAV:   1    -0.151429305405E+03   -0.16679E-03   -0.74505E-02  3024   0.119E+00    0.349E-02
DAV:   2    -0.151429463971E+03   -0.15857E-03   -0.17024E-03  3108   0.164E-01    0.200E-02
DAV:   3    -0.151429453020E+03    0.10951E-04   -0.13177E-05  2160   0.213E-02    0.134E-02
DAV:   4    -0.151429441187E+03    0.11833E-04   -0.20279E-05  2384   0.355E-02    0.338E-03
DAV:   5    -0.151429440332E+03    0.85532E-06   -0.15867E-05  1744   0.207E-02    0.406E-03
DAV:   6    -0.151429439272E+03    0.10599E-05   -0.30541E-06  1668   0.929E-03
  43 F= -.15142944E+03 E0= -.15142692E+03  d E =-.304377E-03
       N       E                     dE             d eps       ncg     rms          rms(c)
DAV:   1    -0.151428682530E+03    0.75780E-03   -0.66977E-01  3032   0.358E+00    0.104E-01
DAV:   2    -0.151430082640E+03   -0.14001E-02   -0.15284E-02  3208   0.496E-01    0.601E-02
DAV:   3    -0.151429973185E+03    0.10945E-03   -0.15958E-04  3440   0.741E-02    0.407E-02
DAV:   4    -0.151429837876E+03    0.13531E-03   -0.12383E-04  3292   0.103E-01    0.152E-02
DAV:   5    -0.151429789143E+03    0.48733E-04   -0.11322E-04  3172   0.850E-02    0.126E-02
DAV:   6    -0.151429756651E+03    0.32493E-04   -0.83985E-05  3060   0.700E-02    0.994E-03
DAV:   7    -0.151429686455E+03    0.70196E-04   -0.17688E-05  2248   0.979E-02    0.108E-02
DAV:   8    -0.151429596750E+03    0.89705E-04   -0.47842E-05  3076   0.135E-01    0.101E-02
DAV:   9    -0.151429506899E+03    0.89851E-04   -0.59064E-05  3324   0.190E-01    0.137E-02
DAV:  10    -0.151429401550E+03    0.10535E-03   -0.24638E-04  4324   0.400E-01    0.106E-02
DAV:  11    -0.151429438710E+03   -0.37160E-04   -0.52135E-04  3244   0.115E-01    0.121E-02
DAV:  12    -0.151429436091E+03    0.26191E-05   -0.81408E-05  2944   0.802E-02
  44 F= -.15142944E+03 E0= -.15142691E+03  d E =-.301196E-03
       N       E                     dE             d eps       ncg     rms          rms(c)
DAV:   1    -0.151429390921E+03    0.47789E-04   -0.15893E-01  2984   0.174E+00    0.529E-02
DAV:   2    -0.151429720097E+03   -0.32918E-03   -0.36725E-03  3228   0.242E-01    0.314E-02
DAV:   3    -0.151429689606E+03    0.30491E-04   -0.32857E-05  2672   0.343E-02    0.206E-02
DAV:   4    -0.151429653416E+03    0.36189E-04   -0.41928E-05  2960   0.592E-02    0.580E-03
DAV:   5    -0.151429647502E+03    0.59143E-05   -0.38079E-05  2896   0.396E-02    0.537E-03
DAV:   6    -0.151429638230E+03    0.92717E-05   -0.28895E-06  1912   0.351E-02
  45 F= -.15142964E+03 E0= -.15142711E+03  d E =-.503335E-03
       N       E                     dE             d eps       ncg     rms          rms(c)
DAV:   1    -0.151429593533E+03    0.53969E-04   -0.32348E-02  2952   0.793E-01    0.229E-02
DAV:   2    -0.151429664104E+03   -0.70571E-04   -0.83756E-04  3264   0.121E-01    0.164E-02
DAV:   3    -0.151429654370E+03    0.97344E-05   -0.12414E-05  1876   0.195E-02    0.120E-02
DAV:   4    -0.151429633763E+03    0.20607E-04   -0.19904E-05  2348   0.378E-02    0.579E-03
DAV:   5    -0.151429628548E+03    0.52145E-05   -0.83292E-06  1800   0.214E-02    0.544E-03
DAV:   6    -0.151429619742E+03    0.88068E-05   -0.80249E-06  1960   0.365E-02
  46 F= -.15142962E+03 E0= -.15142709E+03  d E =-.484847E-03
       N       E                     dE             d eps       ncg     rms          rms(c)
DAV:   1    -0.151429773180E+03   -0.14463E-03   -0.29202E-02  2936   0.764E-01    0.278E-02
DAV:   2    -0.151429855206E+03   -0.82026E-04   -0.10294E-03  3284   0.130E-01    0.253E-02
DAV:   3    -0.151429842330E+03    0.12876E-04   -0.35432E-05  2776   0.300E-02    0.161E-02
DAV:   4    -0.151429830293E+03    0.12037E-04   -0.21349E-05  2096   0.234E-02    0.727E-03
DAV:   5    -0.151429822511E+03    0.77818E-05   -0.82806E-06  2048   0.236E-02    0.527E-03
DAV:   6    -0.151429811794E+03    0.10718E-04   -0.12046E-05  2172   0.404E-02    0.393E-03
DAV:   7    -0.151429807589E+03    0.42052E-05   -0.16253E-05  2260   0.260E-02
  47 F= -.15142981E+03 E0= -.15142728E+03  d E =-.187847E-03
       N       E                     dE             d eps       ncg     rms          rms(c)
DAV:   1    -0.151429811796E+03   -0.25630E-08   -0.88566E-02  2920   0.132E+00    0.420E-02
DAV:   2    -0.151429983624E+03   -0.17183E-03   -0.22025E-03  3288   0.197E-01    0.246E-02
DAV:   3    -0.151429965107E+03    0.18518E-04   -0.67307E-05  3280   0.409E-02    0.184E-02
DAV:   4    -0.151429945541E+03    0.19566E-04   -0.19483E-05  2052   0.261E-02    0.957E-03
DAV:   5    -0.151429925639E+03    0.19902E-04   -0.21344E-05  2436   0.429E-02    0.815E-03
DAV:   6    -0.151429915174E+03    0.10464E-04   -0.29606E-05  2656   0.466E-02    0.522E-03
DAV:   7    -0.151429914302E+03    0.87264E-06   -0.28768E-05  2464   0.250E-02
  48 F= -.15142991E+03 E0= -.15142738E+03  d E =-.294560E-03
       N       E                     dE             d eps       ncg     rms          rms(c)
DAV:   1    -0.151430057966E+03   -0.14279E-03   -0.29819E-02  2864   0.755E-01    0.254E-02
DAV:   2    -0.151430123943E+03   -0.65977E-04   -0.76825E-04  3184   0.109E-01    0.122E-02
DAV:   3    -0.151430118904E+03    0.50387E-05   -0.13150E-05  2020   0.215E-02    0.844E-03
DAV:   4    -0.151430112356E+03    0.65481E-05   -0.47690E-06  1864   0.217E-02    0.369E-03
DAV:   5    -0.151430106987E+03    0.53696E-05   -0.40215E-06  1916   0.256E-02    0.374E-03
DAV:   6    -0.151430101160E+03    0.58264E-05   -0.50879E-06  1940   0.339E-02
  49 F= -.15143010E+03 E0= -.15142756E+03  d E =-.186858E-03
       N       E                     dE             d eps       ncg     rms          rms(c)
DAV:   1    -0.151429829843E+03    0.27714E-03   -0.26812E-01  2856   0.226E+00    0.703E-02
DAV:   2    -0.151430439260E+03   -0.60942E-03   -0.68828E-03  3216   0.324E-01    0.389E-02
DAV:   3    -0.151430401166E+03    0.38094E-04   -0.11073E-04  3400   0.564E-02    0.275E-02
DAV:   4    -0.151430356384E+03    0.44782E-04   -0.45685E-05  3032   0.531E-02    0.120E-02
DAV:   5    -0.151430325957E+03    0.30427E-04   -0.24222E-05  2520   0.621E-02    0.949E-03
DAV:   6    -0.151430295806E+03    0.30151E-04   -0.34601E-05  2752   0.810E-02    0.607E-03
DAV:   7    -0.151430286765E+03    0.90409E-05   -0.49483E-05  2948   0.422E-02
  50 F= -.15143029E+03 E0= -.15142774E+03  d E =-.372463E-03
       N       E                     dE             d eps       ncg     rms          rms(c)
DAV:   1    -0.151430365910E+03   -0.70104E-04   -0.67687E-02  2912   0.115E+00    0.365E-02
DAV:   2    -0.151430509485E+03   -0.14357E-03   -0.16641E-03  3252   0.164E-01    0.187E-02
DAV:   3    -0.151430496680E+03    0.12805E-04   -0.23173E-05  2328   0.311E-02    0.128E-02
DAV:   4    -0.151430479838E+03    0.16842E-04   -0.12797E-05  2136   0.399E-02    0.482E-03
DAV:   5    -0.151430472300E+03    0.75383E-05   -0.13927E-05  2080   0.331E-02    0.646E-03
DAV:   6    -0.151430465231E+03    0.70686E-05   -0.10393E-05  2028   0.344E-02
  51 F= -.15143047E+03 E0= -.15142791E+03  d E =-.178466E-03
       N       E                     dE             d eps       ncg     rms          rms(c)
DAV:   1    -0.151429574488E+03    0.89781E-03   -0.60769E-01  2896   0.344E+00    0.101E-01
DAV:   2    -0.151430944111E+03   -0.13696E-02   -0.14766E-02  3256   0.483E-01    0.586E-02
DAV:   3    -0.151430869073E+03    0.75038E-04   -0.14557E-04  3400   0.592E-02    0.401E-02
DAV:   4    -0.151430808438E+03    0.60635E-04   -0.18801E-04  3216   0.698E-02    0.148E-02
DAV:   5    -0.151430804488E+03    0.39497E-05   -0.57562E-05  3140   0.412E-02    0.126E-02
DAV:   6    -0.151430800234E+03    0.42541E-05   -0.32682E-05  2720   0.339E-02
  52 F= -.15143080E+03 E0= -.15142824E+03  d E =-.513469E-03
       N       E                     dE             d eps       ncg     rms          rms(c)
DAV:   1    -0.151430811258E+03   -0.67696E-05   -0.17852E-01  3024   0.185E+00    0.549E-02
DAV:   2    -0.151431193509E+03   -0.38225E-03   -0.40927E-03  3112   0.255E-01    0.301E-02
DAV:   3    -0.151431169048E+03    0.24461E-04   -0.33017E-05  2648   0.326E-02    0.198E-02
DAV:   4    -0.151431143417E+03    0.25631E-04   -0.38619E-05  2956   0.524E-02    0.493E-03
DAV:   5    -0.151431140839E+03    0.25776E-05   -0.36062E-05  2864   0.331E-02    0.579E-03
DAV:   6    -0.151431137499E+03    0.33397E-05   -0.59501E-06  1720   0.151E-02
  53 F= -.15143114E+03 E0= -.15142857E+03  d E =-.337265E-03
       N       E                     dE             d eps       ncg     rms          rms(c)
DAV:   1    -0.151429284486E+03    0.18564E-02   -0.11086E+00  3024   0.462E+00    0.133E-01
DAV:   2    -0.151431612561E+03   -0.23281E-02   -0.25343E-02  3200   0.639E-01    0.767E-02
DAV:   3    -0.151431437389E+03    0.17517E-03   -0.25412E-04  3440   0.952E-02    0.512E-02
DAV:   4    -0.151431221884E+03    0.21551E-03   -0.17845E-04  3420   0.136E-01    0.180E-02
DAV:   5    -0.151431145356E+03    0.76528E-04   -0.19826E-04  3308   0.114E-01    0.135E-02
DAV:   6    -0.151431094301E+03    0.51055E-04   -0.12301E-04  3212   0.909E-02    0.125E-02
DAV:   7    -0.151431005661E+03    0.88640E-04   -0.24933E-05  2448   0.108E-01    0.125E-02
DAV:   8    -0.151430887166E+03    0.11850E-03   -0.67639E-05  3436   0.150E-01    0.903E-03
DAV:   9    -0.151430773647E+03    0.11352E-03   -0.71713E-05  3468   0.194E-01    0.111E-02
DAV:  10    -0.151430632739E+03    0.14091E-03   -0.25795E-04  4396   0.420E-01    0.155E-02
DAV:  11    -0.151430647178E+03   -0.14438E-04   -0.56928E-04  3260   0.193E-01    0.861E-03
DAV:  12    -0.151430663329E+03   -0.16152E-04   -0.25694E-04  3184   0.670E-02    0.157E-02
DAV:  13    -0.151430656467E+03    0.68623E-05   -0.19984E-05  2244   0.481E-02
  54 F= -.15143066E+03 E0= -.15142807E+03  d E =0.143767E-03
       N       E                     dE             d eps       ncg     rms          rms(c)
DAV:   1    -0.151430467101E+03    0.19623E-03   -0.46141E-01  2952   0.298E+00    0.859E-02
DAV:   2    -0.151431442840E+03   -0.97574E-03   -0.10640E-02  3256   0.412E-01    0.511E-02
DAV:   3    -0.151431368928E+03    0.73913E-04   -0.90142E-05  3392   0.524E-02    0.341E-02
DAV:   4    -0.151431279995E+03    0.88933E-04   -0.10730E-04  3300   0.909E-02    0.940E-03
DAV:   5    -0.151431267285E+03    0.12711E-04   -0.93260E-05  3152   0.586E-02    0.840E-03
DAV:   6    -0.151431251964E+03    0.15320E-04   -0.15586E-05  2100   0.415E-02    0.533E-03
DAV:   7    -0.151431225955E+03    0.26009E-04   -0.84409E-06  2004   0.624E-02    0.493E-03
DAV:   8    -0.151431203757E+03    0.22198E-04   -0.17847E-05  2304   0.585E-02    0.398E-03
DAV:   9    -0.151431169031E+03    0.34727E-04   -0.14819E-05  2336   0.119E-01    0.834E-03
DAV:  10    -0.151431138438E+03    0.30593E-04   -0.84558E-05  3624   0.187E-01    0.934E-03
DAV:  11    -0.151431140876E+03   -0.24383E-05   -0.12996E-04  2940   0.642E-02    0.670E-03
DAV:  12    -0.151431139065E+03    0.18114E-05   -0.30555E-05  2680   0.341E-02
  55 F= -.15143114E+03 E0= -.15142856E+03  d E =-.338831E-03
       N       E                     dE             d eps       ncg     rms          rms(c)
DAV:   1    -0.151431140613E+03    0.26322E-06   -0.52193E-03  2976   0.317E-01    0.192E-02
DAV:   2    -0.151431148485E+03   -0.78716E-05   -0.12988E-04  3224   0.481E-02    0.733E-03
DAV:   3    -0.151431148030E+03    0.45427E-06   -0.12526E-05  1636   0.175E-02    0.306E-03
DAV:   4    -0.151431147866E+03    0.16427E-06   -0.18926E-06  1584   0.728E-03    0.201E-03
DAV:   5    -0.151431147467E+03    0.39868E-06   -0.51540E-07  1620   0.610E-03    0.813E-04
DAV:   6    -0.151431147130E+03    0.33758E-06   -0.22007E-07  1584   0.538E-03
  56 F= -.15143115E+03 E0= -.15142857E+03  d E =-.346896E-03
       N       E                     dE             d eps       ncg     rms          rms(c)
DAV:   1    -0.151431113963E+03    0.33505E-04   -0.22378E-02  3024   0.658E-01    0.188E-02
DAV:   2    -0.151431160705E+03   -0.46743E-04   -0.51425E-04  3212   0.915E-02    0.110E-02
DAV:   3    -0.151431156942E+03    0.37638E-05   -0.44269E-06  1792   0.136E-02    0.747E-03
DAV:   4    -0.151431151625E+03    0.53162E-05   -0.46663E-06  1892   0.232E-02    0.239E-03
DAV:   5    -0.151431150302E+03    0.13235E-05   -0.54661E-06  1740   0.161E-02    0.221E-03
DAV:   6    -0.151431148436E+03    0.18657E-05   -0.13102E-06  1784   0.170E-02
  57 F= -.15143115E+03 E0= -.15142858E+03  d E =-.348202E-03
       N       E                     dE             d eps       ncg     rms          rms(c)
DAV:   1    -0.151431280518E+03   -0.13022E-03   -0.29928E-02  2928   0.754E-01    0.242E-02
DAV:   2    -0.151431337816E+03   -0.57297E-04   -0.73235E-04  3320   0.111E-01    0.160E-02
DAV:   3    -0.151431329215E+03    0.86008E-05   -0.16164E-05  2012   0.244E-02    0.110E-02
DAV:   4    -0.151431317265E+03    0.11949E-04   -0.13626E-05  2088   0.312E-02    0.492E-03
DAV:   5    -0.151431313394E+03    0.38710E-05   -0.14933E-05  2076   0.240E-02    0.553E-03
DAV:   6    -0.151431312514E+03    0.88022E-06   -0.71372E-06  1648   0.122E-02
  58 F= -.15143131E+03 E0= -.15142874E+03  d E =-.164078E-03
       N       E                     dE             d eps       ncg     rms          rms(c)
DAV:   1    -0.151431306943E+03    0.64508E-05   -0.39550E-02  2928   0.868E-01    0.277E-02
DAV:   2    -0.151431374092E+03   -0.67149E-04   -0.95588E-04  3336   0.132E-01    0.173E-02
DAV:   3    -0.151431361397E+03    0.12695E-04   -0.33001E-05  2772   0.312E-02    0.130E-02
DAV:   4    -0.151431345193E+03    0.16204E-04   -0.10936E-05  2040   0.248E-02    0.705E-03
DAV:   5    -0.151431328336E+03    0.16857E-04   -0.17677E-05  2352   0.422E-02    0.673E-03
DAV:   6    -0.151431319756E+03    0.85798E-05   -0.27621E-05  2560   0.456E-02
  59 F= -.15143132E+03 E0= -.15142874E+03  d E =-.171320E-03
       N       E                     dE             d eps       ncg     rms          rms(c)
DAV:   1    -0.151431327368E+03    0.96801E-06   -0.30365E-03  2920   0.240E-01    0.944E-03
DAV:   2    -0.151431330450E+03   -0.30826E-05   -0.62599E-05  3076   0.354E-02    0.702E-03
DAV:   3    -0.151431329532E+03    0.91798E-06   -0.61606E-06  1628   0.132E-02    0.370E-03
DAV:   4    -0.151431329085E+03    0.44736E-06   -0.11964E-06  1596   0.725E-03    0.223E-03
DAV:   5    -0.151431328263E+03    0.82143E-06   -0.66344E-07  1668   0.982E-03    0.132E-03
DAV:   6    -0.151431327968E+03    0.29592E-06   -0.10638E-06  1616   0.705E-03
  60 F= -.15143133E+03 E0= -.15142875E+03  d E =-.179531E-03
       N       E                     dE             d eps       ncg     rms          rms(c)
DAV:   1    -0.151431324920E+03    0.33435E-05   -0.37629E-03  2976   0.268E-01    0.784E-03
DAV:   2    -0.151431331586E+03   -0.66664E-05   -0.87933E-05  3152   0.390E-02    0.566E-03
DAV:   3    -0.151431330474E+03    0.11120E-05   -0.16192E-06  1684   0.863E-03    0.409E-03
DAV:   4    -0.151431328627E+03    0.18477E-05   -0.15690E-06  1916   0.133E-02    0.177E-03
DAV:   5    -0.151431328029E+03    0.59763E-06   -0.19001E-06  1588   0.999E-03    0.157E-03
DAV:   6    -0.151431327781E+03    0.24784E-06   -0.20944E-06  1672   0.107E-02
  61 F= -.15143133E+03 E0= -.15142875E+03  d E =-.179345E-03
       N       E                     dE             d eps       ncg     rms          rms(c)
DAV:   1    -0.151431400394E+03   -0.72365E-04   -0.41879E-03  2904   0.286E-01    0.987E-03
DAV:   2    -0.151431406291E+03   -0.58970E-05   -0.11070E-04  3248   0.484E-02    0.643E-03
DAV:   3    -0.151431404053E+03    0.22383E-05   -0.55484E-06  1796   0.145E-02    0.520E-03
DAV:   4    -0.151431400697E+03    0.33562E-05   -0.14912E-06  1892   0.144E-02    0.293E-03
DAV:   5    -0.151431395791E+03    0.49053E-05   -0.33409E-06  1964   0.278E-02    0.310E-03
DAV:   6    -0.151431393573E+03    0.22183E-05   -0.53686E-06  1856   0.216E-02
  62 F= -.15143139E+03 E0= -.15142882E+03  d E =-.657919E-04
