  26  26   0   0
  0.2068449E+02  0.3010651E-09  0.3010650E-09  0.6851204E-08  0.5000000E-15
  1.000000000000000E-004
  CAR 
 unknown system                          
      9.05584905    -19.49552985  301      0.50259951      1.00000000
    -19.496  0.0000E+00  0.0000E+00
    -19.400  0.0000E+00  0.0000E+00
    -19.305  0.0000E+00  0.0000E+00
    -19.210  0.0000E+00  0.0000E+00
    -19.115  0.0000E+00  0.0000E+00
    -19.020  0.0000E+00  0.0000E+00
    -18.925  0.0000E+00  0.0000E+00
    -18.829  0.0000E+00  0.0000E+00
    -18.734  0.0000E+00  0.0000E+00
    -18.639  0.0000E+00  0.0000E+00
    -18.544  0.0000E+00  0.0000E+00
    -18.449  0.7953E-13  0.7569E-14
    -18.353  0.6694E-06  0.6371E-07
    -18.258  0.7029E-02  0.6690E-03
    -18.163  0.4313E+00  0.4171E-01
    -18.068  0.1096E+01  0.1460E+00
    -17.973  0.1099E+01  0.2506E+00
    -17.878  0.1568E+01  0.3999E+00
    -17.782  0.1380E+01  0.5312E+00
    -17.687  0.1792E+01  0.7017E+00
    -17.592  0.2410E+01  0.9311E+00
    -17.497  0.2991E+01  0.1216E+01
    -17.402  0.5553E+01  0.1744E+01
    -17.307  0.3503E+01  0.2078E+01
    -17.211  0.1222E+01  0.2194E+01
    -17.116  0.1290E+01  0.2317E+01
    -17.021  0.2390E+01  0.2544E+01
    -16.926  0.2189E+01  0.2752E+01
    -16.831  0.4224E+01  0.3154E+01
    -16.736  0.3422E+01  0.3480E+01
    -16.640  0.6156E+01  0.4066E+01
    -16.545  0.5709E+01  0.4609E+01
    -16.450  0.8993E+01  0.5465E+01
    -16.355  0.1079E+02  0.6492E+01
    -16.260  0.1433E+02  0.7856E+01
    -16.165  0.1662E+02  0.9438E+01
    -16.069  0.1611E+02  0.1097E+02
    -15.974  0.1475E+02  0.1237E+02
    -15.879  0.1459E+02  0.1376E+02
    -15.784  0.1311E+02  0.1501E+02
    -15.689  0.1082E+02  0.1604E+02
    -15.594  0.8301E+01  0.1683E+02
    -15.498  0.6128E+01  0.1741E+02
    -15.403  0.5526E+01  0.1794E+02
    -15.308  0.6364E+00  0.1800E+02
    -15.213  0.1052E+00  0.1801E+02
    -15.118  0.1383E+01  0.1814E+02
    -15.022  0.2294E+01  0.1836E+02
    -14.927  0.2954E+01  0.1864E+02
    -14.832  0.4654E+01  0.1908E+02
    -14.737  0.7684E+01  0.1982E+02
    -14.642  0.1931E+01  0.2000E+02
    -14.547  0.1119E-01  0.2000E+02
    -14.451  0.1913E-06  0.2000E+02
    -14.356  0.3645E-14  0.2000E+02
    -14.261  0.0000E+00  0.2000E+02
    -14.166  0.0000E+00  0.2000E+02
    -14.071  0.0000E+00  0.2000E+02
    -13.976  0.0000E+00  0.2000E+02
    -13.880  0.0000E+00  0.2000E+02
    -13.785  0.0000E+00  0.2000E+02
    -13.690  0.0000E+00  0.2000E+02
    -13.595  0.0000E+00  0.2000E+02
    -13.500  0.0000E+00  0.2000E+02
    -13.405  0.0000E+00  0.2000E+02
    -13.309  0.0000E+00  0.2000E+02
    -13.214  0.0000E+00  0.2000E+02
    -13.119  0.0000E+00  0.2000E+02
    -13.024  0.0000E+00  0.2000E+02
    -12.929  0.0000E+00  0.2000E+02
    -12.834  0.0000E+00  0.2000E+02
    -12.738  0.0000E+00  0.2000E+02
    -12.643  0.0000E+00  0.2000E+02
    -12.548  0.0000E+00  0.2000E+02
    -12.453  0.0000E+00  0.2000E+02
    -12.358  0.0000E+00  0.2000E+02
    -12.263  0.0000E+00  0.2000E+02
    -12.167  0.0000E+00  0.2000E+02
    -12.072  0.0000E+00  0.2000E+02
    -11.977  0.0000E+00  0.2000E+02
    -11.882  0.0000E+00  0.2000E+02
    -11.787  0.0000E+00  0.2000E+02
    -11.691  0.0000E+00  0.2000E+02
    -11.596  0.0000E+00  0.2000E+02
    -11.501  0.0000E+00  0.2000E+02
    -11.406  0.0000E+00  0.2000E+02
    -11.311  0.0000E+00  0.2000E+02
    -11.216  0.0000E+00  0.2000E+02
    -11.120  0.0000E+00  0.2000E+02
    -11.025  0.0000E+00  0.2000E+02
    -10.930  0.0000E+00  0.2000E+02
    -10.835  0.0000E+00  0.2000E+02
    -10.740  0.0000E+00  0.2000E+02
    -10.645  0.0000E+00  0.2000E+02
    -10.549  0.0000E+00  0.2000E+02
    -10.454  0.0000E+00  0.2000E+02
    -10.359  0.1386E-12  0.2000E+02
    -10.264  0.9379E-06  0.2000E+02
    -10.169  0.6336E-02  0.2000E+02
    -10.074  0.1037E+00  0.2001E+02
     -9.978  0.4218E+00  0.2005E+02
     -9.883  0.3368E+00  0.2008E+02
     -9.788  0.3190E-01  0.2009E+02
     -9.693  0.6531E+00  0.2015E+02
     -9.598  0.7054E+00  0.2021E+02
     -9.503  0.9461E+00  0.2031E+02
     -9.407  0.3073E-01  0.2031E+02
     -9.312  0.3777E+00  0.2034E+02
     -9.217  0.1204E+01  0.2046E+02
     -9.122  0.1367E+01  0.2059E+02
     -9.027  0.9704E-01  0.2060E+02
     -8.932  0.7188E+00  0.2067E+02
     -8.836  0.1058E+01  0.2077E+02
     -8.741  0.1217E+01  0.2088E+02
     -8.646  0.3502E+00  0.2092E+02
     -8.551  0.1496E+01  0.2106E+02
     -8.456  0.1796E+01  0.2123E+02
     -8.360  0.8778E+00  0.2131E+02
     -8.265  0.1215E-01  0.2131E+02
     -8.170  0.6251E+00  0.2137E+02
     -8.075  0.2264E+01  0.2159E+02
     -7.980  0.1792E+01  0.2176E+02
     -7.885  0.9914E+00  0.2185E+02
     -7.789  0.4219E+00  0.2189E+02
     -7.694  0.1296E+01  0.2202E+02
     -7.599  0.1850E+01  0.2219E+02
     -7.504  0.1041E+01  0.2229E+02
     -7.409  0.1884E+01  0.2247E+02
     -7.314  0.1872E+01  0.2265E+02
     -7.218  0.1547E+01  0.2280E+02
     -7.123  0.9715E+00  0.2289E+02
     -7.028  0.1425E+01  0.2303E+02
     -6.933  0.1821E+01  0.2320E+02
     -6.838  0.6331E+00  0.2326E+02
     -6.743  0.6638E+00  0.2332E+02
     -6.647  0.1601E+01  0.2347E+02
     -6.552  0.3105E+01  0.2377E+02
     -6.457  0.2796E+01  0.2404E+02
     -6.362  0.2178E+01  0.2424E+02
     -6.267  0.7990E+00  0.2432E+02
     -6.172  0.2303E+01  0.2454E+02
     -6.076  0.2345E+01  0.2476E+02
     -5.981  0.6964E+00  0.2483E+02
     -5.886  0.1047E+01  0.2493E+02
     -5.791  0.2446E+01  0.2516E+02
     -5.696  0.1447E+01  0.2530E+02
     -5.601  0.2253E+01  0.2551E+02
     -5.505  0.3281E+01  0.2582E+02
     -5.410  0.3123E+01  0.2612E+02
     -5.315  0.2413E+01  0.2635E+02
     -5.220  0.2590E+01  0.2660E+02
     -5.125  0.3435E+01  0.2692E+02
     -5.029  0.3295E+01  0.2724E+02
     -4.934  0.2821E+01  0.2751E+02
     -4.839  0.5524E+01  0.2803E+02
     -4.744  0.4294E+01  0.2844E+02
     -4.649  0.6532E+01  0.2906E+02
     -4.554  0.8368E+01  0.2986E+02
     -4.458  0.6023E+01  0.3043E+02
     -4.363  0.5922E+01  0.3100E+02
     -4.268  0.4643E+01  0.3144E+02
     -4.173  0.8563E+01  0.3225E+02
     -4.078  0.1085E+02  0.3329E+02
     -3.983  0.1274E+02  0.3450E+02
     -3.887  0.1640E+02  0.3606E+02
     -3.792  0.1488E+02  0.3747E+02
     -3.697  0.1473E+02  0.3888E+02
     -3.602  0.1359E+02  0.4017E+02
     -3.507  0.1783E+02  0.4187E+02
     -3.412  0.1231E+02  0.4304E+02
     -3.316  0.1061E+02  0.4405E+02
     -3.221  0.1118E+02  0.4511E+02
     -3.126  0.1079E+02  0.4614E+02
     -3.031  0.1245E+02  0.4732E+02
     -2.936  0.1100E+02  0.4837E+02
     -2.841  0.7526E+01  0.4909E+02
     -2.745  0.9870E+01  0.5003E+02
     -2.650  0.1216E+02  0.5118E+02
     -2.555  0.9938E+01  0.5213E+02
     -2.460  0.1011E+02  0.5309E+02
     -2.365  0.1516E+02  0.5454E+02
     -2.270  0.1519E+02  0.5598E+02
     -2.174  0.1057E+02  0.5699E+02
     -2.079  0.1389E+02  0.5831E+02
     -1.984  0.1833E+02  0.6005E+02
     -1.889  0.1467E+02  0.6145E+02
     -1.794  0.1445E+02  0.6283E+02
     -1.699  0.2117E+02  0.6484E+02
     -1.603  0.2221E+02  0.6695E+02
     -1.508  0.1810E+02  0.6868E+02
     -1.413  0.2086E+02  0.7066E+02
     -1.318  0.2070E+02  0.7263E+02
     -1.223  0.2418E+02  0.7493E+02
     -1.127  0.2313E+02  0.7714E+02
     -1.032  0.2061E+02  0.7910E+02
     -0.937  0.2445E+02  0.8142E+02
     -0.842  0.2097E+02  0.8342E+02
     -0.747  0.1777E+02  0.8511E+02
     -0.652  0.2116E+02  0.8712E+02
     -0.556  0.1965E+02  0.8900E+02
     -0.461  0.1524E+02  0.9045E+02
     -0.366  0.1252E+02  0.9164E+02
     -0.271  0.1100E+02  0.9268E+02
     -0.176  0.9014E+01  0.9354E+02
     -0.081  0.4881E+01  0.9401E+02
      0.015  0.6501E+01  0.9463E+02
      0.110  0.5915E+01  0.9519E+02
      0.205  0.8419E+01  0.9599E+02
      0.300  0.6369E+01  0.9660E+02
      0.395  0.7687E+01  0.9733E+02
      0.490  0.1561E+02  0.9881E+02
      0.586  0.1169E+02  0.9993E+02
      0.681  0.3782E+01  0.1003E+03
      0.776  0.2956E+01  0.1006E+03
      0.871  0.1287E+01  0.1007E+03
      0.966  0.1916E+01  0.1009E+03
      1.061  0.5459E+01  0.1014E+03
      1.157  0.5312E+01  0.1019E+03
      1.252  0.2748E+01  0.1022E+03
      1.347  0.4611E+01  0.1026E+03
      1.442  0.3446E+01  0.1029E+03
      1.537  0.2488E+01  0.1032E+03
      1.632  0.4682E+01  0.1036E+03
      1.728  0.4670E+01  0.1041E+03
      1.823  0.2830E+01  0.1043E+03
      1.918  0.2200E+01  0.1045E+03
      2.013  0.6458E+00  0.1046E+03
      2.108  0.1594E+01  0.1047E+03
      2.204  0.2504E+01  0.1050E+03
      2.299  0.5158E+01  0.1055E+03
      2.394  0.5042E+01  0.1060E+03
      2.489  0.2485E+01  0.1062E+03
      2.584  0.3770E+01  0.1065E+03
      2.679  0.2525E+01  0.1068E+03
      2.775  0.2328E+01  0.1070E+03
      2.870  0.3412E+01  0.1073E+03
      2.965  0.4590E+01  0.1078E+03
      3.060  0.4888E+01  0.1082E+03
      3.155  0.3702E+01  0.1086E+03
      3.250  0.5520E+01  0.1091E+03
      3.346  0.3114E+01  0.1094E+03
      3.441  0.2696E+01  0.1097E+03
      3.536  0.3015E+01  0.1100E+03
      3.631  0.4087E+01  0.1103E+03
      3.726  0.2396E+01  0.1106E+03
      3.821  0.3985E+01  0.1110E+03
      3.917  0.2817E+01  0.1112E+03
      4.012  0.2485E+01  0.1115E+03
      4.107  0.4744E+01  0.1119E+03
      4.202  0.3311E+01  0.1122E+03
      4.297  0.2402E+01  0.1125E+03
      4.392  0.5269E+01  0.1130E+03
      4.488  0.4031E+01  0.1133E+03
      4.583  0.7064E+01  0.1140E+03
      4.678  0.5120E+01  0.1145E+03
      4.773  0.6420E+01  0.1151E+03
      4.868  0.2680E+01  0.1154E+03
      4.963  0.2573E+01  0.1156E+03
      5.059  0.2717E+01  0.1159E+03
      5.154  0.4188E+01  0.1163E+03
      5.249  0.4992E+01  0.1167E+03
      5.344  0.3153E+01  0.1170E+03
      5.439  0.4863E+01  0.1175E+03
      5.535  0.5808E+01  0.1181E+03
      5.630  0.5364E+01  0.1186E+03
      5.725  0.4427E+01  0.1190E+03
      5.820  0.4924E+01  0.1195E+03
      5.915  0.5377E+01  0.1200E+03
      6.010  0.4623E+01  0.1204E+03
      6.106  0.4933E+01  0.1209E+03
      6.201  0.6973E+01  0.1215E+03
      6.296  0.3661E+01  0.1219E+03
      6.391  0.6185E+01  0.1225E+03
      6.486  0.6093E+01  0.1231E+03
      6.581  0.7951E+01  0.1238E+03
      6.677  0.3473E+01  0.1241E+03
      6.772  0.4501E+01  0.1246E+03
      6.867  0.3855E+01  0.1249E+03
      6.962  0.6370E+01  0.1255E+03
      7.057  0.5576E+01  0.1261E+03
      7.152  0.7345E+01  0.1268E+03
      7.248  0.3098E+01  0.1271E+03
      7.343  0.4204E+01  0.1275E+03
      7.438  0.2293E+01  0.1277E+03
      7.533  0.1438E+01  0.1278E+03
      7.628  0.2187E+00  0.1278E+03
      7.723  0.9599E+00  0.1279E+03
      7.819  0.6510E+00  0.1280E+03
      7.914  0.1236E-01  0.1280E+03
      8.009  0.8155E-06  0.1280E+03
      8.104  0.8278E-13  0.1280E+03
      8.199  0.0000E+00  0.1280E+03
      8.294  0.0000E+00  0.1280E+03
      8.390  0.0000E+00  0.1280E+03
      8.485  0.0000E+00  0.1280E+03
      8.580  0.0000E+00  0.1280E+03
      8.675  0.0000E+00  0.1280E+03
      8.770  0.0000E+00  0.1280E+03
      8.866  0.0000E+00  0.1280E+03
      8.961  0.0000E+00  0.1280E+03
      9.056  0.0000E+00  0.1280E+03
