 vasp.5.4.4.18Apr17-6-g9f103f2a35 (build Nov 15 2019 10:10:58) complex          
  
 executed on             LinuxIFC date 2025.01.15  07:33:59
 running on   16 total cores
 distrk:  each k-point on   16 cores,    1 groups
 distr:  one band on NCORES_PER_BAND=   4 cores,    4 groups


--------------------------------------------------------------------------------------------------------


 INCAR:
 POTCAR:   PAW_PBE O 08Apr2002                    
 POTCAR:   PAW_PBE Mg 05Jan2001                   
 POTCAR:   PAW_PBE Al 04Jan2001                   
 POTCAR:   PAW_PBE O 08Apr2002                    
   VRHFIN =O: s2p4                                                              
   LEXCH  = PE                                                                  
   EATOM  =   432.3788 eV,   31.7789 Ry                                         
                                                                                
   TITEL  = PAW_PBE O 08Apr2002                                                 
   LULTRA =        F    use ultrasoft PP ?                                      
   IUNSCR =        0    unscreen: 0-lin 1-nonlin 2-no                           
   RPACOR =     .000    partial core radius                                     
   POMASS =   16.000; ZVAL   =    6.000    mass and valenz                      
   RCORE  =    1.520    outmost cutoff radius                                   
   RWIGS  =    1.550; RWIGS  =     .820    wigner-seitz radius (au A)           
   ENMAX  =  400.000; ENMIN  =  300.000 eV                                      
   ICORE  =        2    local potential                                         
   LCOR   =        T    correct aug charges                                     
   LPAW   =        T    paw PP                                                  
   EAUG   =  605.392                                                            
   DEXC   =     .000                                                            
   RMAX   =    2.264    core radius for proj-oper                               
   RAUG   =    1.300    factor for augmentation sphere                          
   RDEP   =    1.550    radius for radial grids                                 
   QCUT   =   -5.520; QGAM   =   11.041    optimization parameters              
                                                                                
   Description                                                                  
     l     E      TYP  RCUT    TYP  RCUT                                        
     0   .000     23  1.200                                                     
     0  -.700     23  1.200                                                     
     1   .000     23  1.520                                                     
     1   .600     23  1.520                                                     
     2   .000      7  1.500                                                     
  local pseudopotential read in
  atomic valenz-charges read in
  non local Contribution for L=           0  read in
    real space projection operators read in
  non local Contribution for L=           0  read in
    real space projection operators read in
  non local Contribution for L=           1  read in
    real space projection operators read in
  non local Contribution for L=           1  read in
    real space projection operators read in
    PAW grid and wavefunctions read in
 
   number of l-projection  operators is LMAX  =           4
   number of lm-projection operators is LMMAX =           8
 
 POTCAR:   PAW_PBE Mg 05Jan2001                   
   VRHFIN =Mg: s2p0                                                             
   LEXCH  = PE                                                                  
   EATOM  =    23.0029 eV,    1.6907 Ry                                         
                                                                                
   TITEL  = PAW_PBE Mg 05Jan2001                                                
   LULTRA =        F    use ultrasoft PP ?                                      
   IUNSCR =        1    unscreen: 0-lin 1-nonlin 2-no                           
   RPACOR =    2.000    partial core radius                                     
   POMASS =   24.305; ZVAL   =    2.000    mass and valenz                      
   RCORE  =    2.000    outmost cutoff radius                                   
   RWIGS  =    2.880; RWIGS  =    1.524    wigner-seitz radius (au A)           
   ENMAX  =  210.012; ENMIN  =  157.509 eV                                      
   ICORE  =        2    local potential                                         
   LCOR   =        T    correct aug charges                                     
   LPAW   =        T    paw PP                                                  
   EAUG   =  274.554                                                            
   DEXC   =    -.136                                                            
   RMAX   =    3.182    core radius for proj-oper                               
   RAUG   =    1.300    factor for augmentation sphere                          
   RDEP   =    2.025    radius for radial grids                                 
   QCUT   =   -3.929; QGAM   =    7.858    optimization parameters              
                                                                                
   Description                                                                  
     l     E      TYP  RCUT    TYP  RCUT                                        
     0   .000     23  2.000                                                     
     0  2.000     23  2.000                                                     
     1   .000     23  2.000                                                     
     1  2.000     23  2.000                                                     
     2   .000     23  2.000                                                     
  local pseudopotential read in
  partial core-charges read in
  atomic valenz-charges read in
  non local Contribution for L=           0  read in
    real space projection operators read in
  non local Contribution for L=           0  read in
    real space projection operators read in
  non local Contribution for L=           1  read in
    real space projection operators read in
  non local Contribution for L=           1  read in
    real space projection operators read in
    PAW grid and wavefunctions read in
 
   number of l-projection  operators is LMAX  =           4
   number of lm-projection operators is LMMAX =           8
 
 POTCAR:   PAW_PBE Al 04Jan2001                   
   VRHFIN =Al: s2p1                                                             
   LEXCH  = PE                                                                  
   EATOM  =    53.5387 eV,    3.9350 Ry                                         
                                                                                
   TITEL  = PAW_PBE Al 04Jan2001                                                
   LULTRA =        F    use ultrasoft PP ?                                      
   IUNSCR =        1    unscreen: 0-lin 1-nonlin 2-no                           
   RPACOR =    1.500    partial core radius                                     
   POMASS =   26.982; ZVAL   =    3.000    mass and valenz                      
   RCORE  =    1.900    outmost cutoff radius                                   
   RWIGS  =    2.650; RWIGS  =    1.402    wigner-seitz radius (au A)           
   ENMAX  =  240.300; ENMIN  =  180.225 eV                                      
   ICORE  =        2    local potential                                         
   LCOR   =        T    correct aug charges                                     
   LPAW   =        T    paw PP                                                  
   EAUG   =  291.052                                                            
   DEXC   =    -.041                                                            
   RMAX   =    2.974    core radius for proj-oper                               
   RAUG   =    1.300    factor for augmentation sphere                          
   RDEP   =    1.966    radius for radial grids                                 
   QCUT   =   -4.203; QGAM   =    8.405    optimization parameters              
                                                                                
   Description                                                                  
     l     E      TYP  RCUT    TYP  RCUT                                        
     0   .000     23  1.900                                                     
     0   .000     23  1.900                                                     
     1   .000     23  1.900                                                     
     1  1.000     23  1.900                                                     
     2   .000      7  1.900                                                     
  local pseudopotential read in
  partial core-charges read in
  atomic valenz-charges read in
  non local Contribution for L=           0  read in
    real space projection operators read in
  non local Contribution for L=           0  read in
    real space projection operators read in
  non local Contribution for L=           1  read in
    real space projection operators read in
  non local Contribution for L=           1  read in
    real space projection operators read in
    PAW grid and wavefunctions read in
 
   number of l-projection  operators is LMAX  =           4
   number of lm-projection operators is LMMAX =           8
 

 ----------------------------------------------------------------------------- 
|                                                                             |
|  ADVICE TO THIS USER RUNNING 'VASP/VAMP'   (HEAR YOUR MASTER'S VOICE ...):  |
|                                                                             |
|      You have a (more or less) 'large supercell' and for larger cells       |
|      it might be more efficient to use real space projection operators      |
|      So try LREAL= Auto  in the INCAR   file.                               |
|      Mind: If you want to do a very accurate calculations keep the          |
|      reciprocal projection scheme          (i.e. LREAL=.FALSE.)             |
|                                                                             |
 ----------------------------------------------------------------------------- 

 PAW_PBE O 08Apr2002                    :
 energy of atom  1       EATOM= -432.3788
 kinetic energy error for atom=    0.0208 (will be added to EATOM!!)
 PAW_PBE Mg 05Jan2001                   :
 energy of atom  2       EATOM=  -23.0029
 kinetic energy error for atom=    0.0000 (will be added to EATOM!!)
 PAW_PBE Al 04Jan2001                   :
 energy of atom  3       EATOM=  -53.5387
 kinetic energy error for atom=    0.0002 (will be added to EATOM!!)
 
 
 POSCAR: Layer (26)                              
  positions in direct lattice
  velocities in cartesian coordinates
 exchange correlation table for  LEXCH =        8
   RHO(1)=    0.500       N(1)  =     2000
   RHO(2)=  100.500       N(2)  =     4000

 VTST: version 3.2, (02/03/18)

 CHAIN: initializing optimizer
 
 OPT: Using VASP Conjugate-Gradient optimizer
 CHAIN: Read ICHAIN            0
 
 POSCAR: Layer (26)                              
  positions in direct lattice
  velocities in cartesian coordinates
 


--------------------------------------------------------------------------------------------------------


 ion  position               nearest neighbor table
   1  0.000  0.000  0.450-  22 1.72  14 2.08  14 2.08  14 2.08
   2  0.333  0.667  0.484-  14 2.12  14 2.12  14 2.12  11 2.14  11 2.14  11 2.14
   3  0.000  0.000  0.556-  17 2.12  17 2.12  17 2.12  15 2.14  15 2.14  15 2.14
   4  0.333  0.667  0.592-  15 2.12  15 2.12  15 2.12  12 2.14  12 2.14  12 2.14
   5  0.000  0.000  0.663-  18 2.12  18 2.12  18 2.12  16 2.14  16 2.14  16 2.14
   6  0.333  0.667  0.699-  16 2.11  16 2.11  16 2.11  13 2.15  13 2.15  13 2.15
   7  0.000  0.000  0.767-  19 1.96  19 1.96  19 1.96
   8  0.667  0.333  0.520-  11 2.12  11 2.12  11 2.12  17 2.14  17 2.14  17 2.14
   9  0.667  0.333  0.627-  12 2.12  12 2.12  12 2.12  18 2.14  18 2.14  18 2.14
  10  0.667  0.333  0.734-  13 2.08  13 2.08  13 2.08  19 2.21  19 2.21  19 2.21
  11  0.000  0.000  0.502-   8 2.12   8 2.12   8 2.12   2 2.14   2 2.14   2 2.14  17 3.01  17 3.01
                            17 3.01  14 3.01  14 3.01  14 3.01
  12  0.000  0.000  0.610-   9 2.12   9 2.12   9 2.12   4 2.14   4 2.14   4 2.14  18 3.01  18 3.01
                            18 3.01  15 3.01  15 3.01  15 3.01
  13  0.000  0.000  0.717-  10 2.08  10 2.08  10 2.08   6 2.15   6 2.15   6 2.15  16 3.02  16 3.02
                            16 3.02  19 3.06  19 3.06  19 3.06
  14  0.667  0.333  0.466-   1 2.08   1 2.08   1 2.08   2 2.12   2 2.12   2 2.12  11 3.01  11 3.01
                            11 3.01  22 3.34  22 3.34  22 3.34
  15  0.667  0.333  0.574-   4 2.12   4 2.12   4 2.12   3 2.14   3 2.14   3 2.14  12 3.01  12 3.01
                            12 3.01  17 3.01  17 3.01  17 3.01
  16  0.667  0.333  0.681-   6 2.11   6 2.11   6 2.11   5 2.14   5 2.14   5 2.14  18 3.01  18 3.01
                            18 3.01  13 3.02  13 3.02  13 3.02
  17  0.333  0.667  0.538-   3 2.12   3 2.12   3 2.12   8 2.14   8 2.14   8 2.14  11 3.01  11 3.01
                            11 3.01  15 3.01  15 3.01  15 3.01
  18  0.333  0.667  0.646-   5 2.12   5 2.12   5 2.12   9 2.14   9 2.14   9 2.14  12 3.01  12 3.01
                            12 3.01  16 3.01  16 3.01  16 3.01
  19  0.333  0.667  0.754-   7 1.96   7 1.96   7 1.96  10 2.21  10 2.21  10 2.21  13 3.06  13 3.06
                            13 3.06
  20  0.000  0.000  0.231-  25 2.83  25 2.83  25 2.83
  21  0.000  0.000  0.328-  23 2.80  23 2.80  23 2.80  26 2.82  26 2.82  26 2.82
  22  0.000  0.000  0.425-   1 1.72  24 2.76  24 2.76  24 2.76  14 3.34  14 3.34  14 3.34
  23  0.667  0.333  0.296-  25 2.80  25 2.80  25 2.80  21 2.80  21 2.80  21 2.80
  24  0.667  0.333  0.393-  22 2.76  22 2.76  22 2.76  26 2.83  26 2.83  26 2.83
  25  0.333  0.667  0.264-  23 2.80  23 2.80  23 2.80  20 2.83  20 2.83  20 2.83
  26  0.333  0.667  0.361-  21 2.82  21 2.82  21 2.82  24 2.83  24 2.83  24 2.83
 
  LATTYP: Found a hexagonal cell.
 ALAT       =     3.0106507234
 C/A-ratio  =    22.7565552224
  
  Lattice vectors:
  
 A1 = (   2.6073001451,  -1.5053251248,   0.0000000000)
 A2 = (   0.0000000000,   3.0106502496,   0.0000000000)
 A3 = (  -0.0000000000,   0.0000000000,  68.5120394419)


Analysis of symmetry for initial positions (statically):
=====================================================================
 Subroutine PRICEL returns:
 Original cell was already a primitive cell.
 

 Routine SETGRP: Setting up the symmetry group for a 
 hexagonal supercell.


 Subroutine GETGRP returns: Found  6 space group operations
 (whereof  6 operations were pure point group operations)
 out of a pool of 24 trial point group operations.


The static configuration has the point symmetry C_3v.


Analysis of symmetry for dynamics (positions and initial velocities):
=====================================================================
 Subroutine PRICEL returns:
 Original cell was already a primitive cell.
 

 Routine SETGRP: Setting up the symmetry group for a 
 hexagonal supercell.


 Subroutine GETGRP returns: Found  6 space group operations
 (whereof  6 operations were pure point group operations)
 out of a pool of 24 trial point group operations.


The dynamic configuration has the point symmetry C_3v.


Analysis of constrained symmetry for selective dynamics:
=====================================================================
 Subroutine PRICEL returns:
 Original cell was already a primitive cell.
 

 Routine SETGRP: Setting up the symmetry group for a 
 hexagonal supercell.


 Subroutine GETGRP returns: Found  6 space group operations
 (whereof  6 operations were pure point group operations)
 out of a pool of 24 trial point group operations.


The constrained configuration has the point symmetry C_3v.


 Subroutine INISYM returns: Found  6 space group operations
 (whereof  6 operations are pure point group operations),
 and found     1 'primitive' translations

 
 
 KPOINTS: K-Spacing Value to Generate K-Mesh: 0.02

Automatic generation of k-mesh.
Space group operators:
 irot       det(A)        alpha          n_x          n_y          n_z        tau_x        tau_y        tau_z
    1     1.000000     0.000000     1.000000     0.000000     0.000000     0.000000     0.000000     0.000000
    2     1.000000   120.000000     0.000000     0.000000    -1.000000     0.000000     0.000000     0.000000
    3     1.000000   120.000000    -0.000000     0.000000     1.000000     0.000000     0.000000     0.000000
    4    -1.000000   180.000000    -0.866025     0.500000    -0.000000     0.000000     0.000000     0.000000
    5    -1.000000   179.999999     0.000000     1.000000     0.000000     0.000000     0.000000     0.000000
    6    -1.000000   180.000000    -0.866025    -0.500000    -0.000000     0.000000     0.000000     0.000000
 
 Subroutine IBZKPT returns following result:
 ===========================================
 
 Found     21 irreducible k-points:
 
 Following reciprocal coordinates:
            Coordinates               Weight
  0.000000  0.000000  0.000000      1.000000
  0.076923  0.000000 -0.000000      6.000000
  0.153846  0.000000 -0.000000      6.000000
  0.230769  0.000000  0.000000      6.000000
  0.307692  0.000000 -0.000000      6.000000
  0.384615  0.000000 -0.000000      6.000000
  0.461538  0.000000  0.000000      6.000000
  0.076923  0.076923 -0.000000      6.000000
  0.153846  0.076923 -0.000000     12.000000
  0.230769  0.076923 -0.000000     12.000000
  0.307692  0.076923 -0.000000     12.000000
  0.384615  0.076923  0.000000     12.000000
  0.461538  0.076923 -0.000000      6.000000
  0.153846  0.153846 -0.000000      6.000000
  0.230769  0.153846 -0.000000     12.000000
  0.307692  0.153846 -0.000000     12.000000
  0.384615  0.153846 -0.000000     12.000000
  0.230769  0.230769 -0.000000      6.000000
  0.307692  0.230769  0.000000     12.000000
  0.384615  0.230769  0.000000      6.000000
  0.307692  0.307692 -0.000000      6.000000
 
 Following cartesian coordinates:
            Coordinates               Weight
  0.000000  0.000000  0.000000      1.000000
  0.029503  0.000000  0.000000      6.000000
  0.059006  0.000000  0.000000      6.000000
  0.088509  0.000000  0.000000      6.000000
  0.118012  0.000000  0.000000      6.000000
  0.147515  0.000000  0.000000      6.000000
  0.177018  0.000000  0.000000      6.000000
  0.044254  0.025550  0.000000      6.000000
  0.073757  0.025550  0.000000     12.000000
  0.103260  0.025550  0.000000     12.000000
  0.132763  0.025550  0.000000     12.000000
  0.162266  0.025550  0.000000     12.000000
  0.191769  0.025550  0.000000      6.000000
  0.088509  0.051101  0.000000      6.000000
  0.118012  0.051101  0.000000     12.000000
  0.147515  0.051101  0.000000     12.000000
  0.177018  0.051101  0.000000     12.000000
  0.132763  0.076651  0.000000      6.000000
  0.162266  0.076651  0.000000     12.000000
  0.191769  0.076651  0.000000      6.000000
  0.177018  0.102201  0.000000      6.000000
 


--------------------------------------------------------------------------------------------------------




 Dimension of arrays:
   k-points           NKPTS =     21   k-points in BZ     NKDIM =     21   number of bands    NBANDS=     64
   number of dos      NEDOS =    301   number of ions     NIONS =     26
   non local maximal  LDIM  =      4   non local SUM 2l+1 LMDIM =      8
   total plane-waves  NPLWV = 294912
   max r-space proj   IRMAX =      1   max aug-charges    IRDMAX= 186535
   dimension x,y,z NGX =    24 NGY =   24 NGZ =  512
   dimension x,y,z NGXF=    48 NGYF=   48 NGZF= 1024
   support grid    NGXF=    96 NGYF=   96 NGZF= 2048
   ions per type =              10   9   7
   NGX,Y,Z   is equivalent  to a cutoff of  13.25, 13.25, 12.42 a.u.
   NGXF,Y,Z  is equivalent  to a cutoff of  26.51, 26.51, 24.85 a.u.

 SYSTEM =  unknown system                          
 POSCAR =  Layer (26)                              

 Startparameter for this run:
   NWRITE =      2    write-flag & timer
   PREC   = accura    normal or accurate (medium, high low for compatibility)
   ISTART =      0    job   : 0-new  1-cont  2-samecut
   ICHARG =     11    charge: 1-file 2-atom 10-const
   ISPIN  =      1    spin polarized calculation?
   LNONCOLLINEAR =      F non collinear calculations
   LSORBIT =      F    spin-orbit coupling
   INIWAV =      1    electr: 0-lowe 1-rand  2-diag
   LASPH  =      T    aspherical Exc in radial PAW
   METAGGA=      F    non-selfconsistent MetaGGA calc.

 Electronic Relaxation 1
   ENCUT  =  520.0 eV  38.22 Ry    6.18 a.u.   5.60  5.60127.39*2*pi/ulx,y,z
   ENINI  =  520.0     initial cutoff
   ENAUG  =  605.4 eV  augmentation charge cutoff
   NELM   =     90;   NELMIN=  6; NELMDL=  0     # of ELM steps 
   EDIFF  = 0.1E-07   stopping-criterion for ELM
   LREAL  =      F    real-space projection
   NLSPLINE    = F    spline interpolate recip. space projectors
   LCOMPAT=      F    compatible to vasp.4.4
   GGA_COMPAT  = T    GGA compatible to vasp.4.4-vasp.4.6
   LMAXPAW     = -100 max onsite density
   LMAXMIX     =    2 max onsite mixed and CHGCAR
   VOSKOWN=      0    Vosko Wilk Nusair interpolation
   ROPT   =    0.00000   0.00000   0.00000
 Ionic relaxation
   EDIFFG = -.2E-01   stopping-criterion for IOM
   NSW    =      0    number of steps for IOM
   NBLOCK =      1;   KBLOCK =      1    inner block; outer block 
   IBRION =     -1    ionic relax: 0-MD 1-quasi-New 2-CG
   NFREE  =      1    steps in history (QN), initial steepest desc. (CG)
   ISIF   =      2    stress and relaxation
   IWAVPR =     10    prediction:  0-non 1-charg 2-wave 3-comb
   ISYM   =      2    0-nonsym 1-usesym 2-fastsym
   LCORR  =      T    Harris-Foulkes like correction to forces

   POTIM  = 0.5000    time-step for ionic-motion
   TEIN   =    0.0    initial temperature
   TEBEG  =    0.0;   TEEND  =   0.0 temperature during run
   SMASS  =  -3.00    Nose mass-parameter (am)
   estimated Nose-frequenzy (Omega)   =  0.10E-29 period in steps =****** mass=  -0.207E-27a.u.
   SCALEE = 1.0000    scale energy and forces
   NPACO  =    256;   APACO  = 16.0  distance and # of slots for P.C.
   PSTRESS=    0.0 pullay stress

  Mass of Ions in am
   POMASS =  16.00 24.30 26.98
  Ionic Valenz
   ZVAL   =   6.00  2.00  3.00
  Atomic Wigner-Seitz radii
   RWIGS  =  -1.00 -1.00 -1.00
  virtual crystal weights 
   VCA    =   1.00  1.00  1.00
   NELECT =      99.0000    total number of electrons
   NUPDOWN=      -1.0000    fix difference up-down

 DOS related values:
   EMIN   =  10.00;   EMAX   =-10.00  energy-range for DOS
   EFERMI =   0.00
   ISMEAR =     0;   SIGMA  =   0.05  broadening in eV -4-tet -1-fermi 0-gaus

 Electronic relaxation 2 (details)
   IALGO  =     38    algorithm
   LDIAG  =      T    sub-space diagonalisation (order eigenvalues)
   LSUBROT=      F    optimize rotation matrix (better conditioning)
   TURBO    =      0    0=normal 1=particle mesh
   IRESTART =      0    0=no restart 2=restart with 2 vectors
   NREBOOT  =      0    no. of reboots
   NMIN     =      0    reboot dimension
   EREF     =   0.00    reference energy to select bands
   IMIX   =      4    mixing-type and parameters
     AMIX     =   0.40;   BMIX     =  1.00
     AMIX_MAG =   1.60;   BMIX_MAG =  1.00
     AMIN     =   0.01
     WC   =   100.;   INIMIX=   1;  MIXPRE=   1;  MAXMIX= -45

 Intra band minimization:
   WEIMIN = 0.0000     energy-eigenvalue tresh-hold
   EBREAK =  0.39E-10  absolut break condition
   DEPER  =   0.30     relativ break condition  

   TIME   =   0.40     timestep for ELM

  volume/ion in A,a.u.               =      20.68       139.59
  Fermi-wavevector in a.u.,A,eV,Ry     =   0.931280  1.759865 11.800105  0.867283
  Thomas-Fermi vector in A             =   2.057757
 
 Write flags
   LWAVE        =      F    write WAVECAR
   LDOWNSAMPLE  =      F    k-point downsampling of WAVECAR
   LCHARG       =      T    write CHGCAR
   LVTOT        =      F    write LOCPOT, total local potential
   LVHAR        =      F    write LOCPOT, Hartree potential only
   LELF         =      F    write electronic localiz. function (ELF)
   LORBIT       =      0    0 simple, 1 ext, 2 COOP (PROOUT), +10 PAW based schemes


 Dipole corrections
   LMONO  =      F    monopole corrections only (constant potential shift)
   LDIPOL =      F    correct potential (dipole corrections)
   IDIPOL =      0    1-x, 2-y, 3-z, 4-all directions 
   EPSILON=  1.0000000 bulk dielectric constant

 Exchange correlation treatment:
   GGA     =    --    GGA type
   LEXCH   =     8    internal setting for exchange type
   VOSKOWN=      0    Vosko Wilk Nusair interpolation
   LHFCALC =     F    Hartree Fock is set to
   LHFONE  =     F    Hartree Fock one center treatment
   AEXX    =    0.0000 exact exchange contribution

 Linear response parameters
   LEPSILON=     F    determine dielectric tensor
   LRPA    =     F    only Hartree local field effects (RPA)
   LNABLA  =     F    use nabla operator in PAW spheres
   LVEL    =     F    velocity operator in full k-point grid
   LINTERFAST=   F  fast interpolation
   KINTER  =     0    interpolate to denser k-point grid
   CSHIFT  =0.1000    complex shift for real part using Kramers Kronig
   OMEGAMAX=  -1.0    maximum frequency
   DEG_THRESHOLD= 0.2000000E-02 threshold for treating states as degnerate
   RTIME   =   -0.100 relaxation time in fs
  (WPLASMAI=    0.000 imaginary part of plasma frequency in eV, 0.658/RTIME)
   DFIELD  = 0.0000000 0.0000000 0.0000000 field for delta impulse in time
 
 Orbital magnetization related:
   ORBITALMAG=     F  switch on orbital magnetization
   LCHIMAG   =     F  perturbation theory with respect to B field
   DQ        =  0.001000  dq finite difference perturbation B field
   LLRAUG    =     F  two centre corrections for induced B field



--------------------------------------------------------------------------------------------------------


 Static calculation
 charge density and potential remain constant during run
 non-spin polarized calculation
 Variant of blocked Davidson
 Davidson routine will perform the subspace rotation
 perform sub-space diagonalisation
    after iterative eigenvector-optimisation
 no mixing
 using additional bands           14
 reciprocal scheme for non local part
 use partial core corrections
 calculate Harris-corrections to forces 
   (improved forces if not selfconsistent)
 use gradient corrections 
 WARNING: stress and forces are not correct
  (second derivative of E(xc) not defined)
 use of overlap-Matrix (Vanderbilt PP)
 Gauss-broadening in eV      SIGMA  =   0.05


--------------------------------------------------------------------------------------------------------


  energy-cutoff  :      520.00
  volume of cell :      537.80
      direct lattice vectors                 reciprocal lattice vectors
     2.607300145 -1.505325125  0.000000000     0.383538505  0.000000000  0.000000000
     0.000000000  3.010650250  0.000000000     0.191769253  0.332154158  0.000000000
    -0.000000000  0.000000000 68.512039442     0.000000000  0.000000000  0.014595975

  length of vectors
     3.010650723  3.010650250 68.512039442     0.383538505  0.383538565  0.014595975


 
 k-points in units of 2pi/SCALE and weight: K-Spacing Value to Generate K-Mesh: 0.02
   0.00000000  0.00000000  0.00000000       0.006
   0.02950296  0.00000000  0.00000000       0.036
   0.05900592  0.00000000  0.00000000       0.036
   0.08850889  0.00000000  0.00000000       0.036
   0.11801185  0.00000000  0.00000000       0.036
   0.14751481  0.00000000  0.00000000       0.036
   0.17701777  0.00000000  0.00000000       0.036
   0.04425444  0.02555032  0.00000000       0.036
   0.07375740  0.02555032  0.00000000       0.071
   0.10326037  0.02555032  0.00000000       0.071
   0.13276333  0.02555032  0.00000000       0.071
   0.16226629  0.02555032  0.00000000       0.071
   0.19176925  0.02555032  0.00000000       0.036
   0.08850889  0.05110064  0.00000000       0.036
   0.11801185  0.05110064  0.00000000       0.071
   0.14751481  0.05110064  0.00000000       0.071
   0.17701777  0.05110064  0.00000000       0.071
   0.13276333  0.07665096  0.00000000       0.036
   0.16226629  0.07665096  0.00000000       0.071
   0.19176925  0.07665096  0.00000000       0.036
   0.17701777  0.10220128  0.00000000       0.036
 
 k-points in reciprocal lattice and weights: K-Spacing Value to Generate K-Mesh: 0.02
   0.00000000  0.00000000  0.00000000       0.006
   0.07692308  0.00000000 -0.00000000       0.036
   0.15384615  0.00000000 -0.00000000       0.036
   0.23076923  0.00000000  0.00000000       0.036
   0.30769231  0.00000000 -0.00000000       0.036
   0.38461538  0.00000000 -0.00000000       0.036
   0.46153846  0.00000000  0.00000000       0.036
   0.07692308  0.07692308 -0.00000000       0.036
   0.15384615  0.07692308 -0.00000000       0.071
   0.23076923  0.07692308 -0.00000000       0.071
   0.30769231  0.07692308 -0.00000000       0.071
   0.38461538  0.07692308  0.00000000       0.071
   0.46153846  0.07692308 -0.00000000       0.036
   0.15384615  0.15384615 -0.00000000       0.036
   0.23076923  0.15384615 -0.00000000       0.071
   0.30769231  0.15384615 -0.00000000       0.071
   0.38461538  0.15384615 -0.00000000       0.071
   0.23076923  0.23076923 -0.00000000       0.036
   0.30769231  0.23076923  0.00000000       0.071
   0.38461538  0.23076923  0.00000000       0.036
   0.30769231  0.30769231 -0.00000000       0.036
 
 position of ions in fractional coordinates (direct lattice) 
   0.00000000  0.00000000  0.44973060
   0.33333300  0.66666700  0.48404519
   0.00000000  0.00000000  0.55572728
   0.33333300  0.66666700  0.59157328
   0.00000000  0.00000000  0.66320770
   0.33333300  0.66666700  0.69892377
   0.00000000  0.00000000  0.76738745
   0.66666700  0.33333300  0.51989423
   0.66666700  0.33333300  0.62739490
   0.66666700  0.33333300  0.73416659
   0.00000000  0.00000000  0.50224410
   0.00000000  0.00000000  0.60974763
   0.00000000  0.00000000  0.71737761
   0.66666700  0.33333300  0.46633173
   0.66666700  0.33333300  0.57391757
   0.66666700  0.33333300  0.68141233
   0.33333300  0.66666700  0.53807902
   0.33333300  0.66666700  0.64557503
   0.33333300  0.66666700  0.75411346
   0.00000000  0.00000000  0.23149580
   0.00000000  0.00000000  0.32827389
   0.00000000  0.00000000  0.42463540
   0.66666700  0.33333300  0.29616324
   0.66666700  0.33333300  0.39331730
   0.33333300  0.66666700  0.26407884
   0.33333300  0.66666700  0.36071407
 
 position of ions in cartesian coordinates  (Angst):
  -0.00000000  0.00000000 30.81196080
   0.86909918  1.50532663 33.16292308
  -0.00000000  0.00000000 38.07400904
   0.86909918  1.50532663 40.52989219
  -0.00000000  0.00000000 45.43771196
   0.86909918  1.50532663 47.88469267
  -0.00000000  0.00000000 52.57527896
   1.73820097 -0.00000151 35.61901402
   1.73820097 -0.00000151 42.98410403
   1.73820097 -0.00000151 50.29925004
  -0.00000000  0.00000000 34.40976732
  -0.00000000  0.00000000 41.77505389
  -0.00000000  0.00000000 49.14900332
   1.73820097 -0.00000151 31.94933811
   1.73820097 -0.00000151 39.32026309
   1.73820097 -0.00000151 46.68494820
   0.86909918  1.50532663 36.86489081
   0.86909918  1.50532663 44.22966158
   0.86909918  1.50532663 51.66585137
  -0.00000000  0.00000000 15.86024969
  -0.00000000  0.00000000 22.49071360
  -0.00000000  0.00000000 29.09263711
   1.73820097 -0.00000151 20.29074750
   1.73820097 -0.00000151 26.94697063
   0.86909918  1.50532663 18.09258013
   0.86909918  1.50532663 24.71325662
 


--------------------------------------------------------------------------------------------------------


 k-point  1 :   0.0000 0.0000 0.0000  plane waves:   14643
 k-point  2 :   0.0769 0.0000-0.0000  plane waves:   14625
 k-point  3 :   0.1538 0.0000-0.0000  plane waves:   14606
 k-point  4 :   0.2308 0.0000 0.0000  plane waves:   14566
 k-point  5 :   0.3077 0.0000-0.0000  plane waves:   14468
 k-point  6 :   0.3846 0.0000-0.0000  plane waves:   14430
 k-point  7 :   0.4615 0.0000 0.0000  plane waves:   14440
 k-point  8 :   0.0769 0.0769-0.0000  plane waves:   14611
 k-point  9 :   0.1538 0.0769-0.0000  plane waves:   14590
 k-point 10 :   0.2308 0.0769-0.0000  plane waves:   14518
 k-point 11 :   0.3077 0.0769-0.0000  plane waves:   14446
 k-point 12 :   0.3846 0.0769 0.0000  plane waves:   14411
 k-point 13 :   0.4615 0.0769-0.0000  plane waves:   14410
 k-point 14 :   0.1538 0.1538-0.0000  plane waves:   14555
 k-point 15 :   0.2308 0.1538-0.0000  plane waves:   14458
 k-point 16 :   0.3077 0.1538-0.0000  plane waves:   14443
 k-point 17 :   0.3846 0.1538-0.0000  plane waves:   14397
 k-point 18 :   0.2308 0.2308-0.0000  plane waves:   14448
 k-point 19 :   0.3077 0.2308 0.0000  plane waves:   14436
 k-point 20 :   0.3846 0.2308 0.0000  plane waves:   14430
 k-point 21 :   0.3077 0.3077-0.0000  plane waves:   14436

 maximum and minimum number of plane-waves per node :      3706     3569

 maximum number of plane-waves:     14643
 maximum index in each direction: 
   IXMAX=    5   IYMAX=    5   IZMAX=  127
   IXMIN=   -6   IYMIN=   -5   IZMIN= -127


 parallel 3D FFT for wavefunctions:
    minimum data exchange during FFTs selected (reduces bandwidth)
 parallel 3D FFT for charge:
    minimum data exchange during FFTs selected (reduces bandwidth)


 total amount of memory used by VASP MPI-rank0   102473. kBytes
=======================================================================

   base      :      30000. kBytes
   nonl-proj :      16333. kBytes
   fftplans  :      23676. kBytes
   grid      :      12402. kBytes
   one-center:         21. kBytes
   wavefun   :      20041. kBytes
 
     INWAV:  cpu time    0.0000: real time    0.0000
 initial charge density was supplied:
 number of electron      99.0000001 magnetization 
 keeping initial charge density in first step


--------------------------------------------------------------------------------------------------------


 Maximum index for augmentation-charges        11544 (set IRDMAX)


--------------------------------------------------------------------------------------------------------


 First call to EWALD:  gamma=   0.218
 Maximum number of real-space cells 8x 8x 1
 Maximum number of reciprocal cells 1x 1x20

    FEWALD:  cpu time    0.0017: real time    0.0017


--------------------------------------- Iteration      1(   1)  ---------------------------------------


    POTLOK:  cpu time    0.0612: real time    0.0616
    SETDIJ:  cpu time    0.1130: real time    0.1143
     EDDAV:  cpu time    5.5600: real time    5.7491
       DOS:  cpu time    0.0033: real time    0.0033
    --------------------------------------------
      LOOP:  cpu time    5.7376: real time    5.9283

 eigenvalue-minimisations  :  2768
 total energy-change (2. order) : 0.6020802E+03  (-0.3947949E+04)
 number of electron      99.0000001 magnetization 
 augmentation part       99.0000001 magnetization 

 Free energy of the ion-electron system (eV)
  ---------------------------------------------------
  alpha Z        PSCENC =        26.50962396
  Ewald energy   TEWEN  =    157128.81800785
  -Hartree energ DENC   =   -162023.23846203
  -exchange      EXHF   =         0.00000000
  -V(xc)+E(xc)   XCENC  =        40.82868980
  PAW double counting   =      3363.86136761    -3061.76182666
  entropy T*S    EENTRO =        -0.00427650
  eigenvalues    EBANDS =       221.69225084
  atomic energy  EATOM  =      4905.37483946
  Solvation  Ediel_sol  =         0.00000000
  ---------------------------------------------------
  free energy    TOTEN  =       602.08021434 eV

  energy without entropy =      602.08449084  energy(sigma->0) =      602.08235259


--------------------------------------------------------------------------------------------------------




--------------------------------------- Iteration      1(   2)  ---------------------------------------


     EDDAV:  cpu time    6.9533: real time    6.9671
       DOS:  cpu time    0.0025: real time    0.0030
    --------------------------------------------
      LOOP:  cpu time    6.9558: real time    6.9702

 eigenvalue-minimisations  :  3632
 total energy-change (2. order) :-0.6383746E+03  (-0.6028368E+03)
 number of electron      99.0000001 magnetization 
 augmentation part       99.0000001 magnetization 

 Free energy of the ion-electron system (eV)
  ---------------------------------------------------
  alpha Z        PSCENC =        26.50962396
  Ewald energy   TEWEN  =    157128.81800785
  -Hartree energ DENC   =   -162023.23846203
  -exchange      EXHF   =         0.00000000
  -V(xc)+E(xc)   XCENC  =        40.82868980
  PAW double counting   =      3363.86136761    -3061.76182666
  entropy T*S    EENTRO =        -0.01418788
  eigenvalues    EBANDS =      -416.67242200
  atomic energy  EATOM  =      4905.37483946
  Solvation  Ediel_sol  =         0.00000000
  ---------------------------------------------------
  free energy    TOTEN  =       -36.29436987 eV

  energy without entropy =      -36.28018199  energy(sigma->0) =      -36.28727593


--------------------------------------------------------------------------------------------------------




--------------------------------------- Iteration      1(   3)  ---------------------------------------


     EDDAV:  cpu time    5.6402: real time    5.6518
       DOS:  cpu time    0.0012: real time    0.0012
    --------------------------------------------
      LOOP:  cpu time    5.6414: real time    5.6530

 eigenvalue-minimisations  :  3184
 total energy-change (2. order) :-0.9830245E+02  (-0.9396046E+02)
 number of electron      99.0000001 magnetization 
 augmentation part       99.0000001 magnetization 

 Free energy of the ion-electron system (eV)
  ---------------------------------------------------
  alpha Z        PSCENC =        26.50962396
  Ewald energy   TEWEN  =    157128.81800785
  -Hartree energ DENC   =   -162023.23846203
  -exchange      EXHF   =         0.00000000
  -V(xc)+E(xc)   XCENC  =        40.82868980
  PAW double counting   =      3363.86136761    -3061.76182666
  entropy T*S    EENTRO =        -0.01694382
  eigenvalues    EBANDS =      -514.97211963
  atomic energy  EATOM  =      4905.37483946
  Solvation  Ediel_sol  =         0.00000000
  ---------------------------------------------------
  free energy    TOTEN  =      -134.59682345 eV

  energy without entropy =     -134.57987963  energy(sigma->0) =     -134.58835154


--------------------------------------------------------------------------------------------------------




--------------------------------------- Iteration      1(   4)  ---------------------------------------


     EDDAV:  cpu time    5.4594: real time    5.4704
       DOS:  cpu time    0.0027: real time    0.0027
    --------------------------------------------
      LOOP:  cpu time    5.4620: real time    5.4731

 eigenvalue-minimisations  :  3160
 total energy-change (2. order) :-0.3422970E+01  (-0.3409683E+01)
 number of electron      99.0000001 magnetization 
 augmentation part       99.0000001 magnetization 

 Free energy of the ion-electron system (eV)
  ---------------------------------------------------
  alpha Z        PSCENC =        26.50962396
  Ewald energy   TEWEN  =    157128.81800785
  -Hartree energ DENC   =   -162023.23846203
  -exchange      EXHF   =         0.00000000
  -V(xc)+E(xc)   XCENC  =        40.82868980
  PAW double counting   =      3363.86136761    -3061.76182666
  entropy T*S    EENTRO =        -0.01856114
  eigenvalues    EBANDS =      -518.39347258
  atomic energy  EATOM  =      4905.37483946
  Solvation  Ediel_sol  =         0.00000000
  ---------------------------------------------------
  free energy    TOTEN  =      -138.01979372 eV

  energy without entropy =     -138.00123258  energy(sigma->0) =     -138.01051315


--------------------------------------------------------------------------------------------------------




--------------------------------------- Iteration      1(   5)  ---------------------------------------


     EDDAV:  cpu time    6.8027: real time    6.8166
       DOS:  cpu time    0.0036: real time    0.0036
    --------------------------------------------
      LOOP:  cpu time    6.8063: real time    6.8203

 eigenvalue-minimisations  :  3800
 total energy-change (2. order) :-0.1468282E+00  (-0.1467406E+00)
 number of electron      99.0000001 magnetization 
 augmentation part       99.0000001 magnetization 

 Free energy of the ion-electron system (eV)
  ---------------------------------------------------
  alpha Z        PSCENC =        26.50962396
  Ewald energy   TEWEN  =    157128.81800785
  -Hartree energ DENC   =   -162023.23846203
  -exchange      EXHF   =         0.00000000
  -V(xc)+E(xc)   XCENC  =        40.82868980
  PAW double counting   =      3363.86136761    -3061.76182666
  entropy T*S    EENTRO =        -0.01890304
  eigenvalues    EBANDS =      -518.53995892
  atomic energy  EATOM  =      4905.37483946
  Solvation  Ediel_sol  =         0.00000000
  ---------------------------------------------------
  free energy    TOTEN  =      -138.16662196 eV

  energy without entropy =     -138.14771892  energy(sigma->0) =     -138.15717044


--------------------------------------------------------------------------------------------------------




--------------------------------------- Iteration      1(   6)  ---------------------------------------


     EDDAV:  cpu time    6.5937: real time    6.6067
       DOS:  cpu time    0.0012: real time    0.0011
    --------------------------------------------
      LOOP:  cpu time    6.5948: real time    6.6078

 eigenvalue-minimisations  :  3480
 total energy-change (2. order) :-0.3911915E-02  (-0.3911192E-02)
 number of electron      99.0000001 magnetization 
 augmentation part       99.0000001 magnetization 

 Free energy of the ion-electron system (eV)
  ---------------------------------------------------
  alpha Z        PSCENC =        26.50962396
  Ewald energy   TEWEN  =    157128.81800785
  -Hartree energ DENC   =   -162023.23846203
  -exchange      EXHF   =         0.00000000
  -V(xc)+E(xc)   XCENC  =        40.82868980
  PAW double counting   =      3363.86136761    -3061.76182666
  entropy T*S    EENTRO =        -0.01891196
  eigenvalues    EBANDS =      -518.54386192
  atomic energy  EATOM  =      4905.37483946
  Solvation  Ediel_sol  =         0.00000000
  ---------------------------------------------------
  free energy    TOTEN  =      -138.17053387 eV

  energy without entropy =     -138.15162192  energy(sigma->0) =     -138.16107790


--------------------------------------------------------------------------------------------------------




--------------------------------------- Iteration      1(   7)  ---------------------------------------


     EDDAV:  cpu time    6.7364: real time    6.7513
       DOS:  cpu time    0.0012: real time    0.0012
    --------------------------------------------
      LOOP:  cpu time    6.7375: real time    6.7525

 eigenvalue-minimisations  :  3952
 total energy-change (2. order) :-0.2110862E-03  (-0.2110767E-03)
 number of electron      99.0000001 magnetization 
 augmentation part       99.0000001 magnetization 

 Free energy of the ion-electron system (eV)
  ---------------------------------------------------
  alpha Z        PSCENC =        26.50962396
  Ewald energy   TEWEN  =    157128.81800785
  -Hartree energ DENC   =   -162023.23846203
  -exchange      EXHF   =         0.00000000
  -V(xc)+E(xc)   XCENC  =        40.82868980
  PAW double counting   =      3363.86136761    -3061.76182666
  entropy T*S    EENTRO =        -0.01891259
  eigenvalues    EBANDS =      -518.54407237
  atomic energy  EATOM  =      4905.37483946
  Solvation  Ediel_sol  =         0.00000000
  ---------------------------------------------------
  free energy    TOTEN  =      -138.17074496 eV

  energy without entropy =     -138.15183237  energy(sigma->0) =     -138.16128867


--------------------------------------------------------------------------------------------------------




--------------------------------------- Iteration      1(   8)  ---------------------------------------


     EDDAV:  cpu time    6.3041: real time    6.3175
       DOS:  cpu time    0.0013: real time    0.0013
    --------------------------------------------
      LOOP:  cpu time    6.3054: real time    6.3188

 eigenvalue-minimisations  :  3568
 total energy-change (2. order) :-0.7913788E-05  (-0.7913091E-05)
 number of electron      99.0000001 magnetization 
 augmentation part       99.0000001 magnetization 

 Free energy of the ion-electron system (eV)
  ---------------------------------------------------
  alpha Z        PSCENC =        26.50962396
  Ewald energy   TEWEN  =    157128.81800785
  -Hartree energ DENC   =   -162023.23846203
  -exchange      EXHF   =         0.00000000
  -V(xc)+E(xc)   XCENC  =        40.82868980
  PAW double counting   =      3363.86136761    -3061.76182666
  entropy T*S    EENTRO =        -0.01891260
  eigenvalues    EBANDS =      -518.54408027
  atomic energy  EATOM  =      4905.37483946
  Solvation  Ediel_sol  =         0.00000000
  ---------------------------------------------------
  free energy    TOTEN  =      -138.17075287 eV

  energy without entropy =     -138.15184027  energy(sigma->0) =     -138.16129657


--------------------------------------------------------------------------------------------------------




--------------------------------------- Iteration      1(   9)  ---------------------------------------


     EDDAV:  cpu time    6.0363: real time    6.0489
       DOS:  cpu time    0.0013: real time    0.0013
    --------------------------------------------
      LOOP:  cpu time    6.0376: real time    6.0502

 eigenvalue-minimisations  :  3864
 total energy-change (2. order) :-0.6745959E-06  (-0.6745168E-06)
 number of electron      99.0000001 magnetization 
 augmentation part       99.0000001 magnetization 

 Free energy of the ion-electron system (eV)
  ---------------------------------------------------
  alpha Z        PSCENC =        26.50962396
  Ewald energy   TEWEN  =    157128.81800785
  -Hartree energ DENC   =   -162023.23846203
  -exchange      EXHF   =         0.00000000
  -V(xc)+E(xc)   XCENC  =        40.82868980
  PAW double counting   =      3363.86136761    -3061.76182666
  entropy T*S    EENTRO =        -0.01891260
  eigenvalues    EBANDS =      -518.54408095
  atomic energy  EATOM  =      4905.37483946
  Solvation  Ediel_sol  =         0.00000000
  ---------------------------------------------------
  free energy    TOTEN  =      -138.17075355 eV

  energy without entropy =     -138.15184095  energy(sigma->0) =     -138.16129725


--------------------------------------------------------------------------------------------------------




--------------------------------------- Iteration      1(  10)  ---------------------------------------


     EDDAV:  cpu time    5.1007: real time    5.1116
       DOS:  cpu time    0.0013: real time    0.0013
    --------------------------------------------
      LOOP:  cpu time    5.1020: real time    5.1129

 eigenvalue-minimisations  :  2528
 total energy-change (2. order) :-0.5667971E-07  (-0.5684969E-07)
 number of electron      99.0000001 magnetization 
 augmentation part       99.0000001 magnetization 

 Free energy of the ion-electron system (eV)
  ---------------------------------------------------
  alpha Z        PSCENC =        26.50962396
  Ewald energy   TEWEN  =    157128.81800785
  -Hartree energ DENC   =   -162023.23846203
  -exchange      EXHF   =         0.00000000
  -V(xc)+E(xc)   XCENC  =        40.82868980
  PAW double counting   =      3363.86136761    -3061.76182666
  entropy T*S    EENTRO =        -0.01891260
  eigenvalues    EBANDS =      -518.54408100
  atomic energy  EATOM  =      4905.37483946
  Solvation  Ediel_sol  =         0.00000000
  ---------------------------------------------------
  free energy    TOTEN  =      -138.17075361 eV

  energy without entropy =     -138.15184100  energy(sigma->0) =     -138.16129730


--------------------------------------------------------------------------------------------------------




--------------------------------------- Iteration      1(  11)  ---------------------------------------


     EDDAV:  cpu time    4.6315: real time    4.6408
       DOS:  cpu time    0.0013: real time    0.0013
    --------------------------------------------
      LOOP:  cpu time    4.6328: real time    4.6421

 eigenvalue-minimisations  :  2240
 total energy-change (2. order) :-0.6923074E-08  (-0.6982372E-08)
 number of electron      99.0000001 magnetization 
 augmentation part       99.0000001 magnetization 

 Free energy of the ion-electron system (eV)
  ---------------------------------------------------
  alpha Z        PSCENC =        26.50962396
  Ewald energy   TEWEN  =    157128.81800785
  -Hartree energ DENC   =   -162023.23846203
  -exchange      EXHF   =         0.00000000
  -V(xc)+E(xc)   XCENC  =        40.82868980
  PAW double counting   =      3363.86136761    -3061.76182666
  entropy T*S    EENTRO =        -0.01891260
  eigenvalues    EBANDS =      -518.54408101
  atomic energy  EATOM  =      4905.37483946
  Solvation  Ediel_sol  =         0.00000000
  ---------------------------------------------------
  free energy    TOTEN  =      -138.17075361 eV

  energy without entropy =     -138.15184101  energy(sigma->0) =     -138.16129731


--------------------------------------------------------------------------------------------------------




 average (electrostatic) potential at core
  the test charge radii are     0.7215  1.0714  1.0406
  (the norm of the test charge is              1.0000)
       1 -74.2026       2 -73.2948       3 -73.1054       4 -73.0024       5 -72.7899
       6 -72.6896       7 -72.5159       8 -73.2066       9 -72.8954      10 -72.6254
      11 -55.2427      12 -54.9354      13 -54.4548      14 -55.3545      15 -55.0448
      16 -54.6952      17 -55.1448      18 -54.8264      19 -53.5891      20 -80.2421
      21 -80.1419      22 -79.7870      23 -80.1317      24 -80.1455      25 -80.1114
      26 -80.1693
 
 
 
 E-fermi :   0.5026     XC(G=0):  -6.0735     alpha+bet : -7.9899


 k-point     1 :       0.0000    0.0000    0.0000
  band No.  band energies     occupation 
      1     -18.1977      2.00000
      2     -17.4099      2.00000
      3     -17.1821      2.00000
      4     -16.9927      2.00000
      5     -16.8117      2.00000
      6     -16.6257      2.00000
      7     -16.4403      2.00000
      8     -16.2419      2.00000
      9     -15.9877      2.00000
     10     -15.1889      2.00000
     11     -10.1109      2.00000
     12      -9.6945      2.00000
     13      -9.0124      2.00000
     14      -8.0696      2.00000
     15      -6.9043      2.00000
     16      -5.7271      2.00000
     17      -4.8227      2.00000
     18      -4.5203      2.00000
     19      -4.1358      2.00000
     20      -3.6661      2.00000
     21      -3.2456      2.00000
     22      -2.9448      2.00000
     23      -2.3650      2.00000
     24      -1.7477      2.00000
     25      -1.5439      2.00000
     26      -1.5439      2.00000
     27      -1.2868      2.00000
     28      -0.9905      2.00000
     29      -0.9905      2.00000
     30      -0.9441      2.00000
     31      -0.8176      2.00000
     32      -0.8176      2.00000
     33      -0.6833      2.00000
     34      -0.6833      2.00000
     35      -0.5669      2.00000
     36      -0.5669      2.00000
     37      -0.4677      2.00000
     38      -0.4529      2.00000
     39      -0.4529      2.00000
     40      -0.3253      2.00000
     41      -0.3253      2.00000
     42      -0.1705      2.00000
     43      -0.1705      2.00000
     44       0.0525      2.00000
     45       0.0525      2.00000
     46       0.3547      1.99997
     47       0.6124      0.00189
     48       0.7204      0.00000
     49       0.7204      0.00000
     50       2.5393      0.00000
     51       4.1847      0.00000
     52       4.4116      0.00000
     53       4.9507      0.00000
     54       5.3794      0.00000
     55       5.6630      0.00000
     56       6.1542      0.00000
     57       6.3132      0.00000
     58       6.7456      0.00000
     59       6.8646      0.00000
     60       7.1481      0.00000
     61       7.3158      0.00000
     62       7.3966      0.00000
     63       7.7201      0.00000
     64       7.7581      0.00000

 k-point     2 :       0.0769    0.0000   -0.0000
  band No.  band energies     occupation 
      1     -18.1576      2.00000
      2     -17.3604      2.00000
      3     -17.1345      2.00000
      4     -16.9475      2.00000
      5     -16.7701      2.00000
      6     -16.5889      2.00000
      7     -16.4080      2.00000
      8     -16.2124      2.00000
      9     -15.9604      2.00000
     10     -15.1659      2.00000
     11      -9.9825      2.00000
     12      -9.5671      2.00000
     13      -8.8862      2.00000
     14      -7.9455      2.00000
     15      -6.7854      2.00000
     16      -5.6268      2.00000
     17      -4.7341      2.00000
     18      -4.4467      2.00000
     19      -4.0771      2.00000
     20      -3.6263      2.00000
     21      -3.1870      2.00000
     22      -2.9130      2.00000
     23      -2.4051      2.00000
     24      -1.9045      2.00000
     25      -1.6599      2.00000
     26      -1.5821      2.00000
     27      -1.3292      2.00000
     28      -1.1747      2.00000
     29      -1.0334      2.00000
     30      -1.0297      2.00000
     31      -0.9994      2.00000
     32      -0.8722      2.00000
     33      -0.8597      2.00000
     34      -0.7694      2.00000
     35      -0.7246      2.00000
     36      -0.6516      2.00000
     37      -0.6077      2.00000
     38      -0.5663      2.00000
     39      -0.5012      2.00000
     40      -0.4932      2.00000
     41      -0.3651      2.00000
     42      -0.3371      2.00000
     43      -0.2096      2.00000
     44      -0.1266      2.00000
     45       0.0146      2.00000
     46       0.3549      1.99997
     47       0.6095      0.00249
     48       0.6942      0.00000
     49       0.7409      0.00000
     50       2.6673      0.00000
     51       4.3486      0.00000
     52       4.7045      0.00000
     53       5.2240      0.00000
     54       5.5282      0.00000
     55       5.8911      0.00000
     56       6.3021      0.00000
     57       6.5207      0.00000
     58       6.9008      0.00000
     59       7.0611      0.00000
     60       7.3549      0.00000
     61       7.4196      0.00000
     62       7.4881      0.00000
     63       7.6641      0.00000
     64       7.7348      0.00000

 k-point     3 :       0.1538    0.0000   -0.0000
  band No.  band energies     occupation 
      1     -18.0444      2.00000
      2     -17.2187      2.00000
      3     -16.9990      2.00000
      4     -16.8190      2.00000
      5     -16.6523      2.00000
      6     -16.4852      2.00000
      7     -16.3170      2.00000
      8     -16.1295      2.00000
      9     -15.8840      2.00000
     10     -15.1017      2.00000
     11      -9.5979      2.00000
     12      -9.1855      2.00000
     13      -8.5086      2.00000
     14      -7.5748      2.00000
     15      -6.4332      2.00000
     16      -5.3377      2.00000
     17      -4.4810      2.00000
     18      -4.2362      2.00000
     19      -3.9185      2.00000
     20      -3.5410      2.00000
     21      -3.1400      2.00000
     22      -2.8260      2.00000
     23      -2.5224      2.00000
     24      -2.3008      2.00000
     25      -2.0288      2.00000
     26      -1.8004      2.00000
     27      -1.6857      2.00000
     28      -1.6294      2.00000
     29      -1.5691      2.00000
     30      -1.3911      2.00000
     31      -1.2028      2.00000
     32      -1.1796      2.00000
     33      -1.1490      2.00000
     34      -0.9788      2.00000
     35      -0.9735      2.00000
     36      -0.8366      2.00000
     37      -0.7797      2.00000
     38      -0.7183      2.00000
     39      -0.7123      2.00000
     40      -0.6026      2.00000
     41      -0.5513      2.00000
     42      -0.4732      2.00000
     43      -0.3167      2.00000
     44      -0.3159      2.00000
     45      -0.0887      2.00000
     46       0.0567      2.00000
     47       0.5471      0.20807
     48       0.6223      0.00071
     49       1.0832      0.00000
     50       2.9899      0.00000
     51       4.5177      0.00000
     52       5.0687      0.00000
     53       5.1735      0.00000
     54       5.4547      0.00000
     55       5.7945      0.00000
     56       5.8985      0.00000
     57       6.0335      0.00000
     58       6.4838      0.00000
     59       6.6763      0.00000
     60       6.7530      0.00000
     61       7.0951      0.00000
     62       7.1081      0.00000
     63       7.3437      0.00000
     64       7.4683      0.00000

 k-point     4 :       0.2308    0.0000    0.0000
  band No.  band energies     occupation 
      1     -17.8797      2.00000
      2     -17.0064      2.00000
      3     -16.7981      2.00000
      4     -16.6300      2.00000
      5     -16.4803      2.00000
      6     -16.3345      2.00000
      7     -16.1844      2.00000
      8     -16.0091      2.00000
      9     -15.7740      2.00000
     10     -15.0104      2.00000
     11      -8.9593      2.00000
     12      -8.5526      2.00000
     13      -7.8832      2.00000
     14      -6.9640      2.00000
     15      -5.8665      2.00000
     16      -4.9027      2.00000
     17      -4.1502      2.00000
     18      -3.9509      2.00000
     19      -3.7314      2.00000
     20      -3.5094      2.00000
     21      -3.2934      2.00000
     22      -3.1040      2.00000
     23      -2.8924      2.00000
     24      -2.6396      2.00000
     25      -2.4743      2.00000
     26      -2.3456      2.00000
     27      -2.1745      2.00000
     28      -2.0060      2.00000
     29      -1.9407      2.00000
     30      -1.8268      2.00000
     31      -1.8179      2.00000
     32      -1.5173      2.00000
     33      -1.3048      2.00000
     34      -1.2182      2.00000
     35      -1.1275      2.00000
     36      -0.9887      2.00000
     37      -0.9667      2.00000
     38      -0.8686      2.00000
     39      -0.7593      2.00000
     40      -0.7514      2.00000
     41      -0.6205      2.00000
     42      -0.5317      2.00000
     43      -0.4610      2.00000
     44      -0.2581      2.00000
     45      -0.2499      2.00000
     46      -0.2301      2.00000
     47       0.5077      0.88526
     48       0.5225      0.57338
     49       1.4963      0.00000
     50       2.2923      0.00000
     51       2.8094      0.00000
     52       3.3397      0.00000
     53       3.8004      0.00000
     54       4.2739      0.00000
     55       5.3864      0.00000
     56       5.4471      0.00000
     57       6.2131      0.00000
     58       6.3178      0.00000
     59       6.5041      0.00000
     60       6.5750      0.00000
     61       6.6978      0.00000
     62       6.8189      0.00000
     63       7.1788      0.00000
     64       7.2298      0.00000

 k-point     5 :       0.3077    0.0000   -0.0000
  band No.  band energies     occupation 
      1     -17.6977      2.00000
      2     -16.7598      2.00000
      3     -16.5696      2.00000
      4     -16.4197      2.00000
      5     -16.2909      2.00000
      6     -16.1684      2.00000
      7     -16.0360      2.00000
      8     -15.8761      2.00000
      9     -15.6547      2.00000
     10     -14.9133      2.00000
     11      -8.0702      2.00000
     12      -7.6736      2.00000
     13      -7.0185      2.00000
     14      -6.1331      2.00000
     15      -5.1567      2.00000
     16      -4.4840      2.00000
     17      -4.1083      2.00000
     18      -3.8790      2.00000
     19      -3.8169      2.00000
     20      -3.6390      2.00000
     21      -3.5395      2.00000
     22      -3.3828      2.00000
     23      -3.2231      2.00000
     24      -3.0745      2.00000
     25      -2.9829      2.00000
     26      -2.8149      2.00000
     27      -2.6187      2.00000
     28      -2.4118      2.00000
     29      -2.0410      2.00000
     30      -1.9708      2.00000
     31      -1.6788      2.00000
     32      -1.4621      2.00000
     33      -1.3916      2.00000
     34      -1.2873      2.00000
     35      -1.2834      2.00000
     36      -1.1621      2.00000
     37      -1.1431      2.00000
     38      -1.0216      2.00000
     39      -0.9703      2.00000
     40      -0.9031      2.00000
     41      -0.7709      2.00000
     42      -0.7241      2.00000
     43      -0.6095      2.00000
     44      -0.4237      2.00000
     45      -0.3751      2.00000
     46      -0.1115      2.00000
     47       0.1824      2.00000
     48       0.4186      1.98245
     49       0.4534      1.83578
     50       0.7098      0.00000
     51       1.2490      0.00000
     52       2.0072      0.00000
     53       2.5924      0.00000
     54       3.2017      0.00000
     55       4.4465      0.00000
     56       4.6178      0.00000
     57       5.5417      0.00000
     58       5.9056      0.00000
     59       6.1186      0.00000
     60       6.2705      0.00000
     61       6.5111      0.00000
     62       6.9546      0.00000
     63       7.0485      0.00000
     64       7.3072      0.00000

 k-point     6 :       0.3846    0.0000   -0.0000
  band No.  band energies     occupation 
      1     -17.5408      2.00000
      2     -16.5295      2.00000
      3     -16.3670      2.00000
      4     -16.2420      2.00000
      5     -16.1319      2.00000
      6     -16.0234      2.00000
      7     -15.9040      2.00000
      8     -15.7615      2.00000
      9     -15.5551      2.00000
     10     -14.8335      2.00000
     11      -6.9367      2.00000
     12      -6.5626      2.00000
     13      -5.9462      2.00000
     14      -5.1884      2.00000
     15      -4.7564      2.00000
     16      -4.4688      2.00000
     17      -4.3260      2.00000
     18      -4.0843      2.00000
     19      -4.0109      2.00000
     20      -3.8400      2.00000
     21      -3.7530      2.00000
     22      -3.6359      2.00000
     23      -3.4992      2.00000
     24      -3.2688      2.00000
     25      -3.1937      2.00000
     26      -2.7201      2.00000
     27      -2.3721      2.00000
     28      -2.1100      2.00000
     29      -2.0860      2.00000
     30      -2.0651      2.00000
     31      -2.0226      2.00000
     32      -1.7764      2.00000
     33      -1.6518      2.00000
     34      -1.5869      2.00000
     35      -1.5123      2.00000
     36      -1.4074      2.00000
     37      -1.3440      2.00000
     38      -1.2662      2.00000
     39      -1.1438      2.00000
     40      -1.1379      2.00000
     41      -1.0244      2.00000
     42      -0.9964      2.00000
     43      -0.8913      2.00000
     44      -0.8595      2.00000
     45      -0.7286      2.00000
     46      -0.5466      2.00000
     47      -0.4915      2.00000
     48      -0.2069      2.00000
     49       0.1677      2.00000
     50       0.3342      2.00000
     51       0.4021      1.99553
     52       1.1664      0.00000
     53       1.6425      0.00000
     54       2.6176      0.00000
     55       3.5012      0.00000
     56       4.3770      0.00000
     57       5.0943      0.00000
     58       5.3397      0.00000
     59       5.4594      0.00000
     60       5.6631      0.00000
     61       6.0658      0.00000
     62       6.4763      0.00000
     63       6.9227      0.00000
     64       7.2113      0.00000

 k-point     7 :       0.4615    0.0000    0.0000
  band No.  band energies     occupation 
      1     -17.4496      2.00000
      2     -16.3789      2.00000
      3     -16.2513      2.00000
      4     -16.1459      2.00000
      5     -16.0423      2.00000
      6     -15.9360      2.00000
      7     -15.8239      2.00000
      8     -15.6944      2.00000
      9     -15.4994      2.00000
     10     -14.7893      2.00000
     11      -5.5900      2.00000
     12      -5.3490      2.00000
     13      -5.0396      2.00000
     14      -4.8824      2.00000
     15      -4.6411      2.00000
     16      -4.4028      2.00000
     17      -4.3152      2.00000
     18      -4.1865      2.00000
     19      -4.0756      2.00000
     20      -3.9376      2.00000
     21      -3.9072      2.00000
     22      -3.8023      2.00000
     23      -3.7405      2.00000
     24      -3.4512      2.00000
     25      -3.4339      2.00000
     26      -3.2899      2.00000
     27      -2.8150      2.00000
     28      -2.3855      2.00000
     29      -2.3234      2.00000
     30      -2.2427      2.00000
     31      -2.1495      2.00000
     32      -1.9835      2.00000
     33      -1.8335      2.00000
     34      -1.7428      2.00000
     35      -1.6554      2.00000
     36      -1.6093      2.00000
     37      -1.4757      2.00000
     38      -1.4755      2.00000
     39      -1.3338      2.00000
     40      -1.2374      2.00000
     41      -1.2110      2.00000
     42      -1.0912      2.00000
     43      -0.9576      2.00000
     44      -0.9362      2.00000
     45      -0.7943      2.00000
     46      -0.7333      2.00000
     47      -0.6168      2.00000
     48      -0.5559      2.00000
     49      -0.3700      2.00000
     50       0.2872      2.00000
     51       0.3716      1.99979
     52       0.8325      0.00000
     53       1.2032      0.00000
     54       2.5457      0.00000
     55       2.8827      0.00000
     56       4.1085      0.00000
     57       4.6612      0.00000
     58       4.8707      0.00000
     59       5.2363      0.00000
     60       5.6939      0.00000
     61       5.8431      0.00000
     62       6.1780      0.00000
     63       6.7006      0.00000
     64       7.0600      0.00000

 k-point     8 :       0.0769    0.0769   -0.0000
  band No.  band energies     occupation 
      1     -18.0809      2.00000
      2     -17.2647      2.00000
      3     -17.0429      2.00000
      4     -16.8605      2.00000
      5     -16.6904      2.00000
      6     -16.5186      2.00000
      7     -16.3463      2.00000
      8     -16.1562      2.00000
      9     -15.9086      2.00000
     10     -15.1222      2.00000
     11      -9.7260      2.00000
     12      -9.3126      2.00000
     13      -8.6343      2.00000
     14      -7.6981      2.00000
     15      -6.5498      2.00000
     16      -5.4320      2.00000
     17      -4.5626      2.00000
     18      -4.3044      2.00000
     19      -3.9681      2.00000
     20      -3.5633      2.00000
     21      -3.1343      2.00000
     22      -2.8373      2.00000
     23      -2.4918      2.00000
     24      -2.1818      2.00000
     25      -1.8908      2.00000
     26      -1.7027      2.00000
     27      -1.5869      2.00000
     28      -1.4709      2.00000
     29      -1.3917      2.00000
     30      -1.2708      2.00000
     31      -1.1131      2.00000
     32      -1.0874      2.00000
     33      -0.9932      2.00000
     34      -0.9392      2.00000
     35      -0.9143      2.00000
     36      -0.8153      2.00000
     37      -0.7872      2.00000
     38      -0.7165      2.00000
     39      -0.6711      2.00000
     40      -0.5617      2.00000
     41      -0.5203      2.00000
     42      -0.4303      2.00000
     43      -0.3020      2.00000
     44      -0.2467      2.00000
     45      -0.0996      2.00000
     46       0.1806      2.00000
     47       0.5590      0.11071
     48       0.6340      0.00020
     49       0.9747      0.00000
     50       2.8969      0.00000
     51       4.5797      0.00000
     52       5.2250      0.00000
     53       5.6141      0.00000
     54       5.7725      0.00000
     55       6.1679      0.00000
     56       6.2915      0.00000
     57       6.3232      0.00000
     58       6.4381      0.00000
     59       6.5420      0.00000
     60       6.7244      0.00000
     61       6.9379      0.00000
     62       7.0666      0.00000
     63       7.1510      0.00000
     64       7.2776      0.00000

 k-point     9 :       0.1538    0.0769   -0.0000
  band No.  band energies     occupation 
      1     -17.9418      2.00000
      2     -17.0875      2.00000
      3     -16.8745      2.00000
      4     -16.7016      2.00000
      5     -16.5452      2.00000
      6     -16.3913      2.00000
      7     -16.2344      2.00000
      8     -16.0543      2.00000
      9     -15.8151      2.00000
     10     -15.0443      2.00000
     11      -9.2144      2.00000
     12      -8.8053      2.00000
     13      -8.1327      2.00000
     14      -7.2071      2.00000
     15      -6.0892      2.00000
     16      -5.0683      2.00000
     17      -4.2594      2.00000
     18      -4.0462      2.00000
     19      -3.7887      2.00000
     20      -3.5001      2.00000
     21      -3.2078      2.00000
     22      -2.9558      2.00000
     23      -2.6877      2.00000
     24      -2.3880      2.00000
     25      -2.3117      2.00000
     26      -2.1321      2.00000
     27      -2.0658      2.00000
     28      -1.9208      2.00000
     29      -1.7938      2.00000
     30      -1.6955      2.00000
     31      -1.6527      2.00000
     32      -1.4403      2.00000
     33      -1.2613      2.00000
     34      -1.1713      2.00000
     35      -1.0829      2.00000
     36      -0.9567      2.00000
     37      -0.9078      2.00000
     38      -0.8433      2.00000
     39      -0.7307      2.00000
     40      -0.6764      2.00000
     41      -0.5979      2.00000
     42      -0.4985      2.00000
     43      -0.4436      2.00000
     44      -0.4164      2.00000
     45      -0.2658      2.00000
     46      -0.0894      2.00000
     47       0.5154      0.71784
     48       0.5429      0.25450
     49       1.3875      0.00000
     50       3.1072      0.00000
     51       3.8065      0.00000
     52       4.0714      0.00000
     53       4.6520      0.00000
     54       4.9597      0.00000
     55       5.3932      0.00000
     56       5.5050      0.00000
     57       5.5555      0.00000
     58       6.0385      0.00000
     59       6.1033      0.00000
     60       6.3711      0.00000
     61       6.5164      0.00000
     62       6.5664      0.00000
     63       6.9807      0.00000
     64       7.0636      0.00000

 k-point    10 :       0.2308    0.0769   -0.0000
  band No.  band energies     occupation 
      1     -17.7682      2.00000
      2     -16.8576      2.00000
      3     -16.6592      2.00000
      4     -16.5012      2.00000
      5     -16.3638      2.00000
      6     -16.2324      2.00000
      7     -16.0934      2.00000
      8     -15.9270      2.00000
      9     -15.6998      2.00000
     10     -14.9497      2.00000
     11      -8.4505      2.00000
     12      -8.0491      2.00000
     13      -7.3870      2.00000
     14      -6.4840      2.00000
     15      -5.4423      2.00000
     16      -4.6102      2.00000
     17      -4.0423      2.00000
     18      -3.8508      2.00000
     19      -3.6917      2.00000
     20      -3.5433      2.00000
     21      -3.3842      2.00000
     22      -3.2096      2.00000
     23      -3.1058      2.00000
     24      -2.9802      2.00000
     25      -2.7353      2.00000
     26      -2.7304      2.00000
     27      -2.3957      2.00000
     28      -2.2847      2.00000
     29      -2.0078      2.00000
     30      -1.9807      2.00000
     31      -1.6518      2.00000
     32      -1.5871      2.00000
     33      -1.4635      2.00000
     34      -1.3255      2.00000
     35      -1.2880      2.00000
     36      -1.1589      2.00000
     37      -1.0857      2.00000
     38      -1.0367      2.00000
     39      -0.9343      2.00000
     40      -0.8842      2.00000
     41      -0.7881      2.00000
     42      -0.6944      2.00000
     43      -0.5927      2.00000
     44      -0.4000      2.00000
     45      -0.3125      2.00000
     46       0.1031      2.00000
     47       0.3949      1.99769
     48       0.4975      1.11400
     49       1.0879      0.00000
     50       1.5735      0.00000
     51       2.2826      0.00000
     52       2.3637      0.00000
     53       3.2320      0.00000
     54       3.8911      0.00000
     55       4.3353      0.00000
     56       4.5626      0.00000
     57       4.7264      0.00000
     58       5.2176      0.00000
     59       5.7444      0.00000
     60       5.9724      0.00000
     61       6.3975      0.00000
     62       6.8760      0.00000
     63       7.0961      0.00000
     64       7.3202      0.00000

 k-point    11 :       0.3077    0.0769   -0.0000
  band No.  band energies     occupation 
      1     -17.5981      2.00000
      2     -16.6178      2.00000
      3     -16.4421      2.00000
      4     -16.3059      2.00000
      5     -16.1888      2.00000
      6     -16.0762      2.00000
      7     -15.9519      2.00000
      8     -15.8020      2.00000
      9     -15.5893      2.00000
     10     -14.8608      2.00000
     11      -7.4388      2.00000
     12      -7.0522      2.00000
     13      -6.4130      2.00000
     14      -5.5738      2.00000
     15      -4.7712      2.00000
     16      -4.4840      2.00000
     17      -4.1142      2.00000
     18      -3.9569      2.00000
     19      -3.8399      2.00000
     20      -3.7438      2.00000
     21      -3.6044      2.00000
     22      -3.5415      2.00000
     23      -3.3961      2.00000
     24      -3.2653      2.00000
     25      -3.0428      2.00000
     26      -2.7872      2.00000
     27      -2.4577      2.00000
     28      -2.3579      2.00000
     29      -2.1728      2.00000
     30      -2.0556      2.00000
     31      -1.7311      2.00000
     32      -1.6529      2.00000
     33      -1.5014      2.00000
     34      -1.4515      2.00000
     35      -1.3546      2.00000
     36      -1.2652      2.00000
     37      -1.2072      2.00000
     38      -1.1268      2.00000
     39      -1.0426      2.00000
     40      -1.0305      2.00000
     41      -0.9441      2.00000
     42      -0.8497      2.00000
     43      -0.8365      2.00000
     44      -0.7440      2.00000
     45      -0.5385      2.00000
     46      -0.4913      2.00000
     47      -0.4694      2.00000
     48       0.1740      2.00000
     49       0.2855      2.00000
     50       0.4476      1.88013
     51       1.0462      0.00000
     52       1.2553      0.00000
     53       2.2685      0.00000
     54       2.9468      0.00000
     55       3.5858      0.00000
     56       3.7407      0.00000
     57       4.1424      0.00000
     58       4.6991      0.00000
     59       5.0901      0.00000
     60       5.5809      0.00000
     61       5.8588      0.00000
     62       6.6894      0.00000
     63       6.8690      0.00000
     64       7.0664      0.00000

 k-point    12 :       0.3846    0.0769    0.0000
  band No.  band energies     occupation 
      1     -17.4734      2.00000
      2     -16.4239      2.00000
      3     -16.2813      2.00000
      4     -16.1696      2.00000
      5     -16.0647      2.00000
      6     -15.9582      2.00000
      7     -15.8437      2.00000
      8     -15.7097      2.00000
      9     -15.5108      2.00000
     10     -14.7985      2.00000
     11      -6.1898      2.00000
     12      -5.8502      2.00000
     13      -5.3078      2.00000
     14      -4.8755      2.00000
     15      -4.6918      2.00000
     16      -4.4718      2.00000
     17      -4.2230      2.00000
     18      -4.0999      2.00000
     19      -4.0043      2.00000
     20      -3.9124      2.00000
     21      -3.7779      2.00000
     22      -3.6228      2.00000
     23      -3.5656      2.00000
     24      -3.3031      2.00000
     25      -2.9481      2.00000
     26      -2.7371      2.00000
     27      -2.5968      2.00000
     28      -2.4887      2.00000
     29      -2.3204      2.00000
     30      -2.2647      2.00000
     31      -2.0618      2.00000
     32      -1.9154      2.00000
     33      -1.8108      2.00000
     34      -1.7478      2.00000
     35      -1.6582      2.00000
     36      -1.5562      2.00000
     37      -1.4787      2.00000
     38      -1.4091      2.00000
     39      -1.3349      2.00000
     40      -1.2795      2.00000
     41      -1.2478      2.00000
     42      -1.1542      2.00000
     43      -1.0384      2.00000
     44      -0.9435      2.00000
     45      -0.8512      2.00000
     46      -0.7036      2.00000
     47      -0.6407      2.00000
     48      -0.5715      2.00000
     49       0.2129      2.00000
     50       0.3962      1.99739
     51       0.4072      1.99301
     52       0.5756      0.03895
     53       1.8022      0.00000
     54       2.1888      0.00000
     55       3.1673      0.00000
     56       3.4544      0.00000
     57       3.7470      0.00000
     58       4.3371      0.00000
     59       4.5048      0.00000
     60       5.2295      0.00000
     61       5.4690      0.00000
     62       6.1562      0.00000
     63       6.5660      0.00000
     64       7.0711      0.00000

 k-point    13 :       0.4615    0.0769   -0.0000
  band No.  band energies     occupation 
      1     -17.4275      2.00000
      2     -16.3436      2.00000
      3     -16.2258      2.00000
      4     -16.1229      2.00000
      5     -16.0197      2.00000
      6     -15.9134      2.00000
      7     -15.8025      2.00000
      8     -15.6754      2.00000
      9     -15.4827      2.00000
     10     -14.7763      2.00000
     11      -5.1504      2.00000
     12      -5.0145      2.00000
     13      -4.6812      2.00000
     14      -4.6405      2.00000
     15      -4.6108      2.00000
     16      -4.3691      2.00000
     17      -4.2466      2.00000
     18      -4.2074      2.00000
     19      -4.1425      2.00000
     20      -4.0528      2.00000
     21      -3.8906      2.00000
     22      -3.8277      2.00000
     23      -3.7269      2.00000
     24      -3.4734      2.00000
     25      -3.4193      2.00000
     26      -3.3938      2.00000
     27      -2.6515      2.00000
     28      -2.5851      2.00000
     29      -2.3308      2.00000
     30      -2.2911      2.00000
     31      -2.1668      2.00000
     32      -2.0880      2.00000
     33      -1.8669      2.00000
     34      -1.8229      2.00000
     35      -1.7126      2.00000
     36      -1.6112      2.00000
     37      -1.5541      2.00000
     38      -1.4838      2.00000
     39      -1.4615      2.00000
     40      -1.3517      2.00000
     41      -1.2903      2.00000
     42      -1.1988      2.00000
     43      -1.0731      2.00000
     44      -1.0190      2.00000
     45      -0.9797      2.00000
     46      -0.8920      2.00000
     47      -0.6756      2.00000
     48      -0.6102      2.00000
     49       0.1626      2.00000
     50       0.1879      2.00000
     51       0.2522      2.00000
     52       0.3918      1.99828
     53       1.8303      0.00000
[...]
     37      -1.5600      2.00000
     38      -1.4313      2.00000
     39      -1.3439      2.00000
     40      -1.2439      2.00000
     41      -1.0967      2.00000
     42      -0.9251      2.00000
     43      -0.6796      2.00000
     44      -0.5344      2.00000
     45      -0.3447      2.00000
     46      -0.2942      2.00000
     47      -0.2227      2.00000
     48      -0.0606      2.00000
     49       0.0545      2.00000
     50       0.2787      2.00000
     51       0.4716      1.61896
     52       0.7782      0.00000
     53       1.0066      0.00000
     54       1.6592      0.00000
     55       1.8378      0.00000
     56       2.0853      0.00000
     57       2.7576      0.00000
     58       3.3760      0.00000
     59       3.8540      0.00000
     60       4.4930      0.00000
     61       4.6795      0.00000
     62       5.7072      0.00000
     63       6.2902      0.00000
     64       6.4674      0.00000

 k-point    19 :       0.3077    0.2308    0.0000
  band No.  band energies     occupation 
      1     -17.4042      2.00000
      2     -16.3228      2.00000
      3     -16.1992      2.00000
      4     -16.0956      2.00000
      5     -15.9924      2.00000
      6     -15.8861      2.00000
      7     -15.7746      2.00000
      8     -15.6463      2.00000
      9     -15.4531      2.00000
     10     -14.7542      2.00000
     11      -5.4540      2.00000
     12      -5.1746      2.00000
     13      -4.7230      2.00000
     14      -4.5711      2.00000
     15      -4.1767      2.00000
     16      -4.0692      2.00000
     17      -3.9299      2.00000
     18      -3.8391      2.00000
     19      -3.7090      2.00000
     20      -3.6003      2.00000
     21      -3.4867      2.00000
     22      -3.3294      2.00000
     23      -3.2136      2.00000
     24      -3.0874      2.00000
     25      -3.0492      2.00000
     26      -2.8966      2.00000
     27      -2.6875      2.00000
     28      -2.4984      2.00000
     29      -2.4153      2.00000
     30      -2.2936      2.00000
     31      -2.2086      2.00000
     32      -2.1602      2.00000
     33      -2.0441      2.00000
     34      -2.0125      2.00000
     35      -1.8970      2.00000
     36      -1.8431      2.00000
     37      -1.7801      2.00000
     38      -1.6435      2.00000
     39      -1.6049      2.00000
     40      -1.4371      2.00000
     41      -1.2986      2.00000
     42      -1.2006      2.00000
     43      -1.1672      2.00000
     44      -1.0303      2.00000
     45      -0.8307      2.00000
     46      -0.6916      2.00000
     47      -0.6339      2.00000
     48      -0.6293      2.00000
     49      -0.2739      2.00000
     50      -0.1931      2.00000
     51      -0.0076      2.00000
     52       0.4068      1.99324
     53       0.4538      1.83282
     54       0.9651      0.00000
     55       1.3601      0.00000
     56       1.6374      0.00000
     57       2.5102      0.00000
     58       2.8495      0.00000
     59       3.1881      0.00000
     60       4.0757      0.00000
     61       4.5235      0.00000
     62       5.0019      0.00000
     63       5.7741      0.00000
     64       6.1636      0.00000

 k-point    20 :       0.3846    0.2308    0.0000
  band No.  band energies     occupation 
      1     -17.3696      2.00000
      2     -16.2617      2.00000
      3     -16.1610      2.00000
      4     -16.0603      2.00000
      5     -15.9576      2.00000
      6     -15.8508      2.00000
      7     -15.7417      2.00000
      8     -15.6179      2.00000
      9     -15.4291      2.00000
     10     -14.7358      2.00000
     11      -4.7349      2.00000
     12      -4.6123      2.00000
     13      -4.1824      2.00000
     14      -3.9502      2.00000
     15      -3.9331      2.00000
     16      -3.9053      2.00000
     17      -3.8422      2.00000
     18      -3.7252      2.00000
     19      -3.6747      2.00000
     20      -3.5424      2.00000
     21      -3.4857      2.00000
     22      -3.4147      2.00000
     23      -3.3886      2.00000
     24      -3.1946      2.00000
     25      -3.1038      2.00000
     26      -2.9064      2.00000
     27      -2.8357      2.00000
     28      -2.7366      2.00000
     29      -2.6971      2.00000
     30      -2.6270      2.00000
     31      -2.5007      2.00000
     32      -2.4274      2.00000
     33      -2.3571      2.00000
     34      -2.1339      2.00000
     35      -1.9404      2.00000
     36      -1.8913      2.00000
     37      -1.8539      2.00000
     38      -1.7652      2.00000
     39      -1.6848      2.00000
     40      -1.6018      2.00000
     41      -1.4422      2.00000
     42      -1.3205      2.00000
     43      -1.2127      2.00000
     44      -1.0550      2.00000
     45      -0.9193      2.00000
     46      -0.8805      2.00000
     47      -0.7620      2.00000
     48      -0.6628      2.00000
     49      -0.3694      2.00000
     50      -0.3453      2.00000
     51      -0.2307      2.00000
     52       0.1739      2.00000
     53       0.4460      1.89088
     54       0.7404      0.00000
     55       1.0509      0.00000
     56       1.5908      0.00000
     57       2.6454      0.00000
     58       2.7187      0.00000
     59       2.8794      0.00000
     60       4.0293      0.00000
     61       4.2943      0.00000
     62       4.5442      0.00000
     63       5.8618      0.00000
     64       6.3106      0.00000

 k-point    21 :       0.3077    0.3077   -0.0000
  band No.  band energies     occupation 
      1     -17.3547      2.00000
      2     -16.2393      2.00000
      3     -16.1448      2.00000
      4     -16.0442      2.00000
      5     -15.9415      2.00000
      6     -15.8346      2.00000
      7     -15.7260      2.00000
      8     -15.6031      2.00000
      9     -15.4154      2.00000
     10     -14.7256      2.00000
     11      -4.6267      2.00000
     12      -4.3912      2.00000
     13      -4.0353      2.00000
     14      -3.9652      2.00000
     15      -3.8598      2.00000
     16      -3.7748      2.00000
     17      -3.6201      2.00000
     18      -3.5613      2.00000
     19      -3.5065      2.00000
     20      -3.4412      2.00000
     21      -3.3473      2.00000
     22      -3.2367      2.00000
     23      -3.1776      2.00000
     24      -3.0527      2.00000
     25      -2.9581      2.00000
     26      -2.9080      2.00000
     27      -2.8020      2.00000
     28      -2.7372      2.00000
     29      -2.6754      2.00000
     30      -2.5505      2.00000
     31      -2.4499      2.00000
     32      -2.4489      2.00000
     33      -2.4043      2.00000
     34      -2.1588      2.00000
     35      -2.0442      2.00000
     36      -2.0272      2.00000
     37      -1.9789      2.00000
     38      -1.7504      2.00000
     39      -1.7239      2.00000
     40      -1.5616      2.00000
     41      -1.4364      2.00000
     42      -1.3917      2.00000
     43      -1.3583      2.00000
     44      -1.3179      2.00000
     45      -1.1983      2.00000
     46      -1.1237      2.00000
     47      -1.0194      2.00000
     48      -0.9839      2.00000
     49      -0.6789      2.00000
     50      -0.5832      2.00000
     51      -0.3000      2.00000
     52      -0.1780      2.00000
     53       0.4507      1.85795
     54       0.5707      0.05424
     55       0.9567      0.00000
     56       1.3573      0.00000
     57       2.3147      0.00000
     58       2.4106      0.00000
     59       2.8257      0.00000
     60       3.9192      0.00000
     61       4.2457      0.00000
     62       4.5023      0.00000
     63       5.6286      0.00000
     64       5.7068      0.00000


--------------------------------------------------------------------------------------------------------


 soft charge-density along one line, spin component           1
         0         1         2         3         4         5         6         7         8         9
 total charge-density along one line
 
 pseudopotential strength for first ion, spin component:           1
 12.816  -0.366  -0.000   0.023   0.000   0.000  -0.000  -0.000
 -0.366   0.087   0.000  -0.003  -0.000  -0.000   0.000   0.000
 -0.000   0.000  -9.136  -0.000   0.000  -0.051   0.000  -0.000
  0.023  -0.003  -0.000  -9.193   0.000   0.000  -0.043  -0.000
  0.000  -0.000   0.000   0.000  -9.136  -0.000  -0.000  -0.051
  0.000  -0.000  -0.051   0.000  -0.000   0.234  -0.000   0.000
 -0.000   0.000   0.000  -0.043  -0.000  -0.000   0.232   0.000
 -0.000   0.000  -0.000  -0.000  -0.051   0.000   0.000   0.234
 total augmentation occupancy for first ion, spin component:           1
  2.000   0.000   0.000   0.000   0.000   0.000   0.000   0.000
  0.000   0.000   0.000   0.000   0.000   0.000   0.000   0.000
  0.000   0.000   1.333   0.000  -0.000   0.000   0.000   0.000
  0.000   0.000   0.000   1.333  -0.000   0.000   0.000   0.000
  0.000   0.000  -0.000  -0.000   1.333   0.000   0.000   0.000
  0.000   0.000   0.000   0.000   0.000   0.000   0.000   0.000
  0.000   0.000   0.000   0.000   0.000   0.000   0.000   0.000
  0.000   0.000   0.000   0.000   0.000   0.000   0.000   0.000


------------------------ aborting loop because EDIFF is reached ----------------------------------------


    CHARGE:  cpu time    0.3402: real time    0.3409
    FORLOC:  cpu time    0.0152: real time    0.0152
    FORNL :  cpu time    2.0391: real time    2.0433
    STRESS:  cpu time    3.0852: real time    3.0913
    FORCOR:  cpu time    0.0673: real time    0.0675
    FORHAR:  cpu time    0.0246: real time    0.0248
    OFIELD:  cpu time    0.0003: real time    0.0003

  FORCE on cell =-STRESS in cart. coord.  units (eV):
  Direction    XX          YY          ZZ          XY          YZ          ZX
  --------------------------------------------------------------------------------------
  Alpha Z    26.50962    26.50962    26.50962
  Ewald  159757.19936159757.19965************    -0.00008     0.00001    -0.00010
  Hartree161073.28360161073.28354************    -0.00000    -0.00000     0.00003
  E(xc)    -412.54748  -412.54749  -413.19757     0.00000    -0.00000     0.00000
  Local  ************************321373.16563    -0.00016    -0.00001     0.00003
  n-local   -44.20324   -54.69917   -40.67246     2.47028    -2.18958     6.44449
  augment    61.08664    61.08641    59.99394     0.00018    -0.00000     0.00000
  Kinetic  1524.68810  1492.84186  1498.23456    -2.15738     0.96576     0.45705
  Fock        0.00000     0.00000     0.00000     0.00000     0.00000     0.00000
  -------------------------------------------------------------------------------------
  Total      -1.70240    -1.70240    -1.86247     0.00000     0.00000    -0.00000
  in kB      -5.07170    -5.07170    -5.54857     0.00000     0.00000    -0.00000
  external pressure =       -5.23 kB  Pullay stress =        0.00 kB


 VOLUME and BASIS-vectors are now :
 -----------------------------------------------------------------------------
  energy-cutoff  :      520.00
  volume of cell :      537.80
      direct lattice vectors                 reciprocal lattice vectors
     2.607300145 -1.505325125  0.000000000     0.383538505  0.000000000  0.000000000
     0.000000000  3.010650250  0.000000000     0.191769253  0.332154158  0.000000000
    -0.000000000  0.000000000 68.512039442     0.000000000  0.000000000  0.014595975

  length of vectors
     3.010650723  3.010650250 68.512039442     0.383538505  0.383538565  0.014595975


 FORCES acting on ions
    electron-ion (+dipol)            ewald-force                    non-local-force                 convergence-correction
 -----------------------------------------------------------------------------------------------
   0.201E-05 -.595E-06 0.212E+04   0.210E-04 -.264E-04 -.211E+04   0.641E-16 -.208E-16 -.106E+02   -.290E-09 0.164E-09 -.370E+00
   0.107E-02 -.185E-02 0.152E+04   0.609E-04 -.105E-03 -.152E+04   0.253E-17 0.000E+00 -.375E+00   -.254E-08 0.454E-08 -.308E+00
   0.335E-07 -.117E-08 0.291E+03   -.159E-05 0.200E-05 -.291E+03   0.253E-17 0.000E+00 -.432E+00   -.560E-09 0.478E-09 -.296E+00
   0.107E-02 -.185E-02 -.324E+03   0.597E-04 -.104E-03 0.325E+03   0.267E-17 0.867E-18 -.458E+00   0.500E-09 -.114E-08 -.301E+00
   0.399E-07 -.263E-07 -.156E+04   -.177E-05 0.221E-05 0.156E+04   0.287E-17 0.108E-18 -.496E+00   0.426E-09 -.315E-09 -.374E+00
   0.107E-02 -.185E-02 -.217E+04   0.601E-04 -.106E-03 0.217E+04   0.509E-17 -.173E-17 -.770E+00   0.259E-08 -.423E-08 -.371E+00
   -.258E-05 0.592E-06 -.340E+04   -.323E-04 0.411E-04 0.341E+04   0.871E-16 0.694E-17 -.147E+02   0.546E-09 -.188E-09 0.539E-01
   -.107E-02 0.185E-02 0.907E+03   -.594E-04 0.102E-03 -.906E+03   0.269E-17 0.000E+00 -.429E+00   -.379E-09 0.184E-09 -.296E+00
   -.107E-02 0.185E-02 -.940E+03   -.595E-04 0.102E-03 0.941E+03   0.298E-17 -.434E-18 -.443E+00   0.455E-09 -.719E-09 -.351E+00
   -.107E-02 0.185E-02 -.279E+04   -.599E-04 0.982E-04 0.279E+04   0.127E-16 0.520E-17 -.232E+01   0.549E-07 -.979E-07 -.326E+00
   -.550E-06 0.219E-06 0.405E+03   0.161E-05 -.203E-05 -.404E+03   0.313E-18 0.000E+00 -.322E+00   0.232E-10 0.134E-10 -.105E+00
   -.453E-06 0.224E-06 -.211E+03   0.156E-05 -.196E-05 0.212E+03   -.229E-17 0.347E-17 -.317E+00   0.180E-10 0.294E-11 -.111E+00
   -.152E-05 0.656E-06 -.829E+03   0.512E-05 -.645E-05 0.830E+03   0.950E-17 -.694E-17 -.847E+00   0.306E-09 -.195E-09 -.113E+00
   0.539E-04 -.922E-04 0.614E+03   -.552E-04 0.934E-04 -.614E+03   0.113E-17 0.000E+00 -.207E+00   0.610E-10 -.264E-10 -.111E+00
   0.491E-04 -.858E-04 -.594E+01   -.507E-04 0.885E-04 0.636E+01   0.311E-18 0.347E-17 -.320E+00   0.528E-10 0.721E-11 -.106E+00
   0.494E-04 -.864E-04 -.622E+03   -.511E-04 0.895E-04 0.623E+03   0.385E-18 0.694E-17 -.396E+00   -.176E-10 -.585E-10 -.118E+00
   -.499E-04 0.857E-04 0.199E+03   0.504E-04 -.866E-04 -.199E+03   0.118E-17 0.173E-17 -.320E+00   0.352E-10 0.303E-10 -.104E+00
   -.499E-04 0.858E-04 -.417E+03   0.505E-04 -.867E-04 0.417E+03   0.318E-18 0.000E+00 -.327E+00   -.228E-10 -.329E-10 -.116E+00
   -.637E-04 0.102E-03 -.104E+04   0.604E-04 -.939E-04 0.105E+04   -.458E-16 -.278E-16 -.286E+01   0.196E-08 -.212E-08 -.422E-01
   0.273E-06 -.165E-07 0.114E+04   -.223E-05 0.244E-05 -.114E+04   0.848E-17 -.555E-16 -.158E+01   0.308E-10 -.277E-11 0.859E-01
   0.148E-07 0.496E-07 0.118E+04   0.114E-06 -.132E-06 -.118E+04   -.447E-19 0.139E-16 0.460E-01   -.153E-10 0.380E-11 0.899E-02
   -.252E-06 0.665E-07 0.125E+04   0.299E-05 -.329E-05 -.124E+04   0.429E-17 0.278E-16 -.441E+01   -.361E-10 0.109E-10 -.122E+00
   0.145E-04 -.251E-04 0.117E+04   -.461E-05 0.799E-05 -.117E+04   -.179E-17 0.694E-17 0.598E-01   -.862E-10 0.245E-09 0.335E-01
   0.158E-04 -.269E-04 0.121E+04   -.483E-05 0.800E-05 -.121E+04   -.233E-20 -.278E-16 0.239E-02   -.247E-10 0.150E-09 -.516E-01
   -.144E-04 0.251E-04 0.116E+04   0.444E-05 -.777E-05 -.116E+04   -.278E-16 0.000E+00 0.283E-01   -.571E-10 0.110E-09 0.560E-01
   -.149E-04 0.260E-04 0.120E+04   0.431E-05 -.744E-05 -.120E+04   -.329E-19 0.000E+00 0.338E-01   0.912E-10 -.672E-10 -.135E-01
 -----------------------------------------------------------------------------------------------
   -.117E-04 0.796E-05 0.467E+02   0.198E-12 0.406E-13 -.136E-11   0.133E-15 -.636E-16 -.428E+02   0.580E-07 -.101E-06 -.387E+01
 
 
 POSITION                                       TOTAL-FORCE (eV/Angst)
 -----------------------------------------------------------------------------------
     -0.00000      0.00000     30.81196        -0.000000      0.000000      0.010266
      0.86910      1.50533     33.16292        -0.000000     -0.000000      0.016228
     -0.00000      0.00000     38.07401        -0.000000      0.000000      0.005127
      0.86910      1.50533     40.52989         0.000000      0.000000     -0.009200
     -0.00000      0.00000     45.43771         0.000000      0.000000     -0.010237
      0.86910      1.50533     47.88469        -0.000000     -0.000000     -0.001039
     -0.00000      0.00000     52.57528         0.000000      0.000000     -0.026094
      1.73820     -0.00000     35.61901         0.000000     -0.000000      0.002787
      1.73820     -0.00000     42.98410         0.000000      0.000000     -0.002273
      1.73820     -0.00000     50.29925         0.000000     -0.000000     -0.008860
     -0.00000      0.00000     34.40977         0.000000      0.000000     -0.013545
     -0.00000      0.00000     41.77505        -0.000000      0.000000      0.002621
     -0.00000      0.00000     49.14900         0.000000      0.000000     -0.003381
      1.73820     -0.00000     31.94934        -0.000000      0.000000      0.008875
      1.73820     -0.00000     39.32026         0.000000      0.000000     -0.002501
      1.73820     -0.00000     46.68495        -0.000000      0.000000      0.002580
      0.86910      1.50533     36.86489         0.000000      0.000000     -0.002891
      0.86910      1.50533     44.22966        -0.000000      0.000000      0.001500
      0.86910      1.50533     51.66585         0.000000      0.000000     -0.009810
     -0.00000      0.00000     15.86025        -0.000000      0.000000      0.007079
     -0.00000      0.00000     22.49071        -0.000000      0.000000      0.007007
     -0.00000      0.00000     29.09264        -0.000000      0.000000      0.000426
      1.73820     -0.00000     20.29075        -0.000000      0.000000      0.008152
      1.73820     -0.00000     26.94697        -0.000000      0.000000      0.006996
      0.86910      1.50533     18.09258        -0.000000      0.000000      0.006537
      0.86910      1.50533     24.71326        -0.000000      0.000000      0.003649
 -----------------------------------------------------------------------------------
    total drift:                               -0.000012      0.000008      0.001003


--------------------------------------------------------------------------------------------------------



  FREE ENERGIE OF THE ION-ELECTRON SYSTEM (eV)
  ---------------------------------------------------
  free  energy   TOTEN  =      -138.17075361 eV

  energy  without entropy=     -138.15184101  energy(sigma->0) =     -138.16129731
 


--------------------------------------------------------------------------------------------------------


    POTLOK:  cpu time    0.1817: real time    0.1819


--------------------------------------------------------------------------------------------------------


 stress matrix after NEB project (eV)
     -1.70240      0.00000     -0.00000
      0.00000     -1.70240      0.00000
     -0.00000      0.00000     -1.86247
  FORCES: max atom, RMS     0.026094    0.008834
  FORCE total and by dimension    0.045045    0.026094
  Stress total and by dimension    3.043863    1.862467
     LOOP+:  cpu time   73.8634: real time   74.1961
    4ORBIT:  cpu time    0.0000: real time    0.0000

 total amount of memory used by VASP MPI-rank0   102473. kBytes
=======================================================================

   base      :      30000. kBytes
   nonl-proj :      16333. kBytes
   fftplans  :      23676. kBytes
   grid      :      12402. kBytes
   one-center:         21. kBytes
   wavefun   :      20041. kBytes
 
  
  
 General timing and accounting informations for this job:
 ========================================================
  
                  Total CPU time used (sec):       88.668
                            User time (sec):       85.599
                          System time (sec):        3.070
                         Elapsed time (sec):       89.050
  
                   Maximum memory used (kb):      157540.
                   Average memory used (kb):           0.
  
                          Minor page faults:       113998
                          Major page faults:            0
                 Voluntary context switches:          101
