       N       E                     dE             d eps       ncg     rms          rms(c)
DAV:   1     0.473442942452E+03    0.47344E+03   -0.41104E+04  6076   0.131E+03
DAV:   2    -0.904604152531E+02   -0.56390E+03   -0.53426E+03  7910   0.247E+02
DAV:   3    -0.146825148848E+03   -0.56365E+02   -0.56000E+02  7136   0.845E+01
DAV:   4    -0.147579203201E+03   -0.75405E+00   -0.75227E+00  7160   0.106E+01
DAV:   5    -0.147590816409E+03   -0.11613E-01   -0.11607E-01  7188   0.130E+00    0.219E+01
DAV:   6    -0.133182252987E+03    0.14409E+02   -0.83440E+01  7052   0.291E+01    0.750E+00
DAV:   7    -0.133073458804E+03    0.10879E+00   -0.18161E+00  6716   0.518E+00    0.458E+00
DAV:   8    -0.132970765882E+03    0.10269E+00   -0.50017E-01  7016   0.395E+00    0.844E-01
DAV:   9    -0.132956507443E+03    0.14258E-01   -0.64493E-02  6966   0.115E+00    0.459E-01
DAV:  10    -0.132957329144E+03   -0.82170E-03   -0.46145E-02  6794   0.900E-01    0.253E-01
DAV:  11    -0.132957288428E+03    0.40717E-04   -0.33359E-03  6944   0.283E-01    0.189E-01
DAV:  12    -0.132957192544E+03    0.95884E-04   -0.51326E-03  8426   0.384E-01    0.827E-02
DAV:  13    -0.132957191805E+03    0.73901E-06   -0.12975E-03  6892   0.155E-01    0.563E-02
DAV:  14    -0.132957140376E+03    0.51428E-04   -0.32757E-04  6848   0.854E-02    0.183E-02
DAV:  15    -0.132957135492E+03    0.48846E-05   -0.99816E-05  6722   0.386E-02
   1 F= -.13295714E+03 E0= -.13295501E+03  d E =-.132957E+03
       N       E                     dE             d eps       ncg     rms          rms(c)
DAV:   1    -0.132958518479E+03   -0.13781E-02   -0.27042E-02  6678   0.736E-01    0.378E-02
DAV:   2    -0.132958530228E+03   -0.11749E-04   -0.11333E-03  7082   0.170E-01    0.253E-02
DAV:   3    -0.132958511242E+03    0.18986E-04   -0.12895E-04  7060   0.541E-02    0.213E-02
DAV:   4    -0.132958490205E+03    0.21037E-04   -0.19984E-05  5150   0.227E-02    0.116E-02
DAV:   5    -0.132958458013E+03    0.32192E-04   -0.59633E-05  6832   0.630E-02    0.108E-02
DAV:   6    -0.132958448654E+03    0.93592E-05   -0.27221E-05  5888   0.483E-02
   2 F= -.13295845E+03 E0= -.13295635E+03  d E =-.131316E-02
       N       E                     dE             d eps       ncg     rms          rms(c)
DAV:   1    -0.132959143219E+03   -0.68521E-03   -0.46982E-02  6452   0.972E-01    0.416E-02
DAV:   2    -0.132959187946E+03   -0.44726E-04   -0.18734E-03  7122   0.205E-01    0.348E-02
DAV:   3    -0.132959148917E+03    0.39029E-04   -0.14149E-04  7074   0.571E-02    0.274E-02
DAV:   4    -0.132959093897E+03    0.55020E-04   -0.10109E-04  6998   0.489E-02    0.120E-02
DAV:   5    -0.132959061832E+03    0.32065E-04   -0.48726E-05  6926   0.633E-02    0.155E-02
DAV:   6    -0.132959043776E+03    0.18056E-04   -0.51650E-05  6812   0.725E-02    0.645E-03
DAV:   7    -0.132959047109E+03   -0.33333E-05   -0.73785E-05  6036   0.379E-02
   3 F= -.13295905E+03 E0= -.13295696E+03  d E =-.191162E-02
       N       E                     dE             d eps       ncg     rms          rms(c)
DAV:   1    -0.132959761556E+03   -0.71778E-03   -0.15128E-01  6308   0.170E+00    0.491E-02
DAV:   2    -0.132960056991E+03   -0.29543E-03   -0.32927E-03  6838   0.227E-01    0.286E-02
DAV:   3    -0.132960037775E+03    0.19216E-04   -0.34525E-05  6620   0.325E-02    0.189E-02
DAV:   4    -0.132960024825E+03    0.12950E-04   -0.33891E-05  6014   0.380E-02    0.583E-03
DAV:   5    -0.132960025385E+03   -0.56009E-06   -0.20162E-05  4420   0.213E-02    0.498E-03
DAV:   6    -0.132960025216E+03    0.16834E-06   -0.23416E-06  3584   0.656E-03
   4 F= -.13296003E+03 E0= -.13295794E+03  d E =-.978107E-03
       N       E                     dE             d eps       ncg     rms          rms(c)
DAV:   1    -0.132959430012E+03    0.59537E-03   -0.13609E+00  6204   0.509E+00    0.141E-01
DAV:   2    -0.132962087879E+03   -0.26579E-02   -0.29697E-02  6840   0.681E-01    0.879E-02
DAV:   3    -0.132961884059E+03    0.20382E-03   -0.26175E-04  7268   0.109E-01    0.593E-02
DAV:   4    -0.132961686392E+03    0.19767E-03   -0.40705E-04  7500   0.176E-01    0.161E-02
DAV:   5    -0.132961685080E+03    0.13120E-05   -0.33935E-04  6968   0.909E-02    0.192E-02
DAV:   6    -0.132961680733E+03    0.43463E-05   -0.29937E-05  5314   0.208E-02
   5 F= -.13296168E+03 E0= -.13295959E+03  d E =-.263362E-02
       N       E                     dE             d eps       ncg     rms          rms(c)
DAV:   1    -0.132961359592E+03    0.32549E-03   -0.28784E-01  6206   0.234E+00    0.717E-02
DAV:   2    -0.132961875371E+03   -0.51578E-03   -0.63895E-03  6836   0.317E-01    0.407E-02
DAV:   3    -0.132961800189E+03    0.75183E-04   -0.58487E-05  7134   0.719E-02    0.277E-02
DAV:   4    -0.132961683570E+03    0.11662E-03   -0.13740E-04  8514   0.145E-01    0.103E-02
DAV:   5    -0.132961652283E+03    0.31287E-04   -0.13901E-04  6564   0.753E-02    0.117E-02
DAV:   6    -0.132961607988E+03    0.44295E-04   -0.16160E-05  4648   0.548E-02    0.646E-03
DAV:   7    -0.132961544322E+03    0.63666E-04   -0.27072E-05  5794   0.109E-01    0.602E-03
DAV:   8    -0.132961465308E+03    0.79014E-04   -0.94715E-05  7778   0.179E-01    0.725E-03
DAV:   9    -0.132961429874E+03    0.35434E-04   -0.21796E-04  9104   0.220E-01    0.129E-02
DAV:  10    -0.132961438599E+03   -0.87247E-05   -0.20936E-04  6348   0.574E-02    0.130E-02
DAV:  11    -0.132961437529E+03    0.10696E-05   -0.13189E-05  4494   0.214E-02
   6 F= -.13296144E+03 E0= -.13295933E+03  d E =-.239042E-02
       N       E                     dE             d eps       ncg     rms          rms(c)
DAV:   1    -0.132961442792E+03   -0.41932E-05   -0.60074E-02  6270   0.107E+00    0.293E-02
DAV:   2    -0.132961548134E+03   -0.10534E-03   -0.12576E-03  6884   0.145E-01    0.186E-02
DAV:   3    -0.132961536958E+03    0.11177E-04   -0.19133E-05  4882   0.286E-02    0.126E-02
DAV:   4    -0.132961525885E+03    0.11073E-04   -0.10472E-05  4382   0.303E-02    0.584E-03
DAV:   5    -0.132961521026E+03    0.48587E-05   -0.16779E-05  4796   0.326E-02    0.243E-03
DAV:   6    -0.132961520542E+03    0.48362E-06   -0.12202E-05  3670   0.211E-02
   7 F= -.13296152E+03 E0= -.13295942E+03  d E =-.247343E-02
       N       E                     dE             d eps       ncg     rms          rms(c)
DAV:   1    -0.132961918488E+03   -0.39746E-03   -0.24012E-01  6316   0.212E+00    0.597E-02
DAV:   2    -0.132962402223E+03   -0.48374E-03   -0.52865E-03  6698   0.288E-01    0.356E-02
DAV:   3    -0.132962374066E+03    0.28157E-04   -0.52330E-05  6944   0.353E-02    0.254E-02
DAV:   4    -0.132962350665E+03    0.23401E-04   -0.88622E-05  6590   0.513E-02    0.962E-03
DAV:   5    -0.132962348511E+03    0.21536E-05   -0.24985E-05  5114   0.249E-02    0.912E-03
DAV:   6    -0.132962344426E+03    0.40853E-05   -0.84678E-06  3888   0.190E-02
   8 F= -.13296234E+03 E0= -.13296023E+03  d E =-.823883E-03
       N       E                     dE             d eps       ncg     rms          rms(c)
DAV:   1    -0.132959714879E+03    0.26336E-02   -0.21593E+00  6292   0.637E+00    0.178E-01
DAV:   2    -0.132964064651E+03   -0.43498E-02   -0.47512E-02  6636   0.870E-01    0.108E-01
DAV:   3    -0.132963802569E+03    0.26208E-03   -0.44111E-04  7244   0.104E-01    0.763E-02
DAV:   4    -0.132963580437E+03    0.22213E-03   -0.84933E-04  7054   0.158E-01    0.295E-02
DAV:   5    -0.132963563327E+03    0.17110E-04   -0.23975E-04  6910   0.751E-02    0.270E-02
DAV:   6    -0.132963529692E+03    0.33634E-04   -0.75512E-05  6416   0.510E-02    0.122E-02
DAV:   7    -0.132963487989E+03    0.41704E-04   -0.55870E-05  7074   0.788E-02    0.157E-02
DAV:   8    -0.132963426301E+03    0.61688E-04   -0.35242E-05  6350   0.104E-01    0.142E-02
DAV:   9    -0.132963369136E+03    0.57165E-04   -0.11603E-04  7876   0.121E-01    0.157E-02
DAV:  10    -0.132963303170E+03    0.65966E-04   -0.86933E-05  7604   0.178E-01    0.195E-02
DAV:  11    -0.132963294510E+03    0.86603E-05   -0.12071E-04  6698   0.822E-02    0.160E-02
DAV:  12    -0.132963296670E+03   -0.21607E-05   -0.11473E-04  6202   0.476E-02    0.683E-03
DAV:  13    -0.132963295176E+03    0.14948E-05   -0.61848E-06  3894   0.239E-02
   9 F= -.13296330E+03 E0= -.13296115E+03  d E =-.177463E-02
       N       E                     dE             d eps       ncg     rms          rms(c)
DAV:   1    -0.132963814648E+03   -0.51798E-03   -0.12122E-01  6148   0.147E+00    0.397E-02
DAV:   2    -0.132964012765E+03   -0.19812E-03   -0.22981E-03  6930   0.189E-01    0.231E-02
DAV:   3    -0.132963997906E+03    0.14860E-04   -0.24764E-05  5552   0.270E-02    0.161E-02
DAV:   4    -0.132963987146E+03    0.10760E-04   -0.51001E-05  6292   0.429E-02    0.552E-03
DAV:   5    -0.132963988316E+03   -0.11702E-05   -0.18365E-05  4416   0.179E-02    0.672E-03
DAV:   6    -0.132963988000E+03    0.31574E-06   -0.13790E-06  3548   0.525E-03
  10 F= -.13296399E+03 E0= -.13296182E+03  d E =-.692825E-03
       N       E                     dE             d eps       ncg     rms          rms(c)
DAV:   1    -0.132963562832E+03    0.42548E-03   -0.10952E+00  6076   0.443E+00    0.122E-01
DAV:   2    -0.132965421073E+03   -0.18582E-02   -0.21485E-02  6926   0.580E-01    0.744E-02
DAV:   3    -0.132965280025E+03    0.14105E-03   -0.25384E-04  7238   0.898E-02    0.524E-02
DAV:   4    -0.132965184669E+03    0.95355E-04   -0.55110E-04  7338   0.134E-01    0.222E-02
DAV:   5    -0.132965191963E+03   -0.72934E-05   -0.17401E-04  6904   0.568E-02    0.251E-02
DAV:   6    -0.132965187509E+03    0.44540E-05   -0.12946E-05  3692   0.165E-02
  11 F= -.13296519E+03 E0= -.13296298E+03  d E =-.189233E-02
       N       E                     dE             d eps       ncg     rms          rms(c)
DAV:   1    -0.132965001538E+03    0.19043E-03   -0.19351E-01  6076   0.187E+00    0.543E-02
DAV:   2    -0.132965331889E+03   -0.33035E-03   -0.39163E-03  6922   0.251E-01    0.328E-02
DAV:   3    -0.132965305307E+03    0.26583E-04   -0.62232E-05  6890   0.448E-02    0.235E-02
DAV:   4    -0.132965286806E+03    0.18501E-04   -0.89240E-05  6656   0.511E-02    0.106E-02
DAV:   5    -0.132965285401E+03    0.14050E-05   -0.27580E-05  5552   0.277E-02    0.111E-02
DAV:   6    -0.132965282267E+03    0.31337E-05   -0.12840E-05  3724   0.221E-02
  12 F= -.13296528E+03 E0= -.13296306E+03  d E =-.198709E-02
       N       E                     dE             d eps       ncg     rms          rms(c)
DAV:   1    -0.132965762126E+03   -0.47672E-03   -0.98429E-02  6100   0.138E+00    0.423E-02
DAV:   2    -0.132965965329E+03   -0.20320E-03   -0.23245E-03  6770   0.199E-01    0.233E-02
DAV:   3    -0.132965956138E+03    0.91909E-05   -0.43614E-05  6410   0.290E-02    0.179E-02
DAV:   4    -0.132965948271E+03    0.78679E-05   -0.28568E-05  5062   0.237E-02    0.769E-03
DAV:   5    -0.132965945965E+03    0.23051E-05   -0.91382E-06  3886   0.177E-02    0.831E-03
DAV:   6    -0.132965943212E+03    0.27539E-05   -0.42301E-06  3744   0.198E-02
  13 F= -.13296594E+03 E0= -.13296370E+03  d E =-.660944E-03
       N       E                     dE             d eps       ncg     rms          rms(c)
DAV:   1    -0.132965579762E+03    0.36620E-03   -0.88654E-01  6132   0.414E+00    0.126E-01
DAV:   2    -0.132967405677E+03   -0.18259E-02   -0.20749E-02  6830   0.594E-01    0.697E-02
DAV:   3    -0.132967327587E+03    0.78090E-04   -0.40102E-04  7132   0.877E-02    0.536E-02
DAV:   4    -0.132967266753E+03    0.60835E-04   -0.21235E-04  6826   0.672E-02    0.239E-02
DAV:   5    -0.132967250685E+03    0.16068E-04   -0.89915E-05  6772   0.501E-02    0.220E-02
DAV:   6    -0.132967239346E+03    0.11339E-04   -0.45126E-05  5930   0.461E-02    0.126E-02
DAV:   7    -0.132967239046E+03    0.29996E-06   -0.33189E-05  5242   0.241E-02
  14 F= -.13296724E+03 E0= -.13296495E+03  d E =-.195678E-02
       N       E                     dE             d eps       ncg     rms          rms(c)
DAV:   1    -0.132960001803E+03    0.72375E-02   -0.35463E+00  6132   0.828E+00    0.253E-01
DAV:   2    -0.132967318390E+03   -0.73166E-02   -0.83403E-02  6844   0.119E+00    0.141E-01
DAV:   3    -0.132967003343E+03    0.31505E-03   -0.16458E-03  7124   0.176E-01    0.107E-01
DAV:   4    -0.132966762141E+03    0.24120E-03   -0.82373E-04  7130   0.133E-01    0.485E-02
DAV:   5    -0.132966696603E+03    0.65538E-04   -0.36155E-04  7090   0.100E-01    0.423E-02
DAV:   6    -0.132966655609E+03    0.40994E-04   -0.20877E-04  7780   0.924E-02    0.217E-02
DAV:   7    -0.132966656094E+03   -0.48496E-06   -0.10123E-04  6188   0.412E-02    0.161E-02
DAV:   8    -0.132966646826E+03    0.92674E-05   -0.15858E-05  4294   0.176E-02
  15 F= -.13296665E+03 E0= -.13296429E+03  d E =-.136456E-02
       N       E                     dE             d eps       ncg     rms          rms(c)
DAV:   1    -0.132964934588E+03    0.17215E-02   -0.13917E+00  6132   0.518E+00    0.151E-01
DAV:   2    -0.132967738132E+03   -0.28035E-02   -0.31329E-02  6828   0.722E-01    0.871E-02
DAV:   3    -0.132967602907E+03    0.13522E-03   -0.45651E-04  7176   0.972E-02    0.642E-02
DAV:   4    -0.132967503695E+03    0.99212E-04   -0.45809E-04  6936   0.109E-01    0.260E-02
DAV:   5    -0.132967498274E+03    0.54203E-05   -0.12679E-04  6712   0.591E-02    0.264E-02
DAV:   6    -0.132967488146E+03    0.10128E-04   -0.81152E-05  6228   0.446E-02    0.102E-02
DAV:   7    -0.132967487701E+03    0.44478E-06   -0.14860E-05  4106   0.174E-02
  16 F= -.13296749E+03 E0= -.13296517E+03  d E =-.220543E-02
       N       E                     dE             d eps       ncg     rms          rms(c)
DAV:   1    -0.132967814607E+03   -0.32646E-03   -0.23617E-01  6132   0.212E+00    0.607E-02
DAV:   2    -0.132968285678E+03   -0.47107E-03   -0.51701E-03  6754   0.289E-01    0.341E-02
DAV:   3    -0.132968261153E+03    0.24526E-04   -0.61508E-05  7080   0.360E-02    0.238E-02
DAV:   4    -0.132968243843E+03    0.17310E-04   -0.56588E-05  6312   0.436E-02    0.863E-03
DAV:   5    -0.132968244066E+03   -0.22313E-06   -0.24851E-05  4932   0.227E-02    0.785E-03
DAV:   6    -0.132968243062E+03    0.10041E-05   -0.48311E-06  3614   0.106E-02
  17 F= -.13296824E+03 E0= -.13296590E+03  d E =-.755360E-03
       N       E                     dE             d eps       ncg     rms          rms(c)
DAV:   1    -0.132965989218E+03    0.22548E-02   -0.21287E+00  6140   0.638E+00    0.180E-01
DAV:   2    -0.132970281015E+03   -0.42918E-02   -0.46655E-02  6684   0.868E-01    0.102E-01
DAV:   3    -0.132970049081E+03    0.23193E-03   -0.46566E-04  7298   0.105E-01    0.699E-02
DAV:   4    -0.132969871917E+03    0.17716E-03   -0.55570E-04  7168   0.151E-01    0.210E-02
DAV:   5    -0.132969881198E+03   -0.92814E-05   -0.27743E-04  6876   0.711E-02    0.232E-02
DAV:   6    -0.132969871466E+03    0.97323E-05   -0.16137E-05  3912   0.180E-02
  18 F= -.13296987E+03 E0= -.13296749E+03  d E =-.238376E-02
       N       E                     dE             d eps       ncg     rms          rms(c)
DAV:   1    -0.132954587833E+03    0.15293E-01   -0.85120E+00  6148   0.128E+01    0.360E-01
DAV:   2    -0.132971894138E+03   -0.17306E-01   -0.18809E-01  6696   0.174E+00    0.209E-01
DAV:   3    -0.132970918483E+03    0.97566E-03   -0.18587E-03  7280   0.214E-01    0.141E-01
DAV:   4    -0.132970144279E+03    0.77420E-03   -0.22093E-03  7144   0.312E-01    0.403E-02
DAV:   5    -0.132970170070E+03   -0.25791E-04   -0.11741E-03  6926   0.148E-01    0.429E-02
DAV:   6    -0.132970129233E+03    0.40837E-04   -0.57617E-05  6366   0.331E-02    0.294E-02
DAV:   7    -0.132970037631E+03    0.91602E-04   -0.15143E-04  6806   0.625E-02    0.173E-02
DAV:   8    -0.132969993165E+03    0.44466E-04   -0.87078E-06  4672   0.472E-02    0.168E-02
DAV:   9    -0.132969869678E+03    0.12349E-03   -0.17146E-04  9372   0.180E-01    0.177E-02
DAV:  10    -0.132969794832E+03    0.74846E-04   -0.10018E-04  7456   0.976E-02    0.123E-02
DAV:  11    -0.132969696183E+03    0.98649E-04   -0.15829E-04  7656   0.178E-01    0.286E-02
DAV:  12    -0.132969628931E+03    0.67252E-04   -0.16729E-04  8500   0.210E-01    0.212E-02
DAV:  13    -0.132969633888E+03   -0.49568E-05   -0.26808E-04  6696   0.125E-01    0.637E-03
DAV:  14    -0.132969645186E+03   -0.11298E-04   -0.14626E-04  6318   0.482E-02    0.117E-02
DAV:  15    -0.132969646452E+03   -0.12660E-05   -0.56006E-06  3658   0.912E-03
  19 F= -.13296965E+03 E0= -.13296723E+03  d E =-.215875E-02
       N       E                     dE             d eps       ncg     rms          rms(c)
DAV:   1    -0.132966390767E+03    0.32544E-02   -0.21413E+00  6120   0.640E+00    0.183E-01
DAV:   2    -0.132970739840E+03   -0.43491E-02   -0.47336E-02  6676   0.874E-01    0.103E-01
DAV:   3    -0.132970501907E+03    0.23793E-03   -0.45973E-04  7332   0.105E-01    0.707E-02
DAV:   4    -0.132970325113E+03    0.17679E-03   -0.66113E-04  7154   0.156E-01    0.213E-02
DAV:   5    -0.132970336242E+03   -0.11128E-04   -0.26209E-04  6896   0.681E-02    0.241E-02
DAV:   6    -0.132970326378E+03    0.98638E-05   -0.23443E-05  4452   0.211E-02
  20 F= -.13297033E+03 E0= -.13296793E+03  d E =-.283868E-02
       N       E                     dE             d eps       ncg     rms          rms(c)
DAV:   1    -0.132970374216E+03   -0.37974E-04   -0.52745E-01  6076   0.323E+00    0.969E-02
DAV:   2    -0.132971440709E+03   -0.10665E-02   -0.12313E-02  6764   0.461E-01    0.541E-02
DAV:   3    -0.132971385288E+03    0.55422E-04   -0.27009E-04  7260   0.750E-02    0.408E-02
DAV:   4    -0.132971331934E+03    0.53354E-04   -0.12372E-04  6796   0.509E-02    0.195E-02
DAV:   5    -0.132971285495E+03    0.46439E-04   -0.46892E-05  6802   0.587E-02    0.186E-02
DAV:   6    -0.132971247885E+03    0.37609E-04   -0.30099E-05  5518   0.661E-02    0.131E-02
DAV:   7    -0.132971224194E+03    0.23691E-04   -0.53800E-05  6318   0.569E-02    0.986E-03
DAV:   8    -0.132971154297E+03    0.69897E-04   -0.70044E-05  6936   0.116E-01    0.166E-02
DAV:   9    -0.132971115857E+03    0.38440E-04   -0.59744E-05  6962   0.114E-01    0.216E-02
DAV:  10    -0.132971097482E+03    0.18375E-04   -0.10200E-04  6940   0.937E-02    0.112E-02
DAV:  11    -0.132971102039E+03   -0.45570E-05   -0.77110E-05  5642   0.349E-02
  21 F= -.13297110E+03 E0= -.13296869E+03  d E =-.775661E-03
       N       E                     dE             d eps       ncg     rms          rms(c)
DAV:   1    -0.132971022077E+03    0.75405E-04   -0.11350E-01  6160   0.150E+00    0.421E-02
DAV:   2    -0.132971259893E+03   -0.23782E-03   -0.27038E-03  6762   0.215E-01    0.276E-02
DAV:   3    -0.132971247838E+03    0.12055E-04   -0.53677E-05  6708   0.330E-02    0.211E-02
DAV:   4    -0.132971236789E+03    0.11049E-04   -0.33761E-05  5536   0.258E-02    0.948E-03
DAV:   5    -0.132971230688E+03    0.61015E-05   -0.11088E-05  3834   0.231E-02    0.904E-03
DAV:   6    -0.132971225544E+03    0.51436E-05   -0.46147E-06  3736   0.253E-02
  22 F= -.13297123E+03 E0= -.13296881E+03  d E =-.899167E-03
       N       E                     dE             d eps       ncg     rms          rms(c)
DAV:   1    -0.132971182214E+03    0.48474E-04   -0.26820E-02  6196   0.727E-01    0.254E-02
DAV:   2    -0.132971237026E+03   -0.54812E-04   -0.67722E-04  6798   0.109E-01    0.122E-02
DAV:   3    -0.132971232368E+03    0.46584E-05   -0.14542E-05  4126   0.198E-02    0.918E-03
DAV:   4    -0.132971225157E+03    0.72103E-05   -0.11061E-05  3816   0.205E-02    0.431E-03
DAV:   5    -0.132971220129E+03    0.50286E-05   -0.52314E-06  3992   0.217E-02    0.719E-03
DAV:   6    -0.132971213089E+03    0.70395E-05   -0.63157E-06  4016   0.336E-02
  23 F= -.13297121E+03 E0= -.13296880E+03  d E =-.886711E-03
       N       E                     dE             d eps       ncg     rms          rms(c)
DAV:   1    -0.132971407128E+03   -0.18700E-03   -0.26315E-01  6356   0.223E+00    0.625E-02
DAV:   2    -0.132971902175E+03   -0.49505E-03   -0.56520E-03  6802   0.302E-01    0.389E-02
DAV:   3    -0.132971860691E+03    0.41484E-04   -0.63837E-05  6892   0.480E-02    0.260E-02
DAV:   4    -0.132971828421E+03    0.32270E-04   -0.11557E-04  6720   0.667E-02    0.856E-03
DAV:   5    -0.132971830654E+03   -0.22335E-05   -0.48380E-05  5998   0.290E-02    0.938E-03
DAV:   6    -0.132971830296E+03    0.35784E-06   -0.20309E-06  3602   0.613E-03
  24 F= -.13297183E+03 E0= -.13296942E+03  d E =-.617207E-03
       N       E                     dE             d eps       ncg     rms          rms(c)
DAV:   1    -0.132971407167E+03    0.42349E-03   -0.44301E-01  6220   0.289E+00    0.822E-02
DAV:   2    -0.132972225774E+03   -0.81861E-03   -0.94557E-03  6790   0.391E-01    0.505E-02
DAV:   3    -0.132972152965E+03    0.72809E-04   -0.10254E-04  7032   0.627E-02    0.343E-02
DAV:   4    -0.132972093590E+03    0.59375E-04   -0.20669E-04  7070   0.945E-02    0.119E-02
DAV:   5    -0.132972097774E+03   -0.41834E-05   -0.95093E-05  6336   0.416E-02    0.132E-02
DAV:   6    -0.132972096556E+03    0.12177E-05   -0.49499E-06  3636   0.990E-03
  25 F= -.13297210E+03 E0= -.13296969E+03  d E =-.883467E-03
       N       E                     dE             d eps       ncg     rms          rms(c)
DAV:   1    -0.132972175180E+03   -0.77406E-04   -0.11625E-01  6468   0.149E+00    0.480E-02
DAV:   2    -0.132972417631E+03   -0.24245E-03   -0.28373E-03  6848   0.219E-01    0.271E-02
DAV:   3    -0.132972398397E+03    0.19234E-04   -0.42591E-05  6706   0.337E-02    0.193E-02
DAV:   4    -0.132972379345E+03    0.19052E-04   -0.44099E-05  6164   0.387E-02    0.800E-03
DAV:   5    -0.132972374036E+03    0.53093E-05   -0.17291E-05  4476   0.268E-02    0.704E-03
DAV:   6    -0.132972370129E+03    0.39063E-05   -0.97324E-06  3820   0.203E-02
  26 F= -.13297237E+03 E0= -.13296997E+03  d E =-.273573E-03
       N       E                     dE             d eps       ncg     rms          rms(c)
DAV:   1    -0.132972306446E+03    0.67589E-04   -0.51996E-02  6488   0.100E+00    0.291E-02
DAV:   2    -0.132972409473E+03   -0.10303E-03   -0.12666E-03  6872   0.148E-01    0.196E-02
DAV:   3    -0.132972395706E+03    0.13766E-04   -0.19780E-05  4866   0.254E-02    0.144E-02
DAV:   4    -0.132972373819E+03    0.21887E-04   -0.25831E-05  5636   0.341E-02    0.635E-03
DAV:   5    -0.132972365260E+03    0.85591E-05   -0.10998E-05  4116   0.259E-02    0.520E-03
DAV:   6    -0.132972352224E+03    0.13036E-04   -0.18251E-05  5066   0.447E-02    0.615E-03
DAV:   7    -0.132972335307E+03    0.16917E-04   -0.74227E-06  4604   0.524E-02    0.656E-03
DAV:   8    -0.132972318471E+03    0.16836E-04   -0.17716E-05  5132   0.632E-02    0.403E-03
DAV:   9    -0.132972309634E+03    0.88370E-05   -0.20511E-05  5346   0.564E-02
  27 F= -.13297231E+03 E0= -.13296991E+03  d E =-.213078E-03
       N       E                     dE             d eps       ncg     rms          rms(c)
DAV:   1    -0.132972324305E+03   -0.58339E-05   -0.99326E-03  6852   0.437E-01    0.136E-02
DAV:   2    -0.132972346982E+03   -0.22677E-04   -0.26507E-04  6980   0.659E-02    0.984E-03
DAV:   3    -0.132972344688E+03    0.22942E-05   -0.47798E-06  3706   0.123E-02    0.645E-03
DAV:   4    -0.132972342678E+03    0.20100E-05   -0.47804E-06  3820   0.125E-02    0.250E-03
DAV:   5    -0.132972342180E+03    0.49791E-06   -0.21623E-06  3634   0.879E-03    0.173E-03
DAV:   6    -0.132972341668E+03    0.51247E-06   -0.10108E-06  3788   0.834E-03
  28 F= -.13297234E+03 E0= -.13296994E+03  d E =-.245112E-03
       N       E                     dE             d eps       ncg     rms          rms(c)
DAV:   1    -0.132972344193E+03   -0.20126E-05   -0.41594E-03  6528   0.283E-01    0.829E-03
DAV:   2    -0.132972352392E+03   -0.81994E-05   -0.99128E-05  6798   0.410E-02    0.529E-03
DAV:   3    -0.132972351424E+03    0.96773E-06   -0.13661E-06  3512   0.678E-03    0.381E-03
DAV:   4    -0.132972349983E+03    0.14412E-05   -0.18951E-06  3706   0.933E-03    0.155E-03
DAV:   5    -0.132972349587E+03    0.39594E-06   -0.11473E-06  3458   0.647E-03    0.130E-03
DAV:   6    -0.132972349166E+03    0.42123E-06   -0.60805E-07  3578   0.659E-03
  29 F= -.13297235E+03 E0= -.13296995E+03  d E =-.252610E-03
       N       E                     dE             d eps       ncg     rms          rms(c)
DAV:   1    -0.132972448140E+03   -0.98552E-04   -0.67778E-02  6352   0.115E+00    0.343E-02
DAV:   2    -0.132972583503E+03   -0.13536E-03   -0.15993E-03  6808   0.163E-01    0.209E-02
DAV:   3    -0.132972570252E+03    0.13251E-04   -0.19262E-05  4922   0.311E-02    0.148E-02
DAV:   4    -0.132972555548E+03    0.14705E-04   -0.27065E-05  5460   0.461E-02    0.552E-03
DAV:   5    -0.132972553761E+03    0.17872E-05   -0.25010E-05  5192   0.281E-02    0.593E-03
DAV:   6    -0.132972553838E+03   -0.77269E-07   -0.62927E-06  3500   0.997E-03
  30 F= -.13297255E+03 E0= -.13297016E+03  d E =-.204672E-03
       N       E                     dE             d eps       ncg     rms          rms(c)
DAV:   1    -0.132972455836E+03    0.97925E-04   -0.11521E-01  6304   0.151E+00    0.454E-02
DAV:   2    -0.132972675473E+03   -0.21964E-03   -0.27111E-03  6840   0.213E-01    0.273E-02
DAV:   3    -0.132972648084E+03    0.27389E-04   -0.34975E-05  6644   0.454E-02    0.196E-02
DAV:   4    -0.132972615516E+03    0.32569E-04   -0.45951E-05  6298   0.674E-02    0.879E-03
DAV:   5    -0.132972605874E+03    0.96417E-05   -0.48318E-05  6352   0.480E-02    0.834E-03
DAV:   6    -0.132972603511E+03    0.23632E-05   -0.22730E-05  4438   0.232E-02
  31 F= -.13297260E+03 E0= -.13297023E+03  d E =-.254345E-03
       N       E                     dE             d eps       ncg     rms          rms(c)
DAV:   1    -0.132972779322E+03   -0.17345E-03   -0.12927E-02  6136   0.508E-01    0.201E-02
DAV:   2    -0.132972799832E+03   -0.20510E-04   -0.41664E-04  6948   0.919E-02    0.138E-02
DAV:   3    -0.132972794242E+03    0.55908E-05   -0.19651E-05  4548   0.248E-02    0.107E-02
DAV:   4    -0.132972785402E+03    0.88400E-05   -0.99407E-06  3932   0.217E-02    0.504E-03
DAV:   5    -0.132972774897E+03    0.10505E-04   -0.70033E-06  4232   0.328E-02    0.587E-03
DAV:   6    -0.132972763403E+03    0.11494E-04   -0.10827E-05  4702   0.464E-02    0.392E-03
DAV:   7    -0.132972757901E+03    0.55013E-05   -0.16160E-05  4470   0.331E-02
  32 F= -.13297276E+03 E0= -.13297039E+03  d E =-.154391E-03
       N       E                     dE             d eps       ncg     rms          rms(c)
DAV:   1    -0.132972778351E+03   -0.14948E-04   -0.57464E-03  6406   0.338E-01    0.149E-02
DAV:   2    -0.132972787956E+03   -0.96047E-05   -0.21011E-04  7038   0.657E-02    0.824E-03
DAV:   3    -0.132972785370E+03    0.25864E-05   -0.11104E-05  3818   0.163E-02    0.658E-03
DAV:   4    -0.132972781530E+03    0.38397E-05   -0.29715E-06  3742   0.104E-02    0.322E-03
DAV:   5    -0.132972775661E+03    0.58692E-05   -0.43873E-06  4260   0.216E-02    0.415E-03
DAV:   6    -0.132972770415E+03    0.52458E-05   -0.60540E-06  4400   0.308E-02
  33 F= -.13297277E+03 E0= -.13297041E+03  d E =-.166904E-03
       N       E                     dE             d eps       ncg     rms          rms(c)
DAV:   1    -0.132972872690E+03   -0.97029E-04   -0.22350E-02  6594   0.640E-01    0.207E-02
DAV:   2    -0.132972909780E+03   -0.37091E-04   -0.50834E-04  7148   0.968E-02    0.138E-02
DAV:   3    -0.132972903467E+03    0.63131E-05   -0.18345E-05  4364   0.259E-02    0.942E-03
DAV:   4    -0.132972897293E+03    0.61746E-05   -0.65190E-06  4202   0.196E-02    0.484E-03
DAV:   5    -0.132972892681E+03    0.46115E-05   -0.58253E-06  4328   0.254E-02    0.305E-03
DAV:   6    -0.132972890501E+03    0.21803E-05   -0.79952E-06  4192   0.271E-02
  34 F= -.13297289E+03 E0= -.13297054E+03  d E =-.120086E-03
