  28  28   0   0
  0.2265631E+02  0.2985060E-09  0.2985054E-09  0.8220741E-08  0.5000000E-15
  1.000000000000000E-004
  CAR 
 unknown system                          
      8.69322079    -20.86479131  301      1.39190936      1.00000000
    -20.865  0.0000E+00  0.0000E+00
    -20.766  0.0000E+00  0.0000E+00
    -20.668  0.0000E+00  0.0000E+00
    -20.569  0.0000E+00  0.0000E+00
    -20.471  0.0000E+00  0.0000E+00
    -20.372  0.0000E+00  0.0000E+00
    -20.274  0.0000E+00  0.0000E+00
    -20.175  0.0000E+00  0.0000E+00
    -20.077  0.0000E+00  0.0000E+00
    -19.978  0.0000E+00  0.0000E+00
    -19.880  0.0000E+00  0.0000E+00
    -19.781  0.0000E+00  0.0000E+00
    -19.682  0.0000E+00  0.0000E+00
    -19.584  0.0000E+00  0.0000E+00
    -19.485  0.7822E+00  0.2470E-01
    -19.387  0.1340E+01  0.1077E+00
    -19.288  0.2281E+01  0.2750E+00
    -19.190  0.2724E+01  0.5334E+00
    -19.091  0.3742E+01  0.8707E+00
    -18.993  0.4897E+01  0.1269E+01
    -18.894  0.5318E+01  0.1776E+01
    -18.796  0.6852E+01  0.2371E+01
    -18.697  0.7564E+01  0.3080E+01
    -18.599  0.9785E+01  0.3951E+01
    -18.500  0.1302E+02  0.4987E+01
    -18.402  0.1553E+02  0.6358E+01
    -18.303  0.2113E+02  0.8256E+01
    -18.205  0.2781E+02  0.1072E+02
    -18.106  0.3364E+02  0.1369E+02
    -18.008  0.2436E+02  0.1673E+02
    -17.909  0.9809E+01  0.1900E+02
    -17.810  0.0000E+00  0.2000E+02
    -17.712  0.0000E+00  0.2000E+02
    -17.613  0.0000E+00  0.2000E+02
    -17.515  0.0000E+00  0.2000E+02
    -17.416  0.0000E+00  0.2000E+02
    -17.318  0.0000E+00  0.2000E+02
    -17.219  0.0000E+00  0.2000E+02
    -17.121  0.0000E+00  0.2000E+02
    -17.022  0.0000E+00  0.2000E+02
    -16.924  0.0000E+00  0.2000E+02
    -16.825  0.0000E+00  0.2000E+02
    -16.727  0.0000E+00  0.2000E+02
    -16.628  0.0000E+00  0.2000E+02
    -16.530  0.0000E+00  0.2000E+02
    -16.431  0.0000E+00  0.2000E+02
    -16.333  0.0000E+00  0.2000E+02
    -16.234  0.0000E+00  0.2000E+02
    -16.136  0.0000E+00  0.2000E+02
    -16.037  0.0000E+00  0.2000E+02
    -15.938  0.0000E+00  0.2000E+02
    -15.840  0.0000E+00  0.2000E+02
    -15.741  0.0000E+00  0.2000E+02
    -15.643  0.0000E+00  0.2000E+02
    -15.544  0.0000E+00  0.2000E+02
    -15.446  0.0000E+00  0.2000E+02
    -15.347  0.0000E+00  0.2000E+02
    -15.249  0.0000E+00  0.2000E+02
    -15.150  0.0000E+00  0.2000E+02
    -15.052  0.0000E+00  0.2000E+02
    -14.953  0.0000E+00  0.2000E+02
    -14.855  0.0000E+00  0.2000E+02
    -14.756  0.0000E+00  0.2000E+02
    -14.658  0.0000E+00  0.2000E+02
    -14.559  0.0000E+00  0.2000E+02
    -14.461  0.0000E+00  0.2000E+02
    -14.362  0.0000E+00  0.2000E+02
    -14.264  0.0000E+00  0.2000E+02
    -14.165  0.0000E+00  0.2000E+02
    -14.066  0.0000E+00  0.2000E+02
    -13.968  0.0000E+00  0.2000E+02
    -13.869  0.0000E+00  0.2000E+02
    -13.771  0.0000E+00  0.2000E+02
    -13.672  0.0000E+00  0.2000E+02
    -13.574  0.0000E+00  0.2000E+02
    -13.475  0.0000E+00  0.2000E+02
    -13.377  0.0000E+00  0.2000E+02
    -13.278  0.0000E+00  0.2000E+02
    -13.180  0.0000E+00  0.2000E+02
    -13.081  0.0000E+00  0.2000E+02
    -12.983  0.0000E+00  0.2000E+02
    -12.884  0.0000E+00  0.2000E+02
    -12.786  0.0000E+00  0.2000E+02
    -12.687  0.0000E+00  0.2000E+02
    -12.589  0.0000E+00  0.2000E+02
    -12.490  0.0000E+00  0.2000E+02
    -12.391  0.0000E+00  0.2000E+02
    -12.293  0.0000E+00  0.2000E+02
    -12.194  0.0000E+00  0.2000E+02
    -12.096  0.0000E+00  0.2000E+02
    -11.997  0.0000E+00  0.2000E+02
    -11.899  0.0000E+00  0.2000E+02
    -11.800  0.0000E+00  0.2000E+02
    -11.702  0.0000E+00  0.2000E+02
    -11.603  0.0000E+00  0.2000E+02
    -11.505  0.0000E+00  0.2000E+02
    -11.406  0.0000E+00  0.2000E+02
    -11.308  0.0000E+00  0.2000E+02
    -11.209  0.0000E+00  0.2000E+02
    -11.111  0.0000E+00  0.2000E+02
    -11.012  0.0000E+00  0.2000E+02
    -10.914  0.0000E+00  0.2000E+02
    -10.815  0.0000E+00  0.2000E+02
    -10.717  0.0000E+00  0.2000E+02
    -10.618  0.0000E+00  0.2000E+02
    -10.519  0.0000E+00  0.2000E+02
    -10.421  0.0000E+00  0.2000E+02
    -10.322  0.0000E+00  0.2000E+02
    -10.224  0.0000E+00  0.2000E+02
    -10.125  0.0000E+00  0.2000E+02
    -10.027  0.0000E+00  0.2000E+02
     -9.928  0.0000E+00  0.2000E+02
     -9.830  0.0000E+00  0.2000E+02
     -9.731  0.0000E+00  0.2000E+02
     -9.633  0.0000E+00  0.2000E+02
     -9.534  0.0000E+00  0.2000E+02
     -9.436  0.0000E+00  0.2000E+02
     -9.337  0.1918E+00  0.2000E+02
     -9.239  0.3488E+00  0.2003E+02
     -9.140  0.3226E+00  0.2007E+02
     -9.042  0.3247E+00  0.2010E+02
     -8.943  0.5025E+00  0.2013E+02
     -8.845  0.6890E+00  0.2020E+02
     -8.746  0.6479E+00  0.2026E+02
     -8.647  0.6568E+00  0.2033E+02
     -8.549  0.6574E+00  0.2039E+02
     -8.450  0.6664E+00  0.2046E+02
     -8.352  0.6556E+00  0.2052E+02
     -8.253  0.9762E+00  0.2061E+02
     -8.155  0.9704E+00  0.2071E+02
     -8.056  0.1002E+01  0.2080E+02
     -7.958  0.9853E+00  0.2090E+02
     -7.859  0.1014E+01  0.2100E+02
     -7.761  0.9866E+00  0.2110E+02
     -7.662  0.9887E+00  0.2119E+02
     -7.564  0.1006E+01  0.2129E+02
     -7.465  0.1409E+01  0.2140E+02
     -7.367  0.1365E+01  0.2153E+02
     -7.268  0.1342E+01  0.2166E+02
     -7.170  0.1331E+01  0.2179E+02
     -7.071  0.1345E+01  0.2193E+02
     -6.973  0.1348E+01  0.2206E+02
     -6.874  0.1358E+01  0.2219E+02
     -6.775  0.3223E+01  0.2244E+02
     -6.677  0.4991E+01  0.2275E+02
     -6.578  0.4903E+01  0.2322E+02
     -6.480  0.7107E+01  0.2381E+02
     -6.381  0.6951E+01  0.2450E+02
     -6.283  0.1047E+02  0.2540E+02
     -6.184  0.1416E+02  0.2660E+02
     -6.086  0.1721E+02  0.2812E+02
     -5.987  0.2769E+02  0.3011E+02
     -5.889  0.2641E+02  0.3250E+02
     -5.790  0.2525E+02  0.3496E+02
     -5.692  0.1848E+02  0.3699E+02
     -5.593  0.1240E+02  0.3842E+02
     -5.495  0.1239E+02  0.3970E+02
     -5.396  0.2023E+02  0.4066E+02
     -5.298  0.5642E+01  0.4152E+02
     -5.199  0.9790E+01  0.4216E+02
     -5.101  0.9308E+01  0.4306E+02
     -5.002  0.7851E+01  0.4406E+02
     -4.903  0.9117E+01  0.4496E+02
     -4.805  0.1362E+02  0.4596E+02
     -4.706  0.1116E+02  0.4708E+02
     -4.608  0.9688E+01  0.4809E+02
     -4.509  0.1124E+02  0.4943E+02
     -4.411  0.1283E+02  0.5051E+02
     -4.312  0.1246E+02  0.5179E+02
     -4.214  0.1210E+02  0.5300E+02
     -4.115  0.1354E+02  0.5429E+02
     -4.017  0.1451E+02  0.5563E+02
     -3.918  0.1315E+02  0.5702E+02
     -3.820  0.2233E+02  0.5891E+02
     -3.721  0.1967E+02  0.6084E+02
     -3.623  0.2661E+02  0.6308E+02
     -3.524  0.2442E+02  0.6567E+02
     -3.426  0.2597E+02  0.6834E+02
     -3.327  0.2725E+02  0.7105E+02
     -3.229  0.2955E+02  0.7392E+02
     -3.130  0.2650E+02  0.7673E+02
     -3.031  0.2925E+02  0.7954E+02
     -2.933  0.3078E+02  0.8233E+02
     -2.834  0.1589E+02  0.8469E+02
     -2.736  0.1645E+02  0.8662E+02
     -2.637  0.1391E+02  0.8802E+02
     -2.539  0.1446E+02  0.8927E+02
     -2.440  0.8379E+01  0.9014E+02
     -2.342  0.4839E+01  0.9079E+02
     -2.243  0.3358E+01  0.9120E+02
     -2.145  0.2449E+01  0.9145E+02
     -2.046  0.2871E+01  0.9173E+02
     -1.948  0.3046E+01  0.9202E+02
     -1.849  0.3093E+01  0.9233E+02
     -1.751  0.2915E+01  0.9261E+02
     -1.652  0.2811E+01  0.9290E+02
     -1.554  0.2462E+01  0.9316E+02
     -1.455  0.2410E+01  0.9346E+02
     -1.357  0.2789E+01  0.9374E+02
     -1.258  0.3049E+01  0.9403E+02
     -1.159  0.2981E+01  0.9433E+02
     -1.061  0.2793E+01  0.9462E+02
     -0.962  0.2638E+01  0.9489E+02
     -0.864  0.2661E+01  0.9519E+02
     -0.765  0.2592E+01  0.9545E+02
     -0.667  0.3206E+01  0.9573E+02
     -0.568  0.3795E+01  0.9606E+02
     -0.470  0.4503E+01  0.9647E+02
     -0.371  0.3116E+01  0.9682E+02
     -0.273  0.3104E+01  0.9711E+02
     -0.174  0.3584E+01  0.9744E+02
     -0.076  0.3323E+01  0.9780E+02
      0.023  0.3693E+01  0.9812E+02
      0.121  0.3172E+01  0.9847E+02
      0.220  0.3169E+01  0.9880E+02
      0.318  0.3501E+01  0.9912E+02
      0.417  0.3937E+01  0.9953E+02
      0.516  0.3103E+01  0.9987E+02
      0.614  0.3580E+01  0.1002E+03
      0.713  0.3376E+01  0.1005E+03
      0.811  0.4565E+01  0.1009E+03
      0.910  0.3294E+01  0.1012E+03
      1.008  0.3571E+01  0.1016E+03
      1.107  0.3821E+01  0.1019E+03
      1.205  0.3455E+01  0.1023E+03
      1.304  0.3620E+01  0.1027E+03
      1.402  0.4307E+01  0.1030E+03
      1.501  0.3706E+01  0.1034E+03
      1.599  0.3983E+01  0.1038E+03
      1.698  0.2804E+01  0.1042E+03
      1.796  0.3732E+01  0.1045E+03
      1.895  0.3986E+01  0.1049E+03
      1.993  0.4095E+01  0.1053E+03
      2.092  0.4230E+01  0.1057E+03
      2.190  0.4356E+01  0.1061E+03
      2.289  0.3760E+01  0.1065E+03
      2.388  0.3802E+01  0.1068E+03
      2.486  0.4234E+01  0.1073E+03
      2.585  0.4821E+01  0.1077E+03
      2.683  0.4453E+01  0.1082E+03
      2.782  0.3787E+01  0.1086E+03
      2.880  0.3418E+01  0.1089E+03
      2.979  0.4244E+01  0.1094E+03
      3.077  0.4435E+01  0.1098E+03
      3.176  0.4272E+01  0.1102E+03
      3.274  0.3911E+01  0.1106E+03
      3.373  0.4275E+01  0.1110E+03
      3.471  0.4108E+01  0.1114E+03
      3.570  0.5767E+01  0.1119E+03
      3.668  0.5608E+01  0.1125E+03
      3.767  0.4112E+01  0.1130E+03
      3.865  0.4481E+01  0.1134E+03
      3.964  0.5348E+01  0.1139E+03
      4.062  0.4850E+01  0.1144E+03
      4.161  0.4456E+01  0.1148E+03
      4.260  0.5016E+01  0.1153E+03
      4.358  0.5704E+01  0.1159E+03
      4.457  0.5278E+01  0.1164E+03
      4.555  0.6336E+01  0.1170E+03
      4.654  0.5895E+01  0.1176E+03
      4.752  0.5824E+01  0.1181E+03
      4.851  0.6611E+01  0.1188E+03
      4.949  0.7240E+01  0.1194E+03
      5.048  0.7153E+01  0.1201E+03
      5.146  0.7505E+01  0.1208E+03
      5.245  0.6771E+01  0.1215E+03
      5.343  0.7021E+01  0.1222E+03
      5.442  0.1017E+02  0.1229E+03
      5.540  0.8134E+01  0.1238E+03
      5.639  0.1091E+02  0.1247E+03
      5.737  0.9249E+01  0.1256E+03
      5.836  0.1138E+02  0.1267E+03
      5.934  0.8157E+01  0.1276E+03
      6.033  0.8661E+01  0.1286E+03
      6.132  0.1231E+02  0.1296E+03
      6.230  0.9069E+01  0.1307E+03
      6.329  0.1389E+02  0.1318E+03
      6.427  0.9509E+01  0.1329E+03
      6.526  0.1042E+02  0.1340E+03
      6.624  0.1060E+02  0.1351E+03
      6.723  0.1057E+02  0.1361E+03
      6.821  0.1007E+02  0.1372E+03
      6.920  0.1277E+02  0.1383E+03
      7.018  0.5797E+01  0.1393E+03
      7.117  0.4420E+01  0.1397E+03
      7.215  0.1040E+01  0.1399E+03
      7.314  0.1406E+01  0.1400E+03
      7.412  0.0000E+00  0.1400E+03
      7.511  0.0000E+00  0.1400E+03
      7.609  0.0000E+00  0.1400E+03
      7.708  0.0000E+00  0.1400E+03
      7.806  0.0000E+00  0.1400E+03
      7.905  0.0000E+00  0.1400E+03
      8.004  0.0000E+00  0.1400E+03
      8.102  0.0000E+00  0.1400E+03
      8.201  0.0000E+00  0.1400E+03
      8.299  0.0000E+00  0.1400E+03
      8.398  0.0000E+00  0.1400E+03
      8.496  0.0000E+00  0.1400E+03
      8.595  0.0000E+00  0.1400E+03
      8.693  0.0000E+00  0.1400E+03
