       N       E                     dE             d eps       ncg     rms          rms(c)
DAV:   1     0.754856564319E+03    0.75486E+03   -0.41308E+04  8110   0.118E+03
DAV:   2    -0.325177278034E+02   -0.78737E+03   -0.74445E+03 10410   0.267E+02
DAV:   3    -0.158294702857E+03   -0.12578E+03   -0.12482E+03  9420   0.111E+02
DAV:   4    -0.161985708687E+03   -0.36910E+01   -0.36815E+01  9620   0.222E+01
DAV:   5    -0.162084609327E+03   -0.98901E-01   -0.98884E-01 10520   0.336E+00    0.232E+01
DAV:   6    -0.145509966574E+03    0.16575E+02   -0.96280E+01  9170   0.286E+01    0.758E+00
DAV:   7    -0.145337246475E+03    0.17272E+00   -0.90409E+00  9440   0.738E+00    0.514E+00
DAV:   8    -0.145204907750E+03    0.13234E+00   -0.51548E+00  9530   0.486E+00    0.331E+00
DAV:   9    -0.144964858072E+03    0.24005E+00   -0.25479E+00  9380   0.422E+00    0.635E-01
DAV:  10    -0.144949847446E+03    0.15011E-01   -0.18939E-01  9270   0.134E+00    0.499E-01
DAV:  11    -0.144947992145E+03    0.18553E-02   -0.11915E-02  9430   0.427E-01    0.388E-01
DAV:  12    -0.144947509269E+03    0.48288E-03   -0.29965E-03  9860   0.264E-01    0.224E-01
DAV:  13    -0.144943237681E+03    0.42716E-02   -0.23408E-03 11750   0.395E-01    0.750E-02
DAV:  14    -0.144941045397E+03    0.21923E-02   -0.12021E-03  9480   0.219E-01    0.565E-02
DAV:  15    -0.144938683547E+03    0.23618E-02   -0.38987E-04 10740   0.218E-01    0.455E-02
DAV:  16    -0.144934745177E+03    0.39384E-02   -0.12510E-03 10740   0.451E-01    0.469E-02
DAV:  17    -0.144933320357E+03    0.14248E-02   -0.79519E-04 10190   0.280E-01    0.318E-02
DAV:  18    -0.144930078531E+03    0.32418E-02   -0.13871E-03 11200   0.531E-01    0.272E-02
DAV:  19    -0.144929557601E+03    0.52093E-03   -0.11806E-03  9530   0.166E-01    0.293E-02
DAV:  20    -0.144929290720E+03    0.26688E-03   -0.13274E-04  9370   0.990E-02    0.221E-02
DAV:  21    -0.144928959149E+03    0.33157E-03   -0.23780E-04 10840   0.228E-01    0.228E-02
DAV:  22    -0.144929039847E+03   -0.80698E-04   -0.24949E-04  9330   0.111E-01    0.161E-02
DAV:  23    -0.144929021549E+03    0.18298E-04   -0.96384E-05  8680   0.129E-01    0.145E-02
DAV:  24    -0.144928955238E+03    0.66312E-04   -0.10132E-04  8930   0.101E-01    0.111E-02
DAV:  25    -0.144928961603E+03   -0.63653E-05   -0.59658E-05  8710   0.934E-02
   1 F= -.14492896E+03 E0= -.14492896E+03  d E =0.000000E+00
