 vasp.5.4.4.18Apr17-6-g9f103f2a35 (build Nov 15 2019 10:10:58) complex          
  
 executed on             LinuxIFC date 2024.07.31  11:10:57
 running on   20 total cores
 distrk:  each k-point on   20 cores,    1 groups
 distr:  one band on NCORES_PER_BAND=   4 cores,    5 groups


--------------------------------------------------------------------------------------------------------


 INCAR:
 POTCAR:    PAW_PBE O 08Apr2002                   
 POTCAR:    PAW_PBE Mg 13Apr2007                  
 POTCAR:    PAW_PBE Al 04Jan2001                  
 POTCAR:    PAW_PBE O 08Apr2002                   
   VRHFIN =O: s2p4                                                              
   LEXCH  = PE                                                                  
   EATOM  =   432.3788 eV,   31.7789 Ry                                         
                                                                                
   TITEL  = PAW_PBE O 08Apr2002                                                 
   LULTRA =        F    use ultrasoft PP ?                                      
   IUNSCR =        1    unscreen: 0-lin 1-nonlin 2-no                           
   RPACOR =    1.200    partial core radius                                     
   POMASS =   16.000; ZVAL   =    6.000    mass and valenz                      
   RCORE  =    1.520    outmost cutoff radius                                   
   RWIGS  =    1.550; RWIGS  =    0.820    wigner-seitz radius (au A)           
   ENMAX  =  400.000; ENMIN  =  300.000 eV                                      
   ICORE  =        2    local potential                                         
   LCOR   =        T    correct aug charges                                     
   LPAW   =        T    paw PP                                                  
   EAUG   =  605.392                                                            
   DEXC   =    0.000                                                            
   RMAX   =    1.553    core radius for proj-oper                               
   RAUG   =    1.300    factor for augmentation sphere                          
   RDEP   =    1.550    radius for radial grids                                 
   RDEPT  =    1.329    core radius for aug-charge                              
                                                                                
   Atomic configuration                                                         
    4 entries                                                                   
     n  l   j            E        occ.                                          
     1  0  0.50      -514.6923   2.0000                                         
     2  0  0.50       -23.9615   2.0000                                         
     2  1  0.50        -9.0305   4.0000                                         
     3  2  1.50        -9.5241   0.0000                                         
   Description                                                                  
     l       E           TYP  RCUT    TYP  RCUT                                 
     0    -23.9615318     23  1.200                                             
     0     -9.5240782     23  1.200                                             
     1     -9.0304911     23  1.520                                             
     1      8.1634956     23  1.520                                             
     2     -9.5240782      7  1.500                                             
  local pseudopotential read in
  partial core-charges read in
  partial kinetic energy density read in
  kinetic energy density of atom read in
  atomic valenz-charges read in
  non local Contribution for L=           0  read in
    real space projection operators read in
  non local Contribution for L=           0  read in
    real space projection operators read in
  non local Contribution for L=           1  read in
    real space projection operators read in
  non local Contribution for L=           1  read in
    real space projection operators read in
    PAW grid and wavefunctions read in
 
   number of l-projection  operators is LMAX  =           4
   number of lm-projection operators is LMMAX =           8
 
 POTCAR:    PAW_PBE Mg 13Apr2007                  
   VRHFIN =Mg: s2p0                                                             
   LEXCH  = PE                                                                  
   EATOM  =    23.0369 eV,    1.6932 Ry                                         
                                                                                
   TITEL  = PAW_PBE Mg 13Apr2007                                                
   LULTRA =        F    use ultrasoft PP ?                                      
   IUNSCR =        1    unscreen: 0-lin 1-nonlin 2-no                           
   RPACOR =    1.500    partial core radius                                     
   POMASS =   24.305; ZVAL   =    2.000    mass and valenz                      
   RCORE  =    2.000    outmost cutoff radius                                   
   RWIGS  =    2.880; RWIGS  =    1.524    wigner-seitz radius (au A)           
   ENMAX  =  200.000; ENMIN  =  100.000 eV                                      
   RCLOC  =    1.506    cutoff for local pot                                    
   LCOR   =        T    correct aug charges                                     
   LPAW   =        T    paw PP                                                  
   EAUG   =  454.734                                                            
   DEXC   =    0.000                                                            
   RMAX   =    2.045    core radius for proj-oper                               
   RAUG   =    1.300    factor for augmentation sphere                          
   RDEP   =    2.025    radius for radial grids                                 
   RDEPT  =    1.942    core radius for aug-charge                              
                                                                                
   Atomic configuration                                                         
    6 entries                                                                   
     n  l   j            E        occ.                                          
     1  0  0.50     -1259.6230   2.0000                                         
     2  0  0.50       -79.8442   2.0000                                         
     2  1  1.50       -46.6121   6.0000                                         
     3  0  0.50        -4.7055   2.0000                                         
     3  1  0.50        -1.3660   0.0000                                         
     3  2  1.50        -1.3606   0.0000                                         
   Description                                                                  
     l       E           TYP  RCUT    TYP  RCUT                                 
     0     -4.7054661     23  2.000                                             
     0     27.2116520     23  2.000                                             
     1      1.3605826     23  2.000                                             
     1     27.2116520     23  2.000                                             
     2     -1.3605826     23  2.000                                             
  local pseudopotential read in
  partial core-charges read in
  partial kinetic energy density read in
  atomic valenz-charges read in
  non local Contribution for L=           0  read in
    real space projection operators read in
  non local Contribution for L=           0  read in
    real space projection operators read in
  non local Contribution for L=           1  read in
    real space projection operators read in
  non local Contribution for L=           1  read in
    real space projection operators read in
  non local Contribution for L=           2  read in
    real space projection operators read in
    PAW grid and wavefunctions read in
 
   number of l-projection  operators is LMAX  =           5
   number of lm-projection operators is LMMAX =          13
 
 POTCAR:    PAW_PBE Al 04Jan2001                  
   VRHFIN =Al: s2p1                                                             
   LEXCH  = PE                                                                  
   EATOM  =    53.5387 eV,    3.9350 Ry                                         
                                                                                
   TITEL  = PAW_PBE Al 04Jan2001                                                
   LULTRA =        F    use ultrasoft PP ?                                      
   IUNSCR =        1    unscreen: 0-lin 1-nonlin 2-no                           
   RPACOR =    1.500    partial core radius                                     
   POMASS =   26.981; ZVAL   =    3.000    mass and valenz                      
   RCORE  =    1.900    outmost cutoff radius                                   
   RWIGS  =    2.650; RWIGS  =    1.402    wigner-seitz radius (au A)           
   ENMAX  =  240.300; ENMIN  =  180.225 eV                                      
   ICORE  =        2    local potential                                         
   LCOR   =        T    correct aug charges                                     
   LPAW   =        T    paw PP                                                  
   EAUG   =  291.052                                                            
   DEXC   =    0.000                                                            
   RMAX   =    1.939    core radius for proj-oper                               
   RAUG   =    1.300    factor for augmentation sphere                          
   RDEP   =    1.966    radius for radial grids                                 
   RDEPT  =    1.856    core radius for aug-charge                              
                                                                                
   Atomic configuration                                                         
    6 entries                                                                   
     n  l   j            E        occ.                                          
     1  0  0.50     -1511.1048   2.0000                                         
     2  0  0.50      -108.1629   2.0000                                         
     2  1  1.50       -69.6402   6.0000                                         
     3  0  0.50        -7.7528   2.0000                                         
     3  1  1.50        -2.7121   1.0000                                         
     3  2  2.50        -2.7212   0.0000                                         
   Description                                                                  
     l       E           TYP  RCUT    TYP  RCUT                                 
     0     -7.7528455     23  1.900                                             
     0     -3.3096929     23  1.900                                             
     1     -2.7120682     23  1.900                                             
     1     13.6058260     23  1.900                                             
     2     -2.7211652      7  1.900                                             
  local pseudopotential read in
  partial core-charges read in
  partial kinetic energy density read in
  atomic valenz-charges read in
  non local Contribution for L=           0  read in
    real space projection operators read in
  non local Contribution for L=           0  read in
    real space projection operators read in
  non local Contribution for L=           1  read in
    real space projection operators read in
  non local Contribution for L=           1  read in
    real space projection operators read in
    PAW grid and wavefunctions read in
 
   number of l-projection  operators is LMAX  =           4
   number of lm-projection operators is LMMAX =           8
 

 ----------------------------------------------------------------------------- 
|                                                                             |
|  ADVICE TO THIS USER RUNNING 'VASP/VAMP'   (HEAR YOUR MASTER'S VOICE ...):  |
|                                                                             |
|      You have a (more or less) 'large supercell' and for larger cells       |
|      it might be more efficient to use real space projection opertators     |
|      So try LREAL= Auto  in the INCAR   file.                               |
|      Mind:          For very  accurate calculation you might also keep the  |
|      reciprocal projection scheme          (i.e. LREAL=.FALSE.)             |
|                                                                             |
 ----------------------------------------------------------------------------- 

  PAW_PBE O 08Apr2002                   :
 energy of atom  1       EATOM= -432.3788
 kinetic energy error for atom=    0.0208 (will be added to EATOM!!)
  PAW_PBE Mg 13Apr2007                  :
 energy of atom  2       EATOM=  -23.0369
 kinetic energy error for atom=    0.0000 (will be added to EATOM!!)
  PAW_PBE Al 04Jan2001                  :
 energy of atom  3       EATOM=  -53.5387
 kinetic energy error for atom=    0.0002 (will be added to EATOM!!)
 
 
 POSCAR: Layer (20)                              
  positions in direct lattice
  velocities in cartesian coordinates
 exchange correlation table for  LEXCH =        8
   RHO(1)=    0.500       N(1)  =     2000
   RHO(2)=  100.500       N(2)  =     4000

 VTST: version 3.2, (02/03/18)

 CHAIN: initializing optimizer
 
 OPT: Using VASP Dynamics algorithm
 CHAIN: Read ICHAIN            0
 
 POSCAR: Layer (20)                              
  positions in direct lattice
  velocities in cartesian coordinates
 


--------------------------------------------------------------------------------------------------------


 ion  position               nearest neighbor table
   1  0.000  0.000  0.440-  14 2.12  14 2.12  14 2.12  18 2.14  18 2.14  18 2.14
   2  0.333  0.667  0.470-  14 2.11  14 2.11  14 2.11  11 2.12  11 2.12  11 2.12
   3  0.000  0.000  0.530-  19 2.11  19 2.11  19 2.11  15 2.12  15 2.12  15 2.12
   4  0.333  0.667  0.560-  15 2.11  15 2.11  15 2.11  12 2.12  12 2.12  12 2.12
   5  0.000  0.000  0.619-  20 2.11  20 2.11  20 2.11  16 2.12  16 2.12  16 2.12
   6  0.333  0.667  0.649-  16 2.11  16 2.11  16 2.11  13 2.12  13 2.12  13 2.12
   7  0.000  0.000  0.709-  21 2.11  21 2.11  21 2.11  17 2.15  17 2.15  17 2.15
   8  0.667  0.333  0.500-  11 2.11  11 2.11  11 2.11  19 2.12  19 2.12  19 2.12
   9  0.667  0.333  0.589-  12 2.11  12 2.11  12 2.11  20 2.12  20 2.12  20 2.12
  10  0.667  0.333  0.679-  13 2.11  13 2.11  13 2.11  21 2.12  21 2.12  21 2.12
  11  0.000  0.000  0.485-   8 2.11   8 2.11   8 2.11   2 2.12   2 2.12   2 2.12  14 3.00  14 3.00
                            14 3.00  19 3.00  19 3.00  19 3.00
  12  0.000  0.000  0.575-   9 2.11   9 2.11   9 2.11   4 2.12   4 2.12   4 2.12  15 3.00  15 3.00
                            15 3.00  20 3.00  20 3.00  20 3.00
  13  0.000  0.000  0.664-  10 2.11  10 2.11  10 2.11   6 2.12   6 2.12   6 2.12  16 3.00  16 3.00
                            16 3.00  21 3.00  21 3.00  21 3.00
  14  0.667  0.333  0.455-   2 2.11   2 2.11   2 2.11   1 2.12   1 2.12   1 2.12  11 3.00  11 3.00
                            11 3.00  18 3.03  18 3.03  18 3.03
  15  0.667  0.333  0.545-   4 2.11   4 2.11   4 2.11   3 2.12   3 2.12   3 2.12  19 3.00  19 3.00
                            19 3.00  12 3.00  12 3.00  12 3.00
  16  0.667  0.333  0.634-   6 2.11   6 2.11   6 2.11   5 2.12   5 2.12   5 2.12  13 3.00  13 3.00
                            13 3.00  20 3.00  20 3.00  20 3.00
  17  0.667  0.333  0.725-   7 2.15   7 2.15   7 2.15  21 3.04  21 3.04  21 3.04
  18  0.333  0.667  0.425-   1 2.14   1 2.14   1 2.14  24 2.96  24 2.96  24 2.96  14 3.03  14 3.03
                            14 3.03
  19  0.333  0.667  0.515-   3 2.11   3 2.11   3 2.11   8 2.12   8 2.12   8 2.12  11 3.00  11 3.00
                            11 3.00  15 3.00  15 3.00  15 3.00
  20  0.333  0.667  0.604-   5 2.11   5 2.11   5 2.11   9 2.12   9 2.12   9 2.12  12 3.00  12 3.00
                            12 3.00  16 3.00  16 3.00  16 3.00
  21  0.333  0.667  0.694-   7 2.11   7 2.11   7 2.11  10 2.12  10 2.12  10 2.12  13 3.00  13 3.00
                            13 3.00  17 3.04  17 3.04  17 3.04
  22  0.000  0.000  0.234-  27 2.83  27 2.83  27 2.83
  23  0.000  0.000  0.315-  25 2.80  25 2.80  25 2.80  28 2.81  28 2.81  28 2.81
  24  0.000  0.000  0.396-  26 2.80  26 2.80  26 2.80  18 2.96  18 2.96  18 2.96
  25  0.667  0.333  0.288-  23 2.80  23 2.80  23 2.80  27 2.81  27 2.81  27 2.81
  26  0.667  0.333  0.369-  24 2.80  24 2.80  24 2.80  28 2.81  28 2.81  28 2.81
  27  0.333  0.667  0.261-  25 2.81  25 2.81  25 2.81  22 2.83  22 2.83  22 2.83
  28  0.333  0.667  0.342-  26 2.81  26 2.81  26 2.81  23 2.81  23 2.81  23 2.81
 
  LATTYP: Found a hexagonal cell.
 ALAT       =     2.9850604079
 C/A-ratio  =    27.5396116811
  
  Lattice vectors:
  
 A1 = (   2.5851399813,  -1.4925270234,   0.0000000000)
 A2 = (   0.0000000000,   2.9850540469,   0.0000000000)
 A3 = (  -0.0000000000,   0.0000000000,  82.2074044782)


Analysis of symmetry for initial positions (statically):
=====================================================================
 Subroutine PRICEL returns:
 Original cell was already a primitive cell.
 

 Routine SETGRP: Setting up the symmetry group for a 
 hexagonal supercell.


 Subroutine GETGRP returns: Found  6 space group operations
 (whereof  6 operations were pure point group operations)
 out of a pool of 24 trial point group operations.


The static configuration has the point symmetry C_3v.


Analysis of symmetry for dynamics (positions and initial velocities):
=====================================================================
 Subroutine PRICEL returns:
 Original cell was already a primitive cell.
 

 Routine SETGRP: Setting up the symmetry group for a 
 hexagonal supercell.


 Subroutine GETGRP returns: Found  6 space group operations
 (whereof  6 operations were pure point group operations)
 out of a pool of 24 trial point group operations.


The dynamic configuration has the point symmetry C_3v.


Analysis of constrained symmetry for selective dynamics:
=====================================================================
 Subroutine PRICEL returns:
 Original cell was already a primitive cell.
 

 Routine SETGRP: Setting up the symmetry group for a 
 hexagonal supercell.


 Subroutine GETGRP returns: Found  6 space group operations
 (whereof  6 operations were pure point group operations)
 out of a pool of 24 trial point group operations.


The constrained configuration has the point symmetry C_3v.


 Subroutine INISYM returns: Found  6 space group operations
 (whereof  6 operations are pure point group operations),
 and found     1 'primitive' translations

 
 
 KPOINTS: K-Spacing Value to Generate K-Mesh: 0.02

Automatic generation of k-mesh.
Space group operators:
 irot       det(A)        alpha          n_x          n_y          n_z        tau_x        tau_y        tau_z
    1     1.000000     0.000000     1.000000     0.000000     0.000000     0.000000     0.000000     0.000000
    2     1.000000   120.000000     0.000000    -0.000000    -1.000000     0.000000     0.000000     0.000000
    3     1.000000   120.000000    -0.000000    -0.000000     1.000000     0.000000     0.000000     0.000000
    4    -1.000000   180.000000     0.866025    -0.500001     0.000000     0.000000     0.000000     0.000000
    5    -1.000000   180.000000     0.000000     1.000000     0.000000     0.000000     0.000000     0.000000
    6    -1.000000   180.000000     0.866025     0.500001     0.000000     0.000000     0.000000     0.000000
 
 Subroutine IBZKPT returns following result:
 ===========================================
 
 Found     56 irreducible k-points:
 
 Following reciprocal coordinates:
            Coordinates               Weight
  0.000000  0.000000  0.000000      1.000000
  0.043478  0.000000 -0.000000      6.000000
  0.086957  0.000000 -0.000000      6.000000
  0.130435  0.000000 -0.000000      6.000000
  0.173913  0.000000 -0.000000      6.000000
  0.217391  0.000000 -0.000000      6.000000
  0.260870  0.000000 -0.000000      6.000000
  0.304348  0.000000 -0.000000      6.000000
  0.347826  0.000000 -0.000000      6.000000
  0.391304  0.000000 -0.000000      6.000000
  0.434783  0.000000 -0.000000      6.000000
  0.478261  0.000000 -0.000000      6.000000
  0.043478  0.043478 -0.000000      6.000000
  0.086957  0.043478 -0.000000     12.000000
  0.130435  0.043478 -0.000000     12.000000
  0.173913  0.043478 -0.000000     12.000000
  0.217391  0.043478 -0.000000     12.000000
  0.260870  0.043478 -0.000000     12.000000
  0.304348  0.043478  0.000000     12.000000
  0.347826  0.043478 -0.000000     12.000000
  0.391304  0.043478 -0.000000     12.000000
  0.434783  0.043478 -0.000000     12.000000
  0.478261  0.043478  0.000000      6.000000
  0.086957  0.086957 -0.000000      6.000000
  0.130435  0.086957 -0.000000     12.000000
  0.173913  0.086957 -0.000000     12.000000
  0.217391  0.086957 -0.000000     12.000000
  0.260870  0.086957 -0.000000     12.000000
  0.304348  0.086957 -0.000000     12.000000
  0.347826  0.086957 -0.000000     12.000000
  0.391304  0.086957 -0.000000     12.000000
  0.434783  0.086957 -0.000000     12.000000
  0.130435  0.130435 -0.000000      6.000000
  0.173913  0.130435 -0.000000     12.000000
  0.217391  0.130435 -0.000000     12.000000
  0.260870  0.130435 -0.000000     12.000000
  0.304348  0.130435 -0.000000     12.000000
  0.347826  0.130435 -0.000000     12.000000
  0.391304  0.130435 -0.000000     12.000000
  0.434783  0.130435  0.000000      6.000000
  0.173913  0.173913 -0.000000      6.000000
  0.217391  0.173913 -0.000000     12.000000
  0.260870  0.173913  0.000000     12.000000
  0.304348  0.173913 -0.000000     12.000000
  0.347826  0.173913 -0.000000     12.000000
  0.391304  0.173913 -0.000000     12.000000
  0.217391  0.217391 -0.000000      6.000000
  0.260870  0.217391 -0.000000     12.000000
  0.304348  0.217391 -0.000000     12.000000
  0.347826  0.217391  0.000000     12.000000
  0.391304  0.217391  0.000000      6.000000
  0.260870  0.260870 -0.000000      6.000000
  0.304348  0.260870 -0.000000     12.000000
  0.347826  0.260870 -0.000000     12.000000
  0.304348  0.304348 -0.000000      6.000000
  0.347826  0.304348  0.000000      6.000000
 
 Following cartesian coordinates:
            Coordinates               Weight
  0.000000  0.000000  0.000000      1.000000
  0.016819  0.000000  0.000000      6.000000
  0.033637  0.000000  0.000000      6.000000
  0.050456  0.000000  0.000000      6.000000
  0.067274  0.000000  0.000000      6.000000
  0.084093  0.000000  0.000000      6.000000
  0.100911  0.000000  0.000000      6.000000
  0.117730  0.000000  0.000000      6.000000
  0.134548  0.000000  0.000000      6.000000
  0.151367  0.000000  0.000000      6.000000
  0.168185  0.000000  0.000000      6.000000
  0.185004  0.000000  0.000000      6.000000
  0.025228  0.014565  0.000000      6.000000
  0.042046  0.014565  0.000000     12.000000
  0.058865  0.014565  0.000000     12.000000
  0.075683  0.014565  0.000000     12.000000
  0.092502  0.014565  0.000000     12.000000
  0.109320  0.014565  0.000000     12.000000
  0.126139  0.014565  0.000000     12.000000
  0.142958  0.014565  0.000000     12.000000
  0.159776  0.014565  0.000000     12.000000
  0.176595  0.014565  0.000000     12.000000
  0.193413  0.014565  0.000000      6.000000
  0.050456  0.029131  0.000000      6.000000
  0.067274  0.029131  0.000000     12.000000
  0.084093  0.029131  0.000000     12.000000
  0.100911  0.029131  0.000000     12.000000
  0.117730  0.029131  0.000000     12.000000
  0.134548  0.029131  0.000000     12.000000
  0.151367  0.029131  0.000000     12.000000
  0.168185  0.029131  0.000000     12.000000
  0.185004  0.029131  0.000000     12.000000
  0.075683  0.043696  0.000000      6.000000
  0.092502  0.043696  0.000000     12.000000
  0.109320  0.043696  0.000000     12.000000
  0.126139  0.043696  0.000000     12.000000
  0.142958  0.043696  0.000000     12.000000
  0.159776  0.043696  0.000000     12.000000
  0.176595  0.043696  0.000000     12.000000
  0.193413  0.043696  0.000000      6.000000
  0.100911  0.058261  0.000000      6.000000
  0.117730  0.058261  0.000000     12.000000
  0.134548  0.058261  0.000000     12.000000
  0.151367  0.058261  0.000000     12.000000
  0.168185  0.058261  0.000000     12.000000
  0.185004  0.058261  0.000000     12.000000
  0.126139  0.072827  0.000000      6.000000
  0.142958  0.072827  0.000000     12.000000
  0.159776  0.072827  0.000000     12.000000
  0.176595  0.072827  0.000000     12.000000
  0.193413  0.072827  0.000000      6.000000
  0.151367  0.087392  0.000000      6.000000
  0.168185  0.087392  0.000000     12.000000
  0.185004  0.087392  0.000000     12.000000
  0.176595  0.101957  0.000000      6.000000
  0.193413  0.101957  0.000000      6.000000
 
 TETIRR: Found    276 inequivalent tetrahedra from     3174


--------------------------------------------------------------------------------------------------------




 Dimension of arrays:
   k-points           NKPTS =     56   k-points in BZ     NKDIM =     56   number of bands    NBANDS=     70
   number of dos      NEDOS =    301   number of ions     NIONS =     28
   non local maximal  LDIM  =      5   non local SUM 2l+1 LMDIM =     13
   total plane-waves  NPLWV = 362880
   max r-space proj   IRMAX =      1   max aug-charges    IRDMAX= 194573
   dimension x,y,z NGX =    24 NGY =   24 NGZ =  630
   dimension x,y,z NGXF=    48 NGYF=   48 NGZF= 1260
   support grid    NGXF=    96 NGYF=   96 NGZF= 2520
   ions per type =              10  11   7
   NGX,Y,Z   is equivalent  to a cutoff of  13.37, 13.37, 12.74 a.u.
   NGXF,Y,Z  is equivalent  to a cutoff of  26.73, 26.73, 25.48 a.u.

 SYSTEM =  unknown system                          
 POSCAR =  Layer (20)                              

 Startparameter for this run:
   NWRITE =      2    write-flag & timer
   PREC   = accura    normal or accurate (medium, high low for compatibility)
   ISTART =      0    job   : 0-new  1-cont  2-samecut
   ICHARG =      2    charge: 1-file 2-atom 10-const
   ISPIN  =      1    spin polarized calculation?
   LNONCOLLINEAR =      F non collinear calculations
   LSORBIT =      F    spin-orbit coupling
   INIWAV =      1    electr: 0-lowe 1-rand  2-diag
   LASPH  =      F    aspherical Exc in radial PAW
   METAGGA=      F    non-selfconsistent MetaGGA calc.

 Electronic Relaxation 1
   ENCUT  =  520.0 eV  38.22 Ry    6.18 a.u.   5.55  5.55152.85*2*pi/ulx,y,z
   ENINI  =  520.0     initial cutoff
   ENAUG  =  605.4 eV  augmentation charge cutoff
   NELM   =    100;   NELMIN=  6; NELMDL=  0     # of ELM steps 
   EDIFF  = 0.1E-04   stopping-criterion for ELM
   LREAL  =      F    real-space projection
   NLSPLINE    = F    spline interpolate recip. space projectors
   LCOMPAT=      F    compatible to vasp.4.4
   GGA_COMPAT  = T    GGA compatible to vasp.4.4-vasp.4.6
   LMAXPAW     = -100 max onsite density
   LMAXMIX     =    2 max onsite mixed and CHGCAR
   VOSKOWN=      0    Vosko Wilk Nusair interpolation
   ROPT   =    0.00000   0.00000   0.00000
 Ionic relaxation
   EDIFFG = -.2E-01   stopping-criterion for IOM
   NSW    =      0    number of steps for IOM
   NBLOCK =      1;   KBLOCK =      1    inner block; outer block 
   IBRION =     -1    ionic relax: 0-MD 1-quasi-New 2-CG
   NFREE  =      0    steps in history (QN), initial steepest desc. (CG)
   ISIF   =      4    stress and relaxation
   IWAVPR =     10    prediction:  0-non 1-charg 2-wave 3-comb
   ISYM   =      2    0-nonsym 1-usesym 2-fastsym
   LCORR  =      T    Harris-Foulkes like correction to forces

   POTIM  = 0.5000    time-step for ionic-motion
   TEIN   =    0.0    initial temperature
   TEBEG  =    0.0;   TEEND  =   0.0 temperature during run
   SMASS  =  -3.00    Nose mass-parameter (am)
   estimated Nose-frequenzy (Omega)   =  0.10E-29 period in steps =****** mass=  -0.204E-27a.u.
   SCALEE = 1.0000    scale energy and forces
   NPACO  =    256;   APACO  = 16.0  distance and # of slots for P.C.
   PSTRESS=    0.0 pullay stress

  Mass of Ions in am
   POMASS =  16.00 24.30 26.98
  Ionic Valenz
   ZVAL   =   6.00  2.00  3.00
  Atomic Wigner-Seitz radii
   RWIGS  =  -1.00 -1.00 -1.00
  virtual crystal weights 
   VCA    =   1.00  1.00  1.00
   NELECT =     103.0000    total number of electrons
   NUPDOWN=      -1.0000    fix difference up-down

 DOS related values:
   EMIN   =  10.00;   EMAX   =-10.00  energy-range for DOS
   EFERMI =   0.00
   ISMEAR =    -5;   SIGMA  =   0.05  broadening in eV -4-tet -1-fermi 0-gaus

 Electronic relaxation 2 (details)
   IALGO  =     38    algorithm
   LDIAG  =      T    sub-space diagonalisation (order eigenvalues)
   LSUBROT=      F    optimize rotation matrix (better conditioning)
   TURBO    =      0    0=normal 1=particle mesh
   IRESTART =      0    0=no restart 2=restart with 2 vectors
   NREBOOT  =      0    no. of reboots
   NMIN     =      0    reboot dimension
   EREF     =   0.00    reference energy to select bands
   IMIX   =      4    mixing-type and parameters
     AMIX     =   0.40;   BMIX     =  1.00
     AMIX_MAG =   1.60;   BMIX_MAG =  1.00
     AMIN     =   0.01
     WC   =   100.;   INIMIX=   1;  MIXPRE=   1;  MAXMIX= -45

 Intra band minimization:
   WEIMIN = 0.0000     energy-eigenvalue tresh-hold
   EBREAK =  0.36E-07  absolut break condition
   DEPER  =   0.30     relativ break condition  

   TIME   =   0.40     timestep for ELM

  volume/ion in A,a.u.               =      22.66       152.89
  Fermi-wavevector in a.u.,A,eV,Ry     =   0.893110  1.687733 10.852620  0.797645
  Thomas-Fermi vector in A             =   2.015145
 
 Write flags
   LWAVE        =      F    write WAVECAR
   LDOWNSAMPLE  =      F    k-point downsampling of WAVECAR
   LCHARG       =      T    write CHGCAR
   LVTOT        =      F    write LOCPOT, total local potential
   LVHAR        =      F    write LOCPOT, Hartree potential only
   LELF         =      F    write electronic localiz. function (ELF)
   LORBIT       =      0    0 simple, 1 ext, 2 COOP (PROOUT), +10 PAW based schemes


 Dipole corrections
   LMONO  =      F    monopole corrections only (constant potential shift)
   LDIPOL =      F    correct potential (dipole corrections)
   IDIPOL =      0    1-x, 2-y, 3-z, 4-all directions 
   EPSILON=  1.0000000 bulk dielectric constant

 Exchange correlation treatment:
   GGA     =    --    GGA type
   LEXCH   =     8    internal setting for exchange type
   VOSKOWN=      0    Vosko Wilk Nusair interpolation
   LHFCALC =     F    Hartree Fock is set to
   LHFONE  =     F    Hartree Fock one center treatment
   AEXX    =    0.0000 exact exchange contribution

 Linear response parameters
   LEPSILON=     F    determine dielectric tensor
   LRPA    =     F    only Hartree local field effects (RPA)
   LNABLA  =     F    use nabla operator in PAW spheres
   LVEL    =     F    velocity operator in full k-point grid
   LINTERFAST=   F  fast interpolation
   KINTER  =     0    interpolate to denser k-point grid
   CSHIFT  =0.1000    complex shift for real part using Kramers Kronig
   OMEGAMAX=  -1.0    maximum frequency
   DEG_THRESHOLD= 0.2000000E-02 threshold for treating states as degnerate
   RTIME   =   -0.100 relaxation time in fs
  (WPLASMAI=    0.000 imaginary part of plasma frequency in eV, 0.658/RTIME)
   DFIELD  = 0.0000000 0.0000000 0.0000000 field for delta impulse in time
 
 Orbital magnetization related:
   ORBITALMAG=     F  switch on orbital magnetization
   LCHIMAG   =     F  perturbation theory with respect to B field
   DQ        =  0.001000  dq finite difference perturbation B field
   LLRAUG    =     F  two centre corrections for induced B field



--------------------------------------------------------------------------------------------------------


 Static calculation
 charge density and potential will be updated during run
 non-spin polarized calculation
 Variant of blocked Davidson
 Davidson routine will perform the subspace rotation
 perform sub-space diagonalisation
    after iterative eigenvector-optimisation
 modified Broyden-mixing scheme, WC =      100.0
 initial mixing is a Kerker type mixing with AMIX =  0.4000 and BMIX =      1.0000
 Hartree-type preconditioning will be used
 using additional bands           18
 reciprocal scheme for non local part
 use partial core corrections
 calculate Harris-corrections to forces 
   (improved forces if not selfconsistent)
 use gradient corrections 
 use of overlap-Matrix (Vanderbilt PP)
 Fermi weights with tetrahedron method with Bloechl corrections


--------------------------------------------------------------------------------------------------------


  energy-cutoff  :      520.00
  volume of cell :      634.38
      direct lattice vectors                 reciprocal lattice vectors
     2.585139981 -1.492527023  0.000000000     0.386826248  0.000000000  0.000000000
     0.000000000  2.985054047  0.000000000     0.193413124  0.335002310  0.000000000
    -0.000000000  0.000000000 82.207404478    -0.000000000  0.000000000  0.012164354

  length of vectors
     2.985060408  2.985054047 82.207404478     0.386826248  0.386827072  0.012164354


 
 k-points in units of 2pi/SCALE and weight: K-Spacing Value to Generate K-Mesh: 0.02
   0.00000000  0.00000000  0.00000000       0.002
   0.01681853  0.00000000  0.00000000       0.011
   0.03363707  0.00000000  0.00000000       0.011
   0.05045560  0.00000000  0.00000000       0.011
   0.06727413  0.00000000  0.00000000       0.011
   0.08409266  0.00000000  0.00000000       0.011
   0.10091120  0.00000000  0.00000000       0.011
   0.11772973  0.00000000  0.00000000       0.011
   0.13454826  0.00000000  0.00000000       0.011
   0.15136679  0.00000000  0.00000000       0.011
   0.16818533  0.00000000  0.00000000       0.011
   0.18500386  0.00000000  0.00000000       0.011
   0.02522780  0.01456532  0.00000000       0.011
   0.04204633  0.01456532  0.00000000       0.023
   0.05886486  0.01456532  0.00000000       0.023
   0.07568340  0.01456532  0.00000000       0.023
   0.09250193  0.01456532  0.00000000       0.023
   0.10932046  0.01456532  0.00000000       0.023
   0.12613899  0.01456532  0.00000000       0.023
   0.14295753  0.01456532  0.00000000       0.023
   0.15977606  0.01456532  0.00000000       0.023
   0.17659459  0.01456532  0.00000000       0.023
   0.19341312  0.01456532  0.00000000       0.011
   0.05045560  0.02913064  0.00000000       0.011
   0.06727413  0.02913064  0.00000000       0.023
   0.08409266  0.02913064  0.00000000       0.023
   0.10091120  0.02913064  0.00000000       0.023
   0.11772973  0.02913064  0.00000000       0.023
   0.13454826  0.02913064  0.00000000       0.023
   0.15136679  0.02913064  0.00000000       0.023
   0.16818533  0.02913064  0.00000000       0.023
   0.18500386  0.02913064  0.00000000       0.023
   0.07568340  0.04369595  0.00000000       0.011
   0.09250193  0.04369595  0.00000000       0.023
   0.10932046  0.04369595  0.00000000       0.023
   0.12613899  0.04369595  0.00000000       0.023
   0.14295753  0.04369595  0.00000000       0.023
   0.15977606  0.04369595  0.00000000       0.023
   0.17659459  0.04369595  0.00000000       0.023
   0.19341312  0.04369595  0.00000000       0.011
   0.10091120  0.05826127  0.00000000       0.011
   0.11772973  0.05826127  0.00000000       0.023
   0.13454826  0.05826127  0.00000000       0.023
   0.15136679  0.05826127  0.00000000       0.023
   0.16818533  0.05826127  0.00000000       0.023
   0.18500386  0.05826127  0.00000000       0.023
   0.12613899  0.07282659  0.00000000       0.011
   0.14295753  0.07282659  0.00000000       0.023
   0.15977606  0.07282659  0.00000000       0.023
   0.17659459  0.07282659  0.00000000       0.023
   0.19341312  0.07282659  0.00000000       0.011
   0.15136679  0.08739191  0.00000000       0.011
   0.16818533  0.08739191  0.00000000       0.023
   0.18500386  0.08739191  0.00000000       0.023
   0.17659459  0.10195722  0.00000000       0.011
   0.19341312  0.10195722  0.00000000       0.011
 
 k-points in reciprocal lattice and weights: K-Spacing Value to Generate K-Mesh: 0.02
   0.00000000  0.00000000  0.00000000       0.002
   0.04347826  0.00000000 -0.00000000       0.011
   0.08695652  0.00000000 -0.00000000       0.011
   0.13043478  0.00000000 -0.00000000       0.011
   0.17391304  0.00000000 -0.00000000       0.011
   0.21739130  0.00000000 -0.00000000       0.011
   0.26086957  0.00000000 -0.00000000       0.011
   0.30434783  0.00000000 -0.00000000       0.011
   0.34782609  0.00000000 -0.00000000       0.011
   0.39130435  0.00000000 -0.00000000       0.011
   0.43478261  0.00000000 -0.00000000       0.011
   0.47826087  0.00000000 -0.00000000       0.011
   0.04347826  0.04347826 -0.00000000       0.011
   0.08695652  0.04347826 -0.00000000       0.023
   0.13043478  0.04347826 -0.00000000       0.023
   0.17391304  0.04347826 -0.00000000       0.023
   0.21739130  0.04347826 -0.00000000       0.023
   0.26086957  0.04347826 -0.00000000       0.023
   0.30434783  0.04347826  0.00000000       0.023
   0.34782609  0.04347826 -0.00000000       0.023
   0.39130435  0.04347826 -0.00000000       0.023
   0.43478261  0.04347826 -0.00000000       0.023
   0.47826087  0.04347826  0.00000000       0.011
   0.08695652  0.08695652 -0.00000000       0.011
   0.13043478  0.08695652 -0.00000000       0.023
   0.17391304  0.08695652 -0.00000000       0.023
   0.21739130  0.08695652 -0.00000000       0.023
   0.26086957  0.08695652 -0.00000000       0.023
   0.30434783  0.08695652 -0.00000000       0.023
   0.34782609  0.08695652 -0.00000000       0.023
   0.39130435  0.08695652 -0.00000000       0.023
   0.43478261  0.08695652 -0.00000000       0.023
   0.13043478  0.13043478 -0.00000000       0.011
   0.17391304  0.13043478 -0.00000000       0.023
   0.21739130  0.13043478 -0.00000000       0.023
   0.26086957  0.13043478 -0.00000000       0.023
   0.30434783  0.13043478 -0.00000000       0.023
   0.34782609  0.13043478 -0.00000000       0.023
   0.39130435  0.13043478 -0.00000000       0.023
   0.43478261  0.13043478  0.00000000       0.011
   0.17391304  0.17391304 -0.00000000       0.011
   0.21739130  0.17391304 -0.00000000       0.023
   0.26086957  0.17391304  0.00000000       0.023
   0.30434783  0.17391304 -0.00000000       0.023
   0.34782609  0.17391304 -0.00000000       0.023
   0.39130435  0.17391304 -0.00000000       0.023
   0.21739130  0.21739130 -0.00000000       0.011
   0.26086957  0.21739130 -0.00000000       0.023
   0.30434783  0.21739130 -0.00000000       0.023
   0.34782609  0.21739130  0.00000000       0.023
   0.39130435  0.21739130  0.00000000       0.011
   0.26086957  0.26086957 -0.00000000       0.011
   0.30434783  0.26086957 -0.00000000       0.023
   0.34782609  0.26086957 -0.00000000       0.023
   0.30434783  0.30434783 -0.00000000       0.011
   0.34782609  0.30434783  0.00000000       0.011
 
 position of ions in fractional coordinates (direct lattice) 
   0.00000000  0.00000000  0.44023191
   0.33333300  0.66666700  0.47002476
   0.00000000  0.00000000  0.52969664
   0.33333300  0.66666700  0.55956929
   0.00000000  0.00000000  0.61935764
   0.33333300  0.66666700  0.64924925
   0.00000000  0.00000000  0.70901763
   0.66666700  0.33333300  0.49985184
   0.66666700  0.33333300  0.58946586
   0.66666700  0.33333300  0.67914964
   0.00000000  0.00000000  0.48499779
   0.00000000  0.00000000  0.57458012
   0.00000000  0.00000000  0.66425684
   0.66666700  0.33333300  0.45516430
   0.66666700  0.33333300  0.54468860
   0.66666700  0.33333300  0.63437127
   0.66666700  0.33333300  0.72467077
   0.33333300  0.66666700  0.42482170
   0.33333300  0.66666700  0.51484051
   0.33333300  0.66666700  0.60447233
   0.33333300  0.66666700  0.69416811
   0.00000000  0.00000000  0.23354639
   0.00000000  0.00000000  0.31470488
   0.00000000  0.00000000  0.39560960
   0.66666700  0.33333300  0.28786106
   0.66666700  0.33333300  0.36877845
   0.33333300  0.66666700  0.26091276
   0.33333300  0.66666700  0.34175005
 
 position of ions in cartesian coordinates  (Angst):
  -0.00000000  0.00000000 36.19032241
   0.86171247  1.49252852 38.63951583
  -0.00000000  0.00000000 43.54498602
   0.86171247  1.49252852 46.00073886
  -0.00000000  0.00000000 50.91578421
   0.86171247  1.49252852 53.37309584
  -0.00000000  0.00000000 58.28649921
   1.72342752 -0.00000149 41.09152266
   1.72342752 -0.00000149 48.45845822
   1.72342752 -0.00000149 55.83112939
  -0.00000000  0.00000000 39.87040943
  -0.00000000  0.00000000 47.23473994
  -0.00000000  0.00000000 54.60683072
   1.72342752 -0.00000149 37.41787594
   1.72342752 -0.00000149 44.77743612
   1.72342752 -0.00000149 52.15001565
   1.72342752 -0.00000149 59.57330332
   0.86171247  1.49252852 34.92348941
   0.86171247  1.49252852 42.32370229
   0.86171247  1.49252852 49.69210119
   0.86171247  1.49252852 57.06575824
  -0.00000000  0.00000000 19.19924271
  -0.00000000  0.00000000 25.87107177
  -0.00000000  0.00000000 32.52203833
   1.72342752 -0.00000149 23.66431019
   1.72342752 -0.00000149 30.31631924
   0.86171247  1.49252852 21.44896113
   0.86171247  1.49252852 28.09438421
 


--------------------------------------------------------------------------------------------------------


 k-point  1 :   0.0000 0.0000 0.0000  plane waves:   17345
 k-point  2 :   0.0435 0.0000-0.0000  plane waves:   17327
 k-point  3 :   0.0870 0.0000-0.0000  plane waves:   17311
 k-point  4 :   0.1304 0.0000-0.0000  plane waves:   17293
 k-point  5 :   0.1739 0.0000-0.0000  plane waves:   17239
 k-point  6 :   0.2174 0.0000-0.0000  plane waves:   17202
 k-point  7 :   0.2609 0.0000-0.0000  plane waves:   17140
 k-point  8 :   0.3043 0.0000-0.0000  plane waves:   17102
 k-point  9 :   0.3478 0.0000-0.0000  plane waves:   17016
 k-point 10 :   0.3913 0.0000-0.0000  plane waves:   16986
 k-point 11 :   0.4348 0.0000-0.0000  plane waves:   16966
 k-point 12 :   0.4783 0.0000-0.0000  plane waves:   16952
 k-point 13 :   0.0435 0.0435-0.0000  plane waves:   17335
 k-point 14 :   0.0870 0.0435-0.0000  plane waves:   17301
 k-point 15 :   0.1304 0.0435-0.0000  plane waves:   17267
 k-point 16 :   0.1739 0.0435-0.0000  plane waves:   17210
 k-point 17 :   0.2174 0.0435-0.0000  plane waves:   17136
 k-point 18 :   0.2609 0.0435-0.0000  plane waves:   17114
 k-point 19 :   0.3043 0.0435 0.0000  plane waves:   17061
 k-point 20 :   0.3478 0.0435-0.0000  plane waves:   17016
 k-point 21 :   0.3913 0.0435-0.0000  plane waves:   16991
 k-point 22 :   0.4348 0.0435-0.0000  plane waves:   16956
 k-point 23 :   0.4783 0.0435 0.0000  plane waves:   16894
 k-point 24 :   0.0870 0.0870-0.0000  plane waves:   17261
 k-point 25 :   0.1304 0.0870-0.0000  plane waves:   17231
 k-point 26 :   0.1739 0.0870-0.0000  plane waves:   17165
 k-point 27 :   0.2174 0.0870-0.0000  plane waves:   17095
 k-point 28 :   0.2609 0.0870-0.0000  plane waves:   17100
 k-point 29 :   0.3043 0.0870-0.0000  plane waves:   17078
 k-point 30 :   0.3478 0.0870-0.0000  plane waves:   17026
 k-point 31 :   0.3913 0.0870-0.0000  plane waves:   16961
 k-point 32 :   0.4348 0.0870-0.0000  plane waves:   16920
 k-point 33 :   0.1304 0.1304-0.0000  plane waves:   17149
 k-point 34 :   0.1739 0.1304-0.0000  plane waves:   17133
 k-point 35 :   0.2174 0.1304-0.0000  plane waves:   17120
 k-point 36 :   0.2609 0.1304-0.0000  plane waves:   17090
 k-point 37 :   0.3043 0.1304-0.0000  plane waves:   17035
 k-point 38 :   0.3478 0.1304-0.0000  plane waves:   17020
 k-point 39 :   0.3913 0.1304-0.0000  plane waves:   16948
 k-point 40 :   0.4348 0.1304 0.0000  plane waves:   16938
 k-point 41 :   0.1739 0.1739-0.0000  plane waves:   17097
 k-point 42 :   0.2174 0.1739-0.0000  plane waves:   17093
 k-point 43 :   0.2609 0.1739 0.0000  plane waves:   17065
 k-point 44 :   0.3043 0.1739-0.0000  plane waves:   17058
 k-point 45 :   0.3478 0.1739-0.0000  plane waves:   16995
 k-point 46 :   0.3913 0.1739-0.0000  plane waves:   16969
 k-point 47 :   0.2174 0.2174-0.0000  plane waves:   17069
 k-point 48 :   0.2609 0.2174-0.0000  plane waves:   17076
 k-point 49 :   0.3043 0.2174-0.0000  plane waves:   17023
 k-point 50 :   0.3478 0.2174 0.0000  plane waves:   17017
 k-point 51 :   0.3913 0.2174 0.0000  plane waves:   17026
 k-point 52 :   0.2609 0.2609-0.0000  plane waves:   17010
 k-point 53 :   0.3043 0.2609-0.0000  plane waves:   17000
 k-point 54 :   0.3478 0.2609-0.0000  plane waves:   17052
 k-point 55 :   0.3043 0.3043-0.0000  plane waves:   17070
 k-point 56 :   0.3478 0.3043 0.0000  plane waves:   17070

 maximum and minimum number of plane-waves per node :      4365     4216

 maximum number of plane-waves:     17345
 maximum index in each direction: 
   IXMAX=    5   IYMAX=    5   IZMAX=  152
   IXMIN=   -6   IYMIN=   -5   IZMIN= -152


 parallel 3D FFT for wavefunctions:
    minimum data exchange during FFTs selected (reduces bandwidth)
 parallel 3D FFT for charge:
    minimum data exchange during FFTs selected (reduces bandwidth)


 total amount of memory used by VASP MPI-rank0   202628. kBytes
=======================================================================

   base      :      30000. kBytes
   nonl-proj :      77324. kBytes
   fftplans  :      24923. kBytes
   grid      :      15257. kBytes
   one-center:         56. kBytes
   wavefun   :      55068. kBytes
 
     INWAV:  cpu time    0.0000: real time    0.0001
 Broyden mixing: mesh for mixing (old mesh)
   NGX = 11   NGY = 11   NGZ =305
  (NGX  = 48   NGY  = 48   NGZ  =***)
  gives a total of  36905 points

 initial charge density was supplied:
 charge density of overlapping atoms calculated
 number of electron     103.0000000 magnetization 
 keeping initial charge density in first step


--------------------------------------------------------------------------------------------------------


 Maximum index for augmentation-charges        10033 (set IRDMAX)


--------------------------------------------------------------------------------------------------------


 First call to EWALD:  gamma=   0.206
 Maximum number of real-space cells 8x 8x 1
 Maximum number of reciprocal cells 1x 1x22

    FEWALD:  cpu time    0.0019: real time    0.0019


--------------------------------------- Iteration      1(   1)  ---------------------------------------


    POTLOK:  cpu time    0.1199: real time    0.1203
    SETDIJ:  cpu time    0.2301: real time    0.2332
     EDDAV:  cpu time   27.5114: real time   27.6650
 BZINTS: Fermi energy: 11.283070;103.000000 electrons
         Band energy: -59.001998;  BLOECHL correction: -0.063612
       DOS:  cpu time    0.0205: real time    0.0205
    --------------------------------------------
      LOOP:  cpu time   27.8821: real time   28.0391

 eigenvalue-minimisations  :  8110
 total energy-change (2. order) : 0.7548566E+03  (-0.4130770E+04)
 number of electron     103.0000000 magnetization 
 augmentation part      103.0000000 magnetization 

 Free energy of the ion-electron system (eV)
  ---------------------------------------------------
  alpha Z        PSCENC =        76.51975815
  Ewald energy   TEWEN  =    254804.71084330
  -Hartree energ DENC   =   -259356.74813685
  -exchange      EXHF   =         0.00000000
  -V(xc)+E(xc)   XCENC  =      -438.56361835
  PAW double counting   =      4647.26951674    -3871.08436696
  entropy T*S    EENTRO =         0.00000000
  eigenvalues    EBANDS =       -59.00199784
  atomic energy  EATOM  =      4951.75456612
  Solvation  Ediel_sol  =         0.00000000
  ---------------------------------------------------
  free energy    TOTEN  =       754.85656432 eV

  energy without entropy =      754.85656432  energy(sigma->0) =      754.85656432


--------------------------------------------------------------------------------------------------------




--------------------------------------- Iteration      1(   2)  ---------------------------------------


     EDDAV:  cpu time   32.1592: real time   32.2820
 BZINTS: Fermi energy:  1.010154;103.000000 electrons
         Band energy:-846.376290;  BLOECHL correction: -0.067351
       DOS:  cpu time    0.0211: real time    0.0211
    --------------------------------------------
      LOOP:  cpu time   32.1804: real time   32.3032

 eigenvalue-minimisations  : 10410
 total energy-change (2. order) :-0.7873743E+03  (-0.7444470E+03)
 number of electron     103.0000000 magnetization 
 augmentation part      103.0000000 magnetization 

 Free energy of the ion-electron system (eV)
  ---------------------------------------------------
  alpha Z        PSCENC =        76.51975815
  Ewald energy   TEWEN  =    254804.71084330
  -Hartree energ DENC   =   -259356.74813685
  -exchange      EXHF   =         0.00000000
  -V(xc)+E(xc)   XCENC  =      -438.56361835
  PAW double counting   =      4647.26951674    -3871.08436696
  entropy T*S    EENTRO =         0.00000000
  eigenvalues    EBANDS =      -846.37628996
  atomic energy  EATOM  =      4951.75456612
  Solvation  Ediel_sol  =         0.00000000
  ---------------------------------------------------
  free energy    TOTEN  =       -32.51772780 eV

  energy without entropy =      -32.51772780  energy(sigma->0) =      -32.51772780


--------------------------------------------------------------------------------------------------------




--------------------------------------- Iteration      1(   3)  ---------------------------------------


     EDDAV:  cpu time   30.0235: real time   30.2362
 BZINTS: Fermi energy:  0.425660;103.000000 electrons
         Band energy:-972.153265;  BLOECHL correction: -0.058850
       DOS:  cpu time    0.0207: real time    0.0207
    --------------------------------------------
      LOOP:  cpu time   30.0441: real time   30.2568

 eigenvalue-minimisations  :  9420
 total energy-change (2. order) :-0.1257770E+03  (-0.1248187E+03)
 number of electron     103.0000000 magnetization 
 augmentation part      103.0000000 magnetization 

 Free energy of the ion-electron system (eV)
  ---------------------------------------------------
  alpha Z        PSCENC =        76.51975815
  Ewald energy   TEWEN  =    254804.71084330
  -Hartree energ DENC   =   -259356.74813685
  -exchange      EXHF   =         0.00000000
  -V(xc)+E(xc)   XCENC  =      -438.56361835
  PAW double counting   =      4647.26951674    -3871.08436696
  entropy T*S    EENTRO =         0.00000000
  eigenvalues    EBANDS =      -972.15326501
  atomic energy  EATOM  =      4951.75456612
  Solvation  Ediel_sol  =         0.00000000
  ---------------------------------------------------
  free energy    TOTEN  =      -158.29470286 eV

  energy without entropy =     -158.29470286  energy(sigma->0) =     -158.29470286


--------------------------------------------------------------------------------------------------------




--------------------------------------- Iteration      1(   4)  ---------------------------------------


     EDDAV:  cpu time   30.4485: real time   30.9885
 BZINTS: Fermi energy:  0.399391;103.000000 electrons
         Band energy:-975.844271;  BLOECHL correction: -0.058938
       DOS:  cpu time    0.0193: real time    0.0193
    --------------------------------------------
      LOOP:  cpu time   30.4679: real time   31.0079

 eigenvalue-minimisations  :  9620
 total energy-change (2. order) :-0.3691006E+01  (-0.3681487E+01)
 number of electron     103.0000000 magnetization 
 augmentation part      103.0000000 magnetization 

 Free energy of the ion-electron system (eV)
  ---------------------------------------------------
  alpha Z        PSCENC =        76.51975815
  Ewald energy   TEWEN  =    254804.71084330
  -Hartree energ DENC   =   -259356.74813685
  -exchange      EXHF   =         0.00000000
  -V(xc)+E(xc)   XCENC  =      -438.56361835
  PAW double counting   =      4647.26951674    -3871.08436696
  entropy T*S    EENTRO =         0.00000000
  eigenvalues    EBANDS =      -975.84427084
  atomic energy  EATOM  =      4951.75456612
  Solvation  Ediel_sol  =         0.00000000
  ---------------------------------------------------
  free energy    TOTEN  =      -161.98570869 eV

  energy without entropy =     -161.98570869  energy(sigma->0) =     -161.98570869


--------------------------------------------------------------------------------------------------------




--------------------------------------- Iteration      1(   5)  ---------------------------------------


     EDDAV:  cpu time   32.5883: real time   33.2593
 BZINTS: Fermi energy:  0.398780;103.000000 electrons
         Band energy:-975.943171;  BLOECHL correction: -0.058893
       DOS:  cpu time    0.0202: real time    0.0202
    CHARGE:  cpu time    1.6496: real time    1.6569
    MIXING:  cpu time    0.0120: real time    0.0120
    --------------------------------------------
      LOOP:  cpu time   34.2710: real time   34.9485

 eigenvalue-minimisations  : 10520
 total energy-change (2. order) :-0.9890064E-01  (-0.9888372E-01)
 number of electron     103.0000015 magnetization 
 augmentation part        7.7589444 magnetization 

 Broyden mixing:
  rms(total) = 0.23220E+01    rms(broyden)= 0.23215E+01
  rms(prec ) = 0.23550E+01
  weight for this iteration     100.00

 Free energy of the ion-electron system (eV)
  ---------------------------------------------------
  alpha Z        PSCENC =        76.51975815
  Ewald energy   TEWEN  =    254804.71084330
  -Hartree energ DENC   =   -259356.74813685
  -exchange      EXHF   =         0.00000000
  -V(xc)+E(xc)   XCENC  =      -438.56361835
  PAW double counting   =      4647.26951674    -3871.08436696
  entropy T*S    EENTRO =         0.00000000
  eigenvalues    EBANDS =      -975.94317148
  atomic energy  EATOM  =      4951.75456612
  Solvation  Ediel_sol  =         0.00000000
  ---------------------------------------------------
  free energy    TOTEN  =      -162.08460933 eV

  energy without entropy =     -162.08460933  energy(sigma->0) =     -162.08460933


--------------------------------------------------------------------------------------------------------




--------------------------------------- Iteration      1(   6)  ---------------------------------------


    POTLOK:  cpu time    0.1141: real time    0.1154
    SETDIJ:  cpu time    0.2530: real time    0.2531
     EDDAV:  cpu time   29.6584: real time   29.7698
 BZINTS: Fermi energy:  1.176650;103.000000 electrons
         Band energy:-768.940170;  BLOECHL correction: -0.057923
       DOS:  cpu time    0.0203: real time    0.0203
    CHARGE:  cpu time    1.7162: real time    1.7209
    MIXING:  cpu time    0.0200: real time    0.0200
    --------------------------------------------
      LOOP:  cpu time   31.7810: real time   31.8994

 eigenvalue-minimisations  :  9170
 total energy-change (2. order) : 0.1657464E+02  (-0.9627984E+01)
 number of electron     103.0000017 magnetization 
 augmentation part        6.3508278 magnetization 

 Broyden mixing:
  rms(total) = 0.75755E+00    rms(broyden)= 0.75657E+00
  rms(prec ) = 0.80401E+00
  weight for this iteration     100.00

 eigenvalues of (default mixing * dielectric matrix)
  average eigenvalue GAMMA=   0.8637
  0.8637

 Free energy of the ion-electron system (eV)
  ---------------------------------------------------
  alpha Z        PSCENC =        76.51975815
  Ewald energy   TEWEN  =    254804.71084330
  -Hartree energ DENC   =   -259557.04212052
  -exchange      EXHF   =         0.00000000
  -V(xc)+E(xc)   XCENC  =      -425.15020427
  PAW double counting   =      5563.06281897    -4790.42545843
  entropy T*S    EENTRO =         0.00000000
  eigenvalues    EBANDS =      -768.94016990
  atomic energy  EATOM  =      4951.75456612
  Solvation  Ediel_sol  =         0.00000000
  ---------------------------------------------------
  free energy    TOTEN  =      -145.50996657 eV

  energy without entropy =     -145.50996657  energy(sigma->0) =     -145.50996657


--------------------------------------------------------------------------------------------------------




--------------------------------------- Iteration      1(   7)  ---------------------------------------


    POTLOK:  cpu time    0.1181: real time    0.1193
    SETDIJ:  cpu time    0.2515: real time    0.2520
     EDDAV:  cpu time   31.2992: real time   31.4774
 BZINTS: Fermi energy:  0.673819;103.000000 electrons
         Band energy:-761.254906;  BLOECHL correction: -0.054018
       DOS:  cpu time    0.0204: real time    0.0204
    CHARGE:  cpu time    1.7001: real time    1.7025
    MIXING:  cpu time    0.0210: real time    0.0213
    --------------------------------------------
      LOOP:  cpu time   33.4103: real time   33.5929

 eigenvalue-minimisations  :  9440
 total energy-change (2. order) : 0.1727201E+00  (-0.9040935E+00)
 number of electron     103.0000018 magnetization 
 augmentation part        6.3347242 magnetization 

 Broyden mixing:
  rms(total) = 0.51369E+00    rms(broyden)= 0.51365E+00
  rms(prec ) = 0.55364E+00
  weight for this iteration     100.00

 eigenvalues of (default mixing * dielectric matrix)
  average eigenvalue GAMMA=   1.3446
  1.0793  1.6099

 Free energy of the ion-electron system (eV)
  ---------------------------------------------------
  alpha Z        PSCENC =        76.51975815
  Ewald energy   TEWEN  =    254804.71084330
  -Hartree energ DENC   =   -259565.61595757
  -exchange      EXHF   =         0.00000000
  -V(xc)+E(xc)   XCENC  =      -424.48399025
  PAW double counting   =      5894.54013254    -5121.50769281
  entropy T*S    EENTRO =         0.00000000
  eigenvalues    EBANDS =      -761.25490597
  atomic energy  EATOM  =      4951.75456612
  Solvation  Ediel_sol  =         0.00000000
  ---------------------------------------------------
  free energy    TOTEN  =      -145.33724647 eV

  energy without entropy =     -145.33724647  energy(sigma->0) =     -145.33724647


--------------------------------------------------------------------------------------------------------




--------------------------------------- Iteration      1(   8)  ---------------------------------------


    POTLOK:  cpu time    0.1198: real time    0.1333
    SETDIJ:  cpu time    0.2588: real time    0.2609
     EDDAV:  cpu time   31.9408: real time   32.0238
 BZINTS: Fermi energy:  1.129374;103.000000 electrons
         Band energy:-763.716826;  BLOECHL correction: -0.052571
       DOS:  cpu time    0.0203: real time    0.0203
    CHARGE:  cpu time    1.6866: real time    1.7130
    MIXING:  cpu time    0.0197: real time    0.0197
    --------------------------------------------
      LOOP:  cpu time   34.0460: real time   34.1709

 eigenvalue-minimisations  :  9530
 total energy-change (2. order) : 0.1323387E+00  (-0.5154794E+00)
 number of electron     103.0000017 magnetization 
 augmentation part        6.3835879 magnetization 

 Broyden mixing:
  rms(total) = 0.33129E+00    rms(broyden)= 0.33128E+00
  rms(prec ) = 0.39470E+00
  weight for this iteration     100.00

 eigenvalues of (default mixing * dielectric matrix)
  average eigenvalue GAMMA=   1.2995
  2.4358  0.9774  0.4853

 Free energy of the ion-electron system (eV)
  ---------------------------------------------------
  alpha Z        PSCENC =        76.51975815
  Ewald energy   TEWEN  =    254804.71084330
  -Hartree energ DENC   =   -259563.56708259
  -exchange      EXHF   =         0.00000000
  -V(xc)+E(xc)   XCENC  =      -424.06553764
  PAW double counting   =      6107.34593245    -5334.18656143
  entropy T*S    EENTRO =         0.00000000
  eigenvalues    EBANDS =      -763.71682611
  atomic energy  EATOM  =      4951.75456612
  Solvation  Ediel_sol  =         0.00000000
  ---------------------------------------------------
  free energy    TOTEN  =      -145.20490775 eV

  energy without entropy =     -145.20490775  energy(sigma->0) =     -145.20490775


--------------------------------------------------------------------------------------------------------




--------------------------------------- Iteration      1(   9)  ---------------------------------------


    POTLOK:  cpu time    0.1184: real time    0.1189
    SETDIJ:  cpu time    0.2562: real time    0.2567
     EDDAV:  cpu time   30.5321: real time   30.6197
 BZINTS: Fermi energy:  0.969236;103.000000 electrons
         Band energy:-743.951936;  BLOECHL correction: -0.044348
       DOS:  cpu time    0.0215: real time    0.0215
    CHARGE:  cpu time    1.7759: real time    1.7786
    MIXING:  cpu time    0.0198: real time    0.0200
    --------------------------------------------
      LOOP:  cpu time   32.7239: real time   32.8154

 eigenvalue-minimisations  :  9380
 total energy-change (2. order) : 0.2400497E+00  (-0.2547898E+00)
 number of electron     103.0000018 magnetization 
 augmentation part        6.3893744 magnetization 

 Broyden mixing:
  rms(total) = 0.63507E-01    rms(broyden)= 0.63478E-01
  rms(prec ) = 0.81743E-01
  weight for this iteration     100.00

 eigenvalues of (default mixing * dielectric matrix)
  average eigenvalue GAMMA=   1.1987
  2.4680  0.9309  0.9309  0.4650

 Free energy of the ion-electron system (eV)
  ---------------------------------------------------
  alpha Z        PSCENC =        76.51975815
  Ewald energy   TEWEN  =    254804.71084330
  -Hartree energ DENC   =   -259584.67296439
  -exchange      EXHF   =         0.00000000
  -V(xc)+E(xc)   XCENC  =      -422.67317798
  PAW double counting   =      6536.68347752    -5763.33542451
  entropy T*S    EENTRO =         0.00000000
  eigenvalues    EBANDS =      -743.95193629
  atomic energy  EATOM  =      4951.75456612
  Solvation  Ediel_sol  =         0.00000000
  ---------------------------------------------------
  free energy    TOTEN  =      -144.96485807 eV

  energy without entropy =     -144.96485807  energy(sigma->0) =     -144.96485807


--------------------------------------------------------------------------------------------------------




--------------------------------------- Iteration      1(  10)  ---------------------------------------


    POTLOK:  cpu time    0.1173: real time    0.1177
    SETDIJ:  cpu time    0.2567: real time    0.2572
     EDDAV:  cpu time   30.7365: real time   31.1185
 BZINTS: Fermi energy:  0.993738;103.000000 electrons
         Band energy:-743.494551;  BLOECHL correction: -0.048327
       DOS:  cpu time    0.0192: real time    0.0192
    CHARGE:  cpu time    1.7637: real time    1.7668
    MIXING:  cpu time    0.0205: real time    0.0205
    --------------------------------------------
      LOOP:  cpu time   32.9138: real time   33.2999

 eigenvalue-minimisations  :  9270
 total energy-change (2. order) : 0.1501063E-01  (-0.1893864E-01)
 number of electron     103.0000018 magnetization 
 augmentation part        6.3792605 magnetization 

 Broyden mixing:
  rms(total) = 0.49945E-01    rms(broyden)= 0.49942E-01
  rms(prec ) = 0.53937E-01
  weight for this iteration     100.00

 eigenvalues of (default mixing * dielectric matrix)
  average eigenvalue GAMMA=   1.0357
  2.4407  1.0007  1.0007  0.4744  0.2619

 Free energy of the ion-electron system (eV)
  ---------------------------------------------------
  alpha Z        PSCENC =        76.51975815
  Ewald energy   TEWEN  =    254804.71084330
  -Hartree energ DENC   =   -259585.28775353
  -exchange      EXHF   =         0.00000000
  -V(xc)+E(xc)   XCENC  =      -422.45553600
  PAW double counting   =      6533.32635653    -5760.02353084
  entropy T*S    EENTRO =         0.00000000
  eigenvalues    EBANDS =      -743.49455118
  atomic energy  EATOM  =      4951.75456612
  Solvation  Ediel_sol  =         0.00000000
  ---------------------------------------------------
  free energy    TOTEN  =      -144.94984745 eV

  energy without entropy =     -144.94984745  energy(sigma->0) =     -144.94984745


--------------------------------------------------------------------------------------------------------




--------------------------------------- Iteration      1(  11)  ---------------------------------------


    POTLOK:  cpu time    0.1178: real time    0.1181
    SETDIJ:  cpu time    0.2605: real time    0.2612
     EDDAV:  cpu time   31.0468: real time   31.8466
 BZINTS: Fermi energy:  1.018650;103.000000 electrons
         Band energy:-740.556080;  BLOECHL correction: -0.051350
       DOS:  cpu time    0.0192: real time    0.0192
    CHARGE:  cpu time    1.7586: real time    1.7601
    MIXING:  cpu time    0.0222: real time    0.0222
    --------------------------------------------
      LOOP:  cpu time   33.2261: real time   34.0274

 eigenvalue-minimisations  :  9430
 total energy-change (2. order) : 0.1855300E-02  (-0.1191519E-02)
 number of electron     103.0000018 magnetization 
 augmentation part        6.3688772 magnetization 

 Broyden mixing:
  rms(total) = 0.38794E-01    rms(broyden)= 0.38792E-01
  rms(prec ) = 0.40673E-01
  weight for this iteration     100.00

 eigenvalues of (default mixing * dielectric matrix)
  average eigenvalue GAMMA=   1.0872
  2.3362  1.5043  0.9752  0.4649  0.6212  0.6212

 Free energy of the ion-electron system (eV)
  ---------------------------------------------------
  alpha Z        PSCENC =        76.51975815
  Ewald energy   TEWEN  =    254804.71084330
  -Hartree energ DENC   =   -259588.28072372
  -exchange      EXHF   =         0.00000000
  -V(xc)+E(xc)   XCENC  =      -422.36139000
  PAW double counting   =      6505.43551215    -5732.17047840
  entropy T*S    EENTRO =         0.00000000
  eigenvalues    EBANDS =      -740.55607975
  atomic energy  EATOM  =      4951.75456612
  Solvation  Ediel_sol  =         0.00000000
  ---------------------------------------------------
  free energy    TOTEN  =      -144.94799215 eV

  energy without entropy =     -144.94799215  energy(sigma->0) =     -144.94799215


--------------------------------------------------------------------------------------------------------




--------------------------------------- Iteration      1(  12)  ---------------------------------------


    POTLOK:  cpu time    0.1186: real time    0.1193
    SETDIJ:  cpu time    0.2457: real time    0.2469
     EDDAV:  cpu time   32.6930: real time   32.9153
 BZINTS: Fermi energy:  1.042818;103.000000 electrons
         Band energy:-737.228533;  BLOECHL correction: -0.053230
       DOS:  cpu time    0.0199: real time    0.0199
    CHARGE:  cpu time    1.7996: real time    1.8044
    MIXING:  cpu time    0.0229: real time    0.0230
    --------------------------------------------
      LOOP:  cpu time   34.8988: real time   35.1288

 eigenvalue-minimisations  :  9860
 total energy-change (2. order) : 0.4828765E-03  (-0.2996483E-03)
 number of electron     103.0000018 magnetization 
 augmentation part        6.3658816 magnetization 

 Broyden mixing:
  rms(total) = 0.22377E-01    rms(broyden)= 0.22376E-01
  rms(prec ) = 0.25301E-01
  weight for this iteration     100.00

 eigenvalues of (default mixing * dielectric matrix)
  average eigenvalue GAMMA=   1.2570
  2.5233  2.5233  0.9497  0.9032  0.9032  0.4566  0.5398

 Free energy of the ion-electron system (eV)
  ---------------------------------------------------
  alpha Z        PSCENC =        76.51975815
  Ewald energy   TEWEN  =    254804.71084330
  -Hartree energ DENC   =   -259591.64026448
  -exchange      EXHF   =         0.00000000
  -V(xc)+E(xc)   XCENC  =      -422.30001953
  PAW double counting   =      6456.20739374    -5682.97125364
  entropy T*S    EENTRO =         0.00000000
  eigenvalues    EBANDS =      -737.22853293
  atomic energy  EATOM  =      4951.75456612
  Solvation  Ediel_sol  =         0.00000000
  ---------------------------------------------------
  free energy    TOTEN  =      -144.94750927 eV

  energy without entropy =     -144.94750927  energy(sigma->0) =     -144.94750927


--------------------------------------------------------------------------------------------------------




--------------------------------------- Iteration      1(  13)  ---------------------------------------


    POTLOK:  cpu time    0.1145: real time    0.1150
    SETDIJ:  cpu time    0.2543: real time    0.2552
     EDDAV:  cpu time   37.1786: real time   37.4364
 BZINTS: Fermi energy:  1.073686;103.000000 electrons
         Band energy:-732.416674;  BLOECHL correction: -0.052465
       DOS:  cpu time    0.0201: real time    0.0202
    CHARGE:  cpu time    1.6902: real time    1.6944
    MIXING:  cpu time    0.0222: real time    0.0222
    --------------------------------------------
      LOOP:  cpu time   39.2799: real time   39.5434

 eigenvalue-minimisations  : 11750
 total energy-change (2. order) : 0.4271587E-02  (-0.2340763E-03)
 number of electron     103.0000018 magnetization 
 augmentation part        6.3662887 magnetization 

 Broyden mixing:
  rms(total) = 0.75001E-02    rms(broyden)= 0.74999E-02
  rms(prec ) = 0.11547E-01
  weight for this iteration     100.00

 eigenvalues of (default mixing * dielectric matrix)
  average eigenvalue GAMMA=   1.2535
  2.8640  2.4799  0.9531  0.9531  0.8984  0.8984  0.4581  0.5230

 Free energy of the ion-electron system (eV)
  ---------------------------------------------------
  alpha Z        PSCENC =        76.51975815
  Ewald energy   TEWEN  =    254804.71084330
  -Hartree energ DENC   =   -259596.49494718
  -exchange      EXHF   =         0.00000000
  -V(xc)+E(xc)   XCENC  =      -422.23718016
  PAW double counting   =      6421.49608622    -5648.27569009
  entropy T*S    EENTRO =         0.00000000
  eigenvalues    EBANDS =      -732.41667405
  atomic energy  EATOM  =      4951.75456612
  Solvation  Ediel_sol  =         0.00000000
  ---------------------------------------------------
  free energy    TOTEN  =      -144.94323768 eV

  energy without entropy =     -144.94323768  energy(sigma->0) =     -144.94323768


--------------------------------------------------------------------------------------------------------




--------------------------------------- Iteration      1(  14)  ---------------------------------------


    POTLOK:  cpu time    0.1189: real time    0.1215
    SETDIJ:  cpu time    0.2615: real time    0.2630
     EDDAV:  cpu time   30.9107: real time   31.0232
 BZINTS: Fermi energy:  1.088127;103.000000 electrons
         Band energy:-730.212870;  BLOECHL correction: -0.051892
       DOS:  cpu time    0.0198: real time    0.0198
    CHARGE:  cpu time    1.7862: real time    1.7878
    MIXING:  cpu time    0.0210: real time    0.0210
    --------------------------------------------
      LOOP:  cpu time   33.1180: real time   33.2362

 eigenvalue-minimisations  :  9480
 total energy-change (2. order) : 0.2192285E-02  (-0.1202070E-03)
 number of electron     103.0000018 magnetization 
 augmentation part        6.3667811 magnetization 

 Broyden mixing:
  rms(total) = 0.56495E-02    rms(broyden)= 0.56491E-02
  rms(prec ) = 0.98440E-02
  weight for this iteration     100.00

 eigenvalues of (default mixing * dielectric matrix)
  average eigenvalue GAMMA=   1.1963
  2.9354  2.4976  0.9458  0.9458  0.9336  0.9336  0.4558  0.5598  0.5598

 Free energy of the ion-electron system (eV)
  ---------------------------------------------------
  alpha Z        PSCENC =        76.51975815
  Ewald energy   TEWEN  =    254804.71084330
  -Hartree energ DENC   =   -259598.70134139
  -exchange      EXHF   =         0.00000000
  -V(xc)+E(xc)   XCENC  =      -422.23114541
  PAW double counting   =      6414.31453786    -5641.09539405
  entropy T*S    EENTRO =         0.00000000
  eigenvalues    EBANDS =      -730.21286998
  atomic energy  EATOM  =      4951.75456612
  Solvation  Ediel_sol  =         0.00000000
  ---------------------------------------------------
  free energy    TOTEN  =      -144.94104540 eV

  energy without entropy =     -144.94104540  energy(sigma->0) =     -144.94104540


--------------------------------------------------------------------------------------------------------




--------------------------------------- Iteration      1(  15)  ---------------------------------------


    POTLOK:  cpu time    0.1193: real time    0.1201
    SETDIJ:  cpu time    0.2556: real time    0.2576
     EDDAV:  cpu time   34.4855: real time   34.5530
 BZINTS: Fermi energy:  1.107495;103.000000 electrons
         Band energy:-726.977100;  BLOECHL correction: -0.051262
       DOS:  cpu time    0.0203: real time    0.0203
    CHARGE:  cpu time    1.7793: real time    1.8036
    MIXING:  cpu time    0.0235: real time    0.0235
    --------------------------------------------
      LOOP:  cpu time   36.6834: real time   36.7781

 eigenvalue-minimisations  : 10740
 total energy-change (2. order) : 0.2361850E-02  (-0.3898665E-04)
 number of electron     103.0000018 magnetization 
 augmentation part        6.3671412 magnetization 

 Broyden mixing:
  rms(total) = 0.45488E-02    rms(broyden)= 0.45486E-02
  rms(prec ) = 0.82957E-02
  weight for this iteration     100.00

 eigenvalues of (default mixing * dielectric matrix)
  average eigenvalue GAMMA=   1.3688
  3.5387  2.5573  2.0274  1.0617  1.0617  0.9043  0.9043  0.4567  0.5265  0.6497

 Free energy of the ion-electron system (eV)
  ---------------------------------------------------
  alpha Z        PSCENC =        76.51975815
  Ewald energy   TEWEN  =    254804.71084330
  -Hartree energ DENC   =   -259601.93268760
  -exchange      EXHF   =         0.00000000
  -V(xc)+E(xc)   XCENC  =      -422.23460431
  PAW double counting   =      6411.00367556    -5637.78313494
  entropy T*S    EENTRO =         0.00000000
  eigenvalues    EBANDS =      -726.97709983
  atomic energy  EATOM  =      4951.75456612
  Solvation  Ediel_sol  =         0.00000000
  ---------------------------------------------------
  free energy    TOTEN  =      -144.93868355 eV

  energy without entropy =     -144.93868355  energy(sigma->0) =     -144.93868355


--------------------------------------------------------------------------------------------------------




--------------------------------------- Iteration      1(  16)  ---------------------------------------


    POTLOK:  cpu time    0.1220: real time    0.1234
    SETDIJ:  cpu time    0.2594: real time    0.2604
     EDDAV:  cpu time   33.9218: real time   33.9852
 BZINTS: Fermi energy:  1.157093;103.000000 electrons
         Band energy:-719.186324;  BLOECHL correction: -0.051015
       DOS:  cpu time    0.0197: real time    0.0197
    CHARGE:  cpu time    1.7646: real time    1.7659
    MIXING:  cpu time    0.0237: real time    0.0237
    --------------------------------------------
      LOOP:  cpu time   36.1112: real time   36.1784

 eigenvalue-minimisations  : 10740
 total energy-change (2. order) : 0.3938370E-02  (-0.1250995E-03)
 number of electron     103.0000018 magnetization 
 augmentation part        6.3680426 magnetization 

 Broyden mixing:
  rms(total) = 0.46908E-02    rms(broyden)= 0.46902E-02
  rms(prec ) = 0.71365E-02
  weight for this iteration     100.00

 eigenvalues of (default mixing * dielectric matrix)
  average eigenvalue GAMMA=   1.3805
  3.7468  2.6522  2.2821  1.0595  1.0595  0.9131  0.9131  0.4571  0.5254  0.7885
  0.7885

 Free energy of the ion-electron system (eV)
  ---------------------------------------------------
  alpha Z        PSCENC =        76.51975815
  Ewald energy   TEWEN  =    254804.71084330
  -Hartree energ DENC   =   -259609.72457854
  -exchange      EXHF   =         0.00000000
  -V(xc)+E(xc)   XCENC  =      -422.23226262
  PAW double counting   =      6409.87722190    -5636.65396970
  entropy T*S    EENTRO =         0.00000000
  eigenvalues    EBANDS =      -719.18632380
  atomic energy  EATOM  =      4951.75456612
  Solvation  Ediel_sol  =         0.00000000
  ---------------------------------------------------
  free energy    TOTEN  =      -144.93474518 eV

  energy without entropy =     -144.93474518  energy(sigma->0) =     -144.93474518


--------------------------------------------------------------------------------------------------------




--------------------------------------- Iteration      1(  17)  ---------------------------------------


    POTLOK:  cpu time    0.1206: real time    0.1213
    SETDIJ:  cpu time    0.2534: real time    0.2541
     EDDAV:  cpu time   32.4346: real time   32.5091
 BZINTS: Fermi energy:  1.181951;103.000000 electrons
         Band energy:-715.039707;  BLOECHL correction: -0.050994
       DOS:  cpu time    0.0182: real time    0.0183
    CHARGE:  cpu time    1.7313: real time    1.7328
    MIXING:  cpu time    0.0313: real time    0.0313
    --------------------------------------------
      LOOP:  cpu time   34.5895: real time   34.6669

 eigenvalue-minimisations  : 10190
 total energy-change (2. order) : 0.1424820E-02  (-0.7951854E-04)
 number of electron     103.0000018 magnetization 
 augmentation part        6.3676050 magnetization 

 Broyden mixing:
  rms(total) = 0.31752E-02    rms(broyden)= 0.31748E-02
  rms(prec ) = 0.56378E-02
  weight for this iteration     100.00

 eigenvalues of (default mixing * dielectric matrix)
  average eigenvalue GAMMA=   1.6420
  6.5817  2.8487  2.4489  1.1587  1.1587  0.9910  0.9910  0.9250  0.9250  0.4569
  0.5263  0.6918

 Free energy of the ion-electron system (eV)
  ---------------------------------------------------
  alpha Z        PSCENC =        76.51975815
  Ewald energy   TEWEN  =    254804.71084330
  -Hartree energ DENC   =   -259613.87778252
  -exchange      EXHF   =         0.00000000
  -V(xc)+E(xc)   XCENC  =      -422.22373394
  PAW double counting   =      6412.72015067    -5639.49741557
  entropy T*S    EENTRO =         0.00000000
  eigenvalues    EBANDS =      -715.03970657
  atomic energy  EATOM  =      4951.75456612
  Solvation  Ediel_sol  =         0.00000000
  ---------------------------------------------------
  free energy    TOTEN  =      -144.93332036 eV

  energy without entropy =     -144.93332036  energy(sigma->0) =     -144.93332036


--------------------------------------------------------------------------------------------------------




--------------------------------------- Iteration      1(  18)  ---------------------------------------


    POTLOK:  cpu time    0.1185: real time    0.1203
    SETDIJ:  cpu time    0.2571: real time    0.2579
     EDDAV:  cpu time   34.6881: real time   34.7655
 BZINTS: Fermi energy:  1.236768;103.000000 electrons
         Band energy:-706.233356;  BLOECHL correction: -0.050935
       DOS:  cpu time    0.0195: real time    0.0196
    CHARGE:  cpu time    1.7629: real time    1.7653
    MIXING:  cpu time    0.0271: real time    0.0271
    --------------------------------------------
      LOOP:  cpu time   36.8732: real time   36.9556

 eigenvalue-minimisations  : 11200
 total energy-change (2. order) : 0.3241825E-02  (-0.1387051E-03)
 number of electron     103.0000018 magnetization 
 augmentation part        6.3675801 magnetization 

 Broyden mixing:
  rms(total) = 0.27169E-02    rms(broyden)= 0.27162E-02
  rms(prec ) = 0.43852E-02
  weight for this iteration     100.00

 eigenvalues of (default mixing * dielectric matrix)
  average eigenvalue GAMMA=   1.6810
  7.6418  2.8614  2.4172  1.2001  1.2001  1.0482  1.0482  0.4569  0.5261  0.9979
  0.8708  0.8708  0.7128

 Free energy of the ion-electron system (eV)
  ---------------------------------------------------
  alpha Z        PSCENC =        76.51975815
  Ewald energy   TEWEN  =    254804.71084330
  -Hartree energ DENC   =   -259622.69057326
  -exchange      EXHF   =         0.00000000
[...]
      6     -17.9947      2.00000
      7     -17.9681      2.00000
      8     -17.9468      2.00000
      9     -17.9156      2.00000
     10     -17.8746      2.00000
     11      -6.1828      2.00000
     12      -6.0366      2.00000
     13      -5.9081      2.00000
     14      -5.8554      2.00000
     15      -5.7692      2.00000
     16      -5.7291      2.00000
     17      -5.6805      2.00000
     18      -5.6356      2.00000
     19      -5.5695      2.00000
     20      -5.4710      2.00000
     21      -5.1429      2.00000
     22      -5.0256      2.00000
     23      -4.9373      2.00000
     24      -4.8890      2.00000
     25      -4.8675      2.00000
     26      -4.7887      2.00000
     27      -4.6909      2.00000
     28      -4.6278      2.00000
     29      -4.4862      2.00000
     30      -4.3011      2.00000
     31      -3.9860      2.00000
     32      -3.7385      2.00000
     33      -3.6790      2.00000
     34      -3.5794      2.00000
     35      -3.5069      2.00000
     36      -3.4295      2.00000
     37      -3.3836      2.00000
     38      -3.3087      2.00000
     39      -3.2848      2.00000
     40      -3.2354      2.00000
     41      -3.1668      2.00000
     42      -2.9002      2.00000
     43      -2.3662      2.00000
     44      -2.2915      2.00000
     45      -1.9845      2.00000
     46      -1.4985      2.00000
     47      -1.3588      2.00000
     48      -0.7002      2.00000
     49      -0.5456      2.00000
     50      -0.3714      2.00000
     51      -0.1709      2.00000
     52       0.3211      2.00000
     53       0.4443      2.00000
     54       0.8783      2.00000
     55       1.2665      1.89171
     56       1.8484      0.00000
     57       2.2765      0.00000
     58       2.5482      0.00000
     59       3.1915      0.00000
     60       3.4010      0.00000
     61       3.5250      0.00000
     62       3.7983      0.00000
     63       4.4957      0.00000
     64       4.9458      0.00000
     65       4.9493      0.00000
     66       5.4856      0.00000
     67       6.1878      0.00000
     68       6.4675      0.00000
     69       6.6145      0.00000
     70       7.0862      0.00000

 k-point    55 :       0.3043    0.3043   -0.0000
  band No.  band energies     occupation 
      1     -18.2143      2.00000
      2     -18.1482      2.00000
      3     -18.1065      2.00000
      4     -18.0669      2.00000
      5     -18.0270      2.00000
      6     -17.9885      2.00000
      7     -17.9613      2.00000
      8     -17.9409      2.00000
      9     -17.9128      2.00000
     10     -17.8741      2.00000
     11      -5.9904      2.00000
     12      -5.9748      2.00000
     13      -5.8574      2.00000
     14      -5.8302      2.00000
     15      -5.7502      2.00000
     16      -5.6932      2.00000
     17      -5.6038      2.00000
     18      -5.5310      2.00000
     19      -5.4480      2.00000
     20      -5.3897      2.00000
     21      -5.2457      2.00000
     22      -5.2367      2.00000
     23      -5.0590      2.00000
     24      -5.0454      2.00000
     25      -4.9326      2.00000
     26      -4.8561      2.00000
     27      -4.7528      2.00000
     28      -4.6800      2.00000
     29      -4.5627      2.00000
     30      -4.5028      2.00000
     31      -3.9855      2.00000
     32      -3.7396      2.00000
     33      -3.6731      2.00000
     34      -3.5381      2.00000
     35      -3.4734      2.00000
     36      -3.4277      2.00000
     37      -3.3571      2.00000
     38      -3.3304      2.00000
     39      -3.3248      2.00000
     40      -3.3001      2.00000
     41      -3.1820      2.00000
     42      -2.9395      2.00000
     43      -2.3279      2.00000
     44      -1.5288      2.00000
     45      -1.4932      2.00000
     46      -1.4747      2.00000
     47      -1.1306      2.00000
     48      -1.1132      2.00000
     49      -0.5546      2.00000
     50      -0.5496      2.00000
     51      -0.5161      2.00000
     52       0.1579      2.00000
     53       0.3307      2.00000
     54       0.8394      2.00000
     55       1.2035      2.00000
     56       1.7429      0.00000
     57       2.3078      0.00000
     58       2.5367      0.00000
     59       2.9003      0.00000
     60       3.4344      0.00000
     61       3.5603      0.00000
     62       3.8945      0.00000
     63       4.2262      0.00000
     64       5.1486      0.00000
     65       5.2268      0.00000
     66       5.3912      0.00000
     67       5.7549      0.00000
     68       6.2432      0.00000
     69       6.5578      0.00000
     70       7.3088      0.00000

 k-point    56 :       0.3478    0.3043    0.0000
  band No.  band energies     occupation 
      1     -18.1955      2.00000
      2     -18.1318      2.00000
      3     -18.0948      2.00000
      4     -18.0631      2.00000
      5     -18.0155      2.00000
      6     -17.9754      2.00000
      7     -17.9430      2.00000
      8     -17.9246      2.00000
      9     -17.9168      2.00000
     10     -17.8863      2.00000
     11      -5.9752      2.00000
     12      -5.8295      2.00000
     13      -5.7699      2.00000
     14      -5.7616      2.00000
     15      -5.6978      2.00000
     16      -5.6286      2.00000
     17      -5.6193      2.00000
     18      -5.5476      2.00000
     19      -5.5102      2.00000
     20      -5.4243      2.00000
     21      -5.3032      2.00000
     22      -5.1841      2.00000
     23      -5.1404      2.00000
     24      -5.0420      2.00000
     25      -5.0215      2.00000
     26      -4.9358      2.00000
     27      -4.8363      2.00000
     28      -4.8257      2.00000
     29      -4.7438      2.00000
     30      -4.5846      2.00000
     31      -3.9522      2.00000
     32      -3.6868      2.00000
     33      -3.6110      2.00000
     34      -3.5437      2.00000
     35      -3.4837      2.00000
     36      -3.4303      2.00000
     37      -3.3834      2.00000
     38      -3.3522      2.00000
     39      -3.2769      2.00000
     40      -3.2558      2.00000
     41      -2.4477      2.00000
     42      -2.4433      2.00000
     43      -2.0738      2.00000
     44      -2.0602      2.00000
     45      -1.5319      2.00000
     46      -1.4789      2.00000
     47      -1.4547      2.00000
     48      -1.1555      2.00000
     49      -0.7131      2.00000
     50      -0.6821      2.00000
     51      -0.5205      2.00000
     52       0.0118      2.00000
     53       0.3197      2.00000
     54       0.6719      2.00000
     55       1.1896      2.00000
     56       1.8299      0.00000
     57       1.9551      0.00000
     58       2.6861      0.00000
     59       2.9483      0.00000
     60       3.2399      0.00000
     61       3.6690      0.00000
     62       4.0128      0.00000
     63       4.3387      0.00000
     64       4.6331      0.00000
     65       5.1322      0.00000
     66       5.3126      0.00000
     67       6.0335      0.00000
     68       6.0731      0.00000
     69       6.4295      0.00000
     70       7.0955      0.00000


--------------------------------------------------------------------------------------------------------


 soft charge-density along one line, spin component           1
         0         1         2         3         4         5         6         7         8         9
 total charge-density along one line
 
 pseudopotential strength for first ion, spin component:           1
 12.991 -15.870   0.000  -0.002   0.000  -0.000   0.003  -0.000
-15.870  19.413  -0.000   0.003  -0.000   0.000  -0.004   0.000
  0.000  -0.000  -9.383  -0.000   0.000  11.450   0.000  -0.000
 -0.002   0.003  -0.000  -9.386   0.000   0.000  11.453  -0.000
  0.000  -0.000   0.000   0.000  -9.383  -0.000  -0.000  11.450
 -0.000   0.000  11.450   0.000  -0.000 -13.859  -0.000   0.000
  0.003  -0.004   0.000  11.453  -0.000  -0.000 -13.863   0.000
 -0.000   0.000  -0.000  -0.000  11.450   0.000   0.000 -13.859
 total augmentation occupancy for first ion, spin component:           1
  2.598   0.362   0.000   0.011  -0.000   0.000   0.001  -0.000
  0.362   0.076   0.000   0.006  -0.000  -0.000  -0.003   0.000
  0.000  -0.000   2.151   0.000  -0.000   0.257  -0.000   0.000
  0.011   0.006  -0.000   2.140   0.000  -0.000   0.257   0.000
 -0.000  -0.000  -0.000   0.000   2.151  -0.000   0.000   0.257
  0.000   0.000   0.257  -0.000   0.000   0.034   0.000  -0.000
  0.001  -0.003  -0.000   0.257   0.000   0.000   0.035   0.000
 -0.000   0.000  -0.000   0.000   0.257   0.000   0.000   0.034


------------------------ aborting loop because EDIFF is reached ----------------------------------------


    CHARGE:  cpu time    1.7016: real time    1.7075
    FORLOC:  cpu time    0.0454: real time    0.0455
    FORNL :  cpu time    7.7860: real time    7.9025
    STRESS:  cpu time   18.1208: real time   18.1725
    FORCOR:  cpu time    0.1287: real time    0.1290
    FORHAR:  cpu time    0.0477: real time    0.0479
    MIXING:  cpu time    0.0049: real time    0.0049
    OFIELD:  cpu time    0.0001: real time    0.0001

  FORCE on cell =-STRESS in cart. coord.  units (eV):
  Direction    XX          YY          ZZ          XY          YZ          ZX
  --------------------------------------------------------------------------------------
  Alpha Z    76.51976    76.51976    76.51976
  Ewald  257527.06265257527.06545************    -0.00010     0.00007    -0.00157
  Hartree258719.71741258719.71658************    -0.00000     0.00000     0.00042
  E(xc)    -426.89065  -426.89079  -427.48542     0.00000     0.00000     0.00000
  Local  ************************516832.65933    -0.00012    -0.00005     0.00058
  n-local   -42.10502   -54.85771   -43.06913     3.01807    -1.86715     5.93072
  augment    60.84717    60.84659    60.38337     0.00018    -0.00000     0.00001
  Kinetic  1544.96484  1504.77355  1523.65734    -1.36563    -0.45731     1.49368
  Fock        0.00000     0.00000     0.00000     0.00000     0.00000     0.00000
  -------------------------------------------------------------------------------------
  Total       0.68683     0.68683     1.15331     0.00000     0.00000    -0.00000
  in kB       1.73466     1.73465     2.91280     0.00000     0.00000    -0.00000
  external pressure =        2.13 kB  Pullay stress =        0.00 kB


 VOLUME and BASIS-vectors are now :
 -----------------------------------------------------------------------------
  energy-cutoff  :      520.00
  volume of cell :      634.38
      direct lattice vectors                 reciprocal lattice vectors
     2.585139981 -1.492527023  0.000000000     0.386826248  0.000000000  0.000000000
     0.000000000  2.985054047  0.000000000     0.193413124  0.335002310  0.000000000
    -0.000000000  0.000000000 82.207404478    -0.000000000  0.000000000  0.012164354

  length of vectors
     2.985060408  2.985054047 82.207404478     0.386826248  0.386827072  0.012164354


 FORCES acting on ions
    electron-ion (+dipol)            ewald-force                    non-local-force                 convergence-correction
 -----------------------------------------------------------------------------------------------
   0.253E-04 -.548E-06 0.240E+04   -.238E-04 0.363E-05 -.240E+04   -.542E-17 0.130E-17 0.893E+00   -.136E-07 0.584E-08 0.928E-02
   0.106E-02 -.183E-02 0.172E+04   0.582E-04 -.103E-03 -.172E+04   0.112E-17 0.000E+00 -.117E+00   0.375E-07 -.700E-07 0.141E-02
   -.281E-07 0.359E-08 0.329E+03   -.201E-05 0.582E-06 -.329E+03   0.996E-18 0.000E+00 -.128E+00   -.172E-09 0.308E-09 0.544E-01
   0.106E-02 -.183E-02 -.364E+03   0.575E-04 -.102E-03 0.364E+03   0.104E-17 0.108E-18 -.145E+00   0.445E-07 -.759E-07 0.849E-01
   0.771E-07 -.547E-08 -.175E+04   -.203E-05 0.576E-06 0.175E+04   0.783E-18 -.217E-18 -.120E+00   0.451E-08 -.359E-09 0.681E-02
   0.106E-02 -.183E-02 -.244E+04   0.574E-04 -.102E-03 0.244E+04   0.701E-18 0.000E+00 -.108E+00   0.448E-07 -.775E-07 -.261E-01
   -.242E-04 0.473E-06 -.382E+04   0.185E-04 -.216E-05 0.382E+04   0.134E-16 0.000E+00 -.177E+01   0.800E-08 -.589E-08 0.395E-01
   -.106E-02 0.183E-02 0.102E+04   -.608E-04 0.102E-03 -.102E+04   0.732E-18 0.108E-18 -.111E+00   -.544E-07 0.942E-07 0.111E-01
   -.106E-02 0.183E-02 -.106E+04   -.604E-04 0.102E-03 0.106E+04   0.105E-17 0.217E-18 -.147E+00   -.490E-07 0.875E-07 0.571E-01
   -.106E-02 0.183E-02 -.313E+04   -.606E-04 0.102E-03 0.313E+04   0.454E-18 0.867E-18 -.173E+00   -.392E-07 0.666E-07 -.875E-02
   -.139E-05 0.354E-07 0.456E+03   0.190E-05 -.538E-06 -.456E+03   0.847E-18 -.867E-18 -.721E-01   -.250E-09 -.365E-09 0.182E-03
   -.142E-05 0.485E-07 -.237E+03   0.198E-05 -.562E-06 0.237E+03   0.935E-19 0.000E+00 -.769E-01   0.468E-09 -.151E-08 0.257E-01
   -.133E-05 0.660E-07 -.929E+03   0.184E-05 -.519E-06 0.929E+03   -.461E-18 0.000E+00 -.668E-01   0.141E-08 -.207E-08 -.639E-02
   0.440E-04 -.778E-04 0.687E+03   -.500E-04 0.878E-04 -.687E+03   0.353E-18 -.260E-17 -.112E+00   -.782E-11 0.384E-09 0.891E-03
   0.434E-04 -.773E-04 -.601E+01   -.490E-04 0.874E-04 0.608E+01   -.568E-18 -.434E-18 -.682E-01   0.385E-09 -.605E-10 0.231E-01
   0.430E-04 -.772E-04 -.698E+03   -.486E-04 0.873E-04 0.699E+03   0.962E-18 -.867E-18 -.782E-01   -.129E-08 0.314E-08 -.406E-02
   0.998E-04 -.401E-04 -.137E+04   -.100E-03 0.265E-04 0.137E+04   -.430E-17 0.139E-16 0.684E+00   -.629E-10 0.533E-09 0.264E-01
   -.106E-03 0.415E-04 0.900E+03   0.110E-03 -.286E-04 -.900E+03   -.392E-17 -.139E-16 0.367E+00   0.139E-08 -.185E-08 0.315E-02
   -.462E-04 0.774E-04 0.225E+03   0.520E-04 -.871E-04 -.225E+03   0.934E-19 0.000E+00 -.767E-01   -.163E-09 0.861E-09 0.878E-02
   -.459E-04 0.772E-04 -.468E+03   0.517E-04 -.867E-04 0.468E+03   -.190E-19 0.867E-18 -.735E-01   -.603E-09 0.802E-09 0.110E-01
   -.464E-04 0.773E-04 -.116E+04   0.526E-04 -.867E-04 0.116E+04   -.914E-19 0.000E+00 -.140E-01   -.772E-09 0.639E-10 0.418E-02
   0.402E-05 0.279E-07 0.143E+04   -.118E-04 0.228E-05 -.143E+04   0.868E-17 0.000E+00 -.143E+01   -.667E-10 -.651E-11 -.754E-01
   -.297E-07 0.289E-07 0.139E+04   0.431E-06 -.951E-07 -.139E+04   -.657E-18 0.000E+00 0.556E-02   -.676E-10 0.149E-10 0.257E-02
   -.355E-05 0.293E-07 0.134E+04   0.715E-05 -.146E-05 -.134E+04   -.204E-16 0.000E+00 -.346E+00   0.343E-09 -.417E-10 0.170E-01
   0.154E-04 -.263E-04 0.140E+04   -.454E-05 0.753E-05 -.140E+04   -.171E-17 0.000E+00 -.196E-01   -.271E-09 0.450E-10 -.189E-01
   0.155E-04 -.267E-04 0.135E+04   -.473E-05 0.745E-05 -.135E+04   -.163E-18 0.000E+00 -.144E+00   -.904E-10 0.781E-10 0.229E-01
   -.150E-04 0.260E-04 0.142E+04   0.353E-05 -.727E-05 -.142E+04   0.176E-17 -.278E-16 -.178E-01   -.750E-10 -.815E-10 -.440E-01
   -.154E-04 0.270E-04 0.137E+04   0.422E-05 -.736E-05 -.137E+04   0.503E-18 -.867E-18 -.567E-01   0.293E-10 -.191E-09 0.187E-01
 -----------------------------------------------------------------------------------------------
   -.164E-04 0.133E-05 0.329E+01   0.377E-13 0.106E-14 -.182E-11   -.412E-17 -.301E-16 -.352E+01   -.167E-07 0.245E-07 0.246E+00
 
 
 POSITION                                       TOTAL-FORCE (eV/Angst)
 -----------------------------------------------------------------------------------
     -0.00000      0.00000     36.19032         0.000000      0.000000     -0.005966
      0.86171      1.49253     38.63952         0.000000     -0.000000     -0.002191
     -0.00000      0.00000     43.54499        -0.000000      0.000000      0.012396
      0.86171      1.49253     46.00074        -0.000000     -0.000000     -0.001305
     -0.00000      0.00000     50.91578        -0.000000      0.000000      0.003538
      0.86171      1.49253     53.37310         0.000000     -0.000000      0.009306
     -0.00000      0.00000     58.28650        -0.000000      0.000000      0.005547
      1.72343     -0.00000     41.09152        -0.000000     -0.000000      0.012110
      1.72343     -0.00000     48.45846        -0.000000      0.000000     -0.007890
      1.72343     -0.00000     55.83113        -0.000000     -0.000000      0.006369
     -0.00000      0.00000     39.87041        -0.000000      0.000000      0.001759
     -0.00000      0.00000     47.23474        -0.000000      0.000000      0.004417
     -0.00000      0.00000     54.60683        -0.000000      0.000000      0.003450
      1.72343     -0.00000     37.41788         0.000000      0.000000     -0.003378
      1.72343     -0.00000     44.77744        -0.000000      0.000000      0.021757
      1.72343     -0.00000     52.15002         0.000000      0.000000     -0.015565
      1.72343     -0.00000     59.57330         0.000000      0.000000     -0.006283
      0.86171      1.49253     34.92349         0.000000      0.000000     -0.008867
      0.86171      1.49253     42.32370         0.000000      0.000000     -0.004316
      0.86171      1.49253     49.69210        -0.000000      0.000000      0.003409
      0.86171      1.49253     57.06576         0.000000      0.000000     -0.006316
     -0.00000      0.00000     19.19924         0.000000      0.000000     -0.050101
     -0.00000      0.00000     25.87107        -0.000000      0.000000      0.000910
     -0.00000      0.00000     32.52204        -0.000000      0.000000      0.082725
      1.72343     -0.00000     23.66431         0.000000      0.000000     -0.043948
      1.72343     -0.00000     30.31632         0.000000      0.000000     -0.045975
      0.86171      1.49253     21.44896        -0.000000      0.000000      0.011727
      0.86171      1.49253     28.09438        -0.000000      0.000000      0.022681
 -----------------------------------------------------------------------------------
    total drift:                               -0.000016      0.000001      0.010411


--------------------------------------------------------------------------------------------------------



  FREE ENERGIE OF THE ION-ELECTRON SYSTEM (eV)
  ---------------------------------------------------
  free  energy   TOTEN  =      -144.92896160 eV

  energy  without entropy=     -144.92896160  energy(sigma->0) =     -144.92896160
 


--------------------------------------------------------------------------------------------------------


    POTLOK:  cpu time    0.3197: real time    0.3273


--------------------------------------------------------------------------------------------------------


 stress matrix after NEB project (eV)
      0.68683      0.00000     -0.00000
      0.00000      0.68683      0.00000
      0.00000      0.00000      1.15331
  FORCES: max atom, RMS     0.082725    0.023586
  FORCE total and by dimension    0.124805    0.082725
  Stress total and by dimension    1.507845    1.153311
     LOOP+:  cpu time  858.7978: real time  864.1147
    4ORBIT:  cpu time    0.0000: real time    0.0000
 BZINTS: Fermi energy:  1.391909;103.000000 electrons
         Band energy:-682.493693;  BLOECHL correction: -0.051011

 total amount of memory used by VASP MPI-rank0   202628. kBytes
=======================================================================

   base      :      30000. kBytes
   nonl-proj :      77324. kBytes
   fftplans  :      24923. kBytes
   grid      :      15257. kBytes
   one-center:         56. kBytes
   wavefun   :      55068. kBytes
 
  
  
 General timing and accounting informations for this job:
 ========================================================
  
                  Total CPU time used (sec):      869.979
                            User time (sec):      863.166
                          System time (sec):        6.813
                         Elapsed time (sec):      875.426
  
                   Maximum memory used (kb):      304212.
                   Average memory used (kb):           0.
  
                          Minor page faults:      1325583
                          Major page faults:            0
                 Voluntary context switches:          414
