       N       E                     dE             d eps       ncg     rms          rms(c)
DAV:   1     0.502766976595E+03    0.50277E+03   -0.40928E+04  2620   0.131E+03
DAV:   2    -0.829924829371E+02   -0.58576E+03   -0.55287E+03  3412   0.252E+02
DAV:   3    -0.147065181854E+03   -0.64073E+02   -0.63656E+02  3072   0.897E+01
DAV:   4    -0.148299848534E+03   -0.12347E+01   -0.12315E+01  3072   0.136E+01
DAV:   5    -0.148329762799E+03   -0.29914E-01   -0.29895E-01  3182   0.208E+00    0.221E+01
DAV:   6    -0.132416808547E+03    0.15913E+02   -0.86851E+01  2880   0.284E+01    0.733E+00
DAV:   7    -0.132322683495E+03    0.94125E-01   -0.18543E+00  2910   0.489E+00    0.450E+00
DAV:   8    -0.132222066260E+03    0.10062E+00   -0.44128E-01  3008   0.345E+00    0.788E-01
DAV:   9    -0.132201569563E+03    0.20497E-01   -0.58328E-02  2940   0.905E-01    0.402E-01
DAV:  10    -0.132202887129E+03   -0.13176E-02   -0.31958E-02  3086   0.625E-01    0.278E-01
DAV:  11    -0.132202457139E+03    0.42999E-03   -0.19846E-03  3306   0.266E-01    0.170E-01
DAV:  12    -0.132201655568E+03    0.80157E-03   -0.25419E-03  3530   0.317E-01    0.489E-02
DAV:  13    -0.132201284520E+03    0.37105E-03   -0.63884E-04  3010   0.121E-01    0.352E-02
DAV:  14    -0.132200360581E+03    0.92394E-03   -0.40788E-04  3244   0.194E-01    0.442E-02
DAV:  15    -0.132199922949E+03    0.43763E-03   -0.22720E-04  3356   0.134E-01    0.423E-02
DAV:  16    -0.132198040810E+03    0.18821E-02   -0.29408E-03  4312   0.779E-01    0.500E-02
DAV:  17    -0.132198011728E+03    0.29082E-04   -0.25972E-03  3084   0.295E-01    0.711E-02
DAV:  18    -0.132198003440E+03    0.82885E-05   -0.63086E-04  2866   0.974E-02    0.707E-02
DAV:  19    -0.132197885281E+03    0.11816E-03   -0.53675E-04  3078   0.122E-01    0.186E-02
DAV:  20    -0.132197839812E+03    0.45469E-04   -0.14565E-04  3604   0.140E-01    0.203E-02
DAV:  21    -0.132197814674E+03    0.25137E-04   -0.99865E-05  3270   0.113E-01    0.113E-02
DAV:  22    -0.132197807760E+03    0.69143E-05   -0.88225E-05  3252   0.106E-01
   1 F= -.13219781E+03 E0= -.13219565E+03  d E =-.132198E+03
       N       E                     dE             d eps       ncg     rms          rms(c)
DAV:   1    -0.132199912959E+03   -0.20983E-02   -0.10824E-02  2732   0.444E-01    0.294E-02
DAV:   2    -0.132199917669E+03   -0.47100E-05   -0.64558E-04  3008   0.103E-01    0.301E-02
DAV:   3    -0.132199896416E+03    0.21254E-04   -0.24276E-05  2424   0.260E-02    0.217E-02
DAV:   4    -0.132199854474E+03    0.41941E-04   -0.13045E-04  2886   0.540E-02    0.129E-02
DAV:   5    -0.132199849828E+03    0.46460E-05   -0.18331E-05  2064   0.204E-02    0.108E-02
DAV:   6    -0.132199840135E+03    0.96928E-05   -0.90699E-06  1922   0.161E-02
   2 F= -.13219984E+03 E0= -.13219770E+03  d E =-.203238E-02
       N       E                     dE             d eps       ncg     rms          rms(c)
DAV:   1    -0.132201314703E+03   -0.14649E-02   -0.34142E-02  2690   0.778E-01    0.517E-02
DAV:   2    -0.132201339270E+03   -0.24566E-04   -0.22076E-03  3008   0.192E-01    0.511E-02
DAV:   3    -0.132201273762E+03    0.65508E-04   -0.10944E-04  3022   0.544E-02    0.359E-02
DAV:   4    -0.132201160095E+03    0.11367E-03   -0.22606E-04  2916   0.672E-02    0.170E-02
DAV:   5    -0.132201113445E+03    0.46650E-04   -0.54542E-05  2934   0.409E-02    0.170E-02
DAV:   6    -0.132201064072E+03    0.49373E-04   -0.74459E-05  2822   0.416E-02    0.895E-03
DAV:   7    -0.132201029294E+03    0.34777E-04   -0.20789E-05  2150   0.345E-02    0.978E-03
DAV:   8    -0.132201007505E+03    0.21789E-04   -0.44475E-05  2676   0.507E-02    0.705E-03
DAV:   9    -0.132200986258E+03    0.21247E-04   -0.11995E-05  2160   0.538E-02    0.646E-03
DAV:  10    -0.132200972580E+03    0.13678E-04   -0.12380E-05  2062   0.414E-02    0.352E-03
DAV:  11    -0.132200960698E+03    0.11882E-04   -0.97670E-06  1994   0.477E-02    0.671E-03
DAV:  12    -0.132200951413E+03    0.92844E-05   -0.15304E-05  2166   0.617E-02
   3 F= -.13220095E+03 E0= -.13219890E+03  d E =-.314365E-02
       N       E                     dE             d eps       ncg     rms          rms(c)
DAV:   1    -0.132201906484E+03   -0.94579E-03   -0.28943E-01  2644   0.217E+00    0.679E-02
DAV:   2    -0.132202404402E+03   -0.49792E-03   -0.58389E-03  2880   0.286E-01    0.375E-02
DAV:   3    -0.132202364223E+03    0.40180E-04   -0.66324E-05  2966   0.437E-02    0.257E-02
DAV:   4    -0.132202331094E+03    0.33129E-04   -0.83750E-05  2896   0.568E-02    0.859E-03
DAV:   5    -0.132202329189E+03    0.19050E-05   -0.37583E-05  2660   0.305E-02    0.733E-03
DAV:   6    -0.132202328573E+03    0.61621E-06   -0.46095E-06  1554   0.978E-03
   4 F= -.13220233E+03 E0= -.13220032E+03  d E =-.137716E-02
       N       E                     dE             d eps       ncg     rms          rms(c)
DAV:   1    -0.132200193851E+03    0.21353E-02   -0.25952E+00  2620   0.650E+00    0.202E-01
DAV:   2    -0.132204640224E+03   -0.44464E-02   -0.52187E-02  2856   0.848E-01    0.118E-01
DAV:   3    -0.132204264098E+03    0.37613E-03   -0.64505E-04  3020   0.144E-01    0.775E-02
DAV:   4    -0.132203989754E+03    0.27434E-03   -0.57112E-04  3088   0.160E-01    0.290E-02
DAV:   5    -0.132203955443E+03    0.34311E-04   -0.31911E-04  2994   0.965E-02    0.181E-02
DAV:   6    -0.132203940463E+03    0.14980E-04   -0.49417E-05  2794   0.349E-02    0.142E-02
DAV:   7    -0.132203916836E+03    0.23627E-04   -0.16658E-05  1948   0.251E-02    0.627E-03
DAV:   8    -0.132203894925E+03    0.21911E-04   -0.19726E-05  2270   0.423E-02    0.642E-03
DAV:   9    -0.132203883519E+03    0.11406E-04   -0.39245E-05  2678   0.572E-02    0.527E-03
DAV:  10    -0.132203881870E+03    0.16496E-05   -0.20301E-05  2286   0.248E-02
   5 F= -.13220388E+03 E0= -.13220189E+03  d E =-.293046E-02
       N       E                     dE             d eps       ncg     rms          rms(c)
DAV:   1    -0.132204652723E+03   -0.76920E-03   -0.47852E-01  2650   0.286E+00    0.945E-02
DAV:   2    -0.132205611881E+03   -0.95916E-03   -0.11129E-02  2890   0.411E-01    0.550E-02
DAV:   3    -0.132205553858E+03    0.58022E-04   -0.19469E-04  2970   0.658E-02    0.421E-02
DAV:   4    -0.132205501176E+03    0.52682E-04   -0.16258E-04  2908   0.665E-02    0.170E-02
DAV:   5    -0.132205484016E+03    0.17161E-04   -0.55499E-05  2824   0.477E-02    0.165E-02
DAV:   6    -0.132205469516E+03    0.14500E-04   -0.39243E-05  2562   0.440E-02    0.654E-03
DAV:   7    -0.132205462441E+03    0.70756E-05   -0.29526E-05  2412   0.393E-02
   6 F= -.13220546E+03 E0= -.13220348E+03  d E =-.158057E-02
       N       E                     dE             d eps       ncg     rms          rms(c)
DAV:   1    -0.132204388830E+03    0.10807E-02   -0.10474E+00  2636   0.425E+00    0.137E-01
DAV:   2    -0.132206488291E+03   -0.20995E-02   -0.24232E-02  2890   0.609E-01    0.822E-02
DAV:   3    -0.132206347770E+03    0.14052E-03   -0.40450E-04  3034   0.964E-02    0.622E-02
DAV:   4    -0.132206211255E+03    0.13652E-03   -0.33084E-04  2932   0.997E-02    0.251E-02
DAV:   5    -0.132206158531E+03    0.52724E-04   -0.13170E-04  2942   0.780E-02    0.232E-02
DAV:   6    -0.132206117207E+03    0.41324E-04   -0.81141E-05  2880   0.666E-02    0.102E-02
DAV:   7    -0.132206083585E+03    0.33622E-04   -0.58307E-05  2868   0.728E-02    0.140E-02
DAV:   8    -0.132206040625E+03    0.42960E-04   -0.17137E-05  2042   0.777E-02    0.103E-02
DAV:   9    -0.132205996381E+03    0.44244E-04   -0.44948E-05  2924   0.958E-02    0.847E-03
DAV:  10    -0.132205956971E+03    0.39409E-04   -0.35133E-05  2666   0.915E-02    0.756E-03
DAV:  11    -0.132205928802E+03    0.28170E-04   -0.65602E-05  3150   0.124E-01    0.101E-02
DAV:  12    -0.132205931737E+03   -0.29351E-05   -0.11994E-04  2726   0.669E-02    0.462E-03
DAV:  13    -0.132205934053E+03   -0.23159E-05   -0.48996E-05  2484   0.253E-02
   7 F= -.13220593E+03 E0= -.13220394E+03  d E =-.205218E-02
       N       E                     dE             d eps       ncg     rms          rms(c)
DAV:   1    -0.132206558767E+03   -0.62703E-03   -0.36840E-01  2632   0.250E+00    0.775E-02
DAV:   2    -0.132207259688E+03   -0.70092E-03   -0.77427E-03  2832   0.337E-01    0.443E-02
DAV:   3    -0.132207220874E+03    0.38814E-04   -0.10696E-04  2984   0.547E-02    0.316E-02
DAV:   4    -0.132207193954E+03    0.26921E-04   -0.13145E-04  2906   0.665E-02    0.133E-02
DAV:   5    -0.132207193605E+03    0.34865E-06   -0.48366E-05  2640   0.342E-02    0.146E-02
DAV:   6    -0.132207190899E+03    0.27061E-05   -0.94990E-06  1518   0.156E-02
   8 F= -.13220719E+03 E0= -.13220519E+03  d E =-.125685E-02
       N       E                     dE             d eps       ncg     rms          rms(c)
DAV:   1    -0.132203534247E+03    0.36594E-02   -0.33198E+00  2620   0.753E+00    0.234E-01
DAV:   2    -0.132209900601E+03   -0.63664E-02   -0.70126E-02  2832   0.101E+00    0.134E-01
DAV:   3    -0.132209549867E+03    0.35073E-03   -0.91684E-04  3046   0.157E-01    0.943E-02
DAV:   4    -0.132209319408E+03    0.23046E-03   -0.13074E-03  2986   0.206E-01    0.399E-02
DAV:   5    -0.132209324669E+03   -0.52604E-05   -0.41288E-04  2930   0.950E-02    0.449E-02
DAV:   6    -0.132209300967E+03    0.23702E-04   -0.89837E-05  2780   0.439E-02    0.263E-02
DAV:   7    -0.132209282498E+03    0.18469E-04   -0.62573E-05  2804   0.442E-02    0.950E-03
DAV:   8    -0.132209276789E+03    0.57087E-05   -0.36904E-05  2602   0.405E-02
   9 F= -.13220928E+03 E0= -.13220732E+03  d E =-.334274E-02
       N       E                     dE             d eps       ncg     rms          rms(c)
DAV:   1    -0.132211029078E+03   -0.17466E-02   -0.14397E-01  2640   0.159E+00    0.664E-02
DAV:   2    -0.132211298897E+03   -0.26982E-03   -0.42378E-03  2962   0.277E-01    0.473E-02
DAV:   3    -0.132211252267E+03    0.46629E-04   -0.16990E-04  2968   0.678E-02    0.351E-02
DAV:   4    -0.132211212951E+03    0.39317E-04   -0.97975E-05  2846   0.468E-02    0.168E-02
DAV:   5    -0.132211181762E+03    0.31189E-04   -0.37443E-05  2842   0.497E-02    0.131E-02
DAV:   6    -0.132211156920E+03    0.24842E-04   -0.26289E-05  2532   0.600E-02    0.980E-03
DAV:   7    -0.132211142550E+03    0.14370E-04   -0.49492E-05  2556   0.578E-02    0.751E-03
DAV:   8    -0.132211134059E+03    0.84905E-05   -0.18842E-05  2050   0.308E-02
  10 F= -.13221113E+03 E0= -.13220923E+03  d E =-.185727E-02
       N       E                     dE             d eps       ncg     rms          rms(c)
DAV:   1    -0.132211558682E+03   -0.41613E-03   -0.13435E-01  2628   0.154E+00    0.618E-02
DAV:   2    -0.132211816724E+03   -0.25804E-03   -0.38186E-03  2968   0.261E-01    0.439E-02
DAV:   3    -0.132211774970E+03    0.41754E-04   -0.13727E-04  2964   0.612E-02    0.321E-02
DAV:   4    -0.132211740587E+03    0.34383E-04   -0.89615E-05  2860   0.439E-02    0.148E-02
DAV:   5    -0.132211715133E+03    0.25454E-04   -0.26018E-05  2486   0.427E-02    0.117E-02
DAV:   6    -0.132211692131E+03    0.23002E-04   -0.19709E-05  2364   0.569E-02    0.905E-03
DAV:   7    -0.132211677774E+03    0.14357E-04   -0.42979E-05  2488   0.567E-02    0.670E-03
DAV:   8    -0.132211669548E+03    0.82269E-05   -0.19229E-05  1994   0.308E-02
  11 F= -.13221167E+03 E0= -.13220983E+03  d E =-.239276E-02
       N       E                     dE             d eps       ncg     rms          rms(c)
DAV:   1    -0.132212406865E+03   -0.72909E-03   -0.54204E-01  2654   0.299E+00    0.930E-02
DAV:   2    -0.132213330076E+03   -0.92321E-03   -0.10791E-02  2904   0.406E-01    0.568E-02
DAV:   3    -0.132213238342E+03    0.91734E-04   -0.14107E-04  3102   0.734E-02    0.374E-02
DAV:   4    -0.132213154054E+03    0.84288E-04   -0.23136E-04  3086   0.116E-01    0.154E-02
DAV:   5    -0.132213152627E+03    0.14269E-05   -0.14002E-04  2940   0.549E-02    0.168E-02
DAV:   6    -0.132213153721E+03   -0.10936E-05   -0.80928E-06  1630   0.112E-02
  12 F= -.13221315E+03 E0= -.13221139E+03  d E =-.148417E-02
       N       E                     dE             d eps       ncg     rms          rms(c)
DAV:   1    -0.132212193533E+03    0.95909E-03   -0.12995E+00  2630   0.463E+00    0.142E-01
DAV:   2    -0.132214324861E+03   -0.21313E-02   -0.25343E-02  2918   0.623E-01    0.892E-02
DAV:   3    -0.132214084297E+03    0.24056E-03   -0.31870E-04  3078   0.121E-01    0.588E-02
DAV:   4    -0.132213815908E+03    0.26839E-03   -0.57956E-04  3308   0.210E-01    0.252E-02
DAV:   5    -0.132213807027E+03    0.88814E-05   -0.43289E-04  2948   0.102E-01    0.267E-02
DAV:   6    -0.132213811083E+03   -0.40560E-05   -0.41552E-05  2328   0.235E-02
  13 F= -.13221381E+03 E0= -.13221219E+03  d E =-.214154E-02
       N       E                     dE             d eps       ncg     rms          rms(c)
DAV:   1    -0.132214146115E+03   -0.33909E-03   -0.70006E-01  2642   0.354E+00    0.121E-01
DAV:   2    -0.132215536054E+03   -0.13899E-02   -0.16137E-02  2882   0.507E-01    0.694E-02
DAV:   3    -0.132215441501E+03    0.94553E-04   -0.22204E-04  3114   0.825E-02    0.499E-02
DAV:   4    -0.132215359730E+03    0.81771E-04   -0.26501E-04  3032   0.115E-01    0.231E-02
DAV:   5    -0.132215348372E+03    0.11358E-04   -0.17716E-04  3148   0.765E-02    0.244E-02
DAV:   6    -0.132215334723E+03    0.13649E-04   -0.39526E-05  2522   0.276E-02    0.148E-02
DAV:   7    -0.132215321344E+03    0.13379E-04   -0.13092E-05  1698   0.189E-02    0.678E-03
DAV:   8    -0.132215306945E+03    0.14398E-04   -0.40560E-05  2680   0.385E-02    0.158E-02
DAV:   9    -0.132215286833E+03    0.20112E-04   -0.50882E-05  2770   0.741E-02    0.100E-02
DAV:  10    -0.132215282670E+03    0.41633E-05   -0.67888E-05  2968   0.521E-02
  14 F= -.13221528E+03 E0= -.13221382E+03  d E =-.147159E-02
       N       E                     dE             d eps       ncg     rms          rms(c)
DAV:   1    -0.132214380492E+03    0.90634E-03   -0.91904E-01  2642   0.405E+00    0.135E-01
DAV:   2    -0.132216194764E+03   -0.18143E-02   -0.21097E-02  2876   0.583E-01    0.788E-02
DAV:   3    -0.132216078169E+03    0.11660E-03   -0.35038E-04  3090   0.903E-02    0.582E-02
DAV:   4    -0.132215983200E+03    0.94969E-04   -0.32575E-04  2966   0.103E-01    0.263E-02
DAV:   5    -0.132215958992E+03    0.24207E-04   -0.14861E-04  3034   0.619E-02    0.244E-02
DAV:   6    -0.132215933454E+03    0.25539E-04   -0.47537E-05  2804   0.309E-02    0.103E-02
DAV:   7    -0.132215918696E+03    0.14757E-04   -0.15200E-05  1904   0.199E-02    0.819E-03
DAV:   8    -0.132215882027E+03    0.36670E-04   -0.10975E-05  2126   0.574E-02    0.119E-02
DAV:   9    -0.132215859652E+03    0.22374E-04   -0.23749E-05  2430   0.527E-02    0.810E-03
DAV:  10    -0.132215836624E+03    0.23029E-04   -0.11916E-04  3444   0.121E-01    0.198E-02
DAV:  11    -0.132215828787E+03    0.78368E-05   -0.80823E-05  3006   0.712E-02
  15 F= -.13221583E+03 E0= -.13221447E+03  d E =-.201770E-02
       N       E                     dE             d eps       ncg     rms          rms(c)
DAV:   1    -0.132216532326E+03   -0.69570E-03   -0.48709E-01  2664   0.297E+00    0.103E-01
DAV:   2    -0.132217240850E+03   -0.70852E-03   -0.10824E-02  2894   0.453E-01    0.603E-02
DAV:   3    -0.132217135650E+03    0.10520E-03   -0.57930E-04  3116   0.123E-01    0.471E-02
DAV:   4    -0.132217045675E+03    0.89975E-04   -0.10633E-04  2914   0.563E-02    0.289E-02
DAV:   5    -0.132216916418E+03    0.12926E-03   -0.11902E-04  2864   0.107E-01    0.182E-02
DAV:   6    -0.132216849189E+03    0.67229E-04   -0.12309E-04  3304   0.111E-01    0.155E-02
DAV:   7    -0.132216810672E+03    0.38517E-04   -0.14382E-04  3210   0.115E-01    0.126E-02
DAV:   8    -0.132216781109E+03    0.29563E-04   -0.35254E-05  2588   0.788E-02    0.900E-03
DAV:   9    -0.132216760248E+03    0.20861E-04   -0.24020E-05  2344   0.540E-02    0.437E-03
DAV:  10    -0.132216743617E+03    0.16631E-04   -0.10853E-05  1982   0.604E-02    0.475E-03
DAV:  11    -0.132216739441E+03    0.41761E-05   -0.36707E-05  2498   0.385E-02
  16 F= -.13221674E+03 E0= -.13221543E+03  d E =-.910654E-03
       N       E                     dE             d eps       ncg     rms          rms(c)
DAV:   1    -0.132216793617E+03   -0.50000E-04   -0.19080E-02  2664   0.587E-01    0.195E-02
DAV:   2    -0.132216817669E+03   -0.24052E-04   -0.40698E-04  2880   0.874E-02    0.124E-02
DAV:   3    -0.132216812354E+03    0.53150E-05   -0.20904E-05  2226   0.240E-02    0.930E-03
DAV:   4    -0.132216807461E+03    0.48923E-05   -0.47569E-06  1640   0.130E-02    0.584E-03
DAV:   5    -0.132216800511E+03    0.69500E-05   -0.91356E-06  1916   0.239E-02    0.406E-03
DAV:   6    -0.132216798479E+03    0.20321E-05   -0.97766E-06  1898   0.200E-02
  17 F= -.13221680E+03 E0= -.13221549E+03  d E =-.969692E-03
       N       E                     dE             d eps       ncg     rms          rms(c)
DAV:   1    -0.132217242731E+03   -0.44222E-03   -0.14588E-01  2618   0.158E+00    0.478E-02
DAV:   2    -0.132217463507E+03   -0.22078E-03   -0.29631E-03  2984   0.218E-01    0.319E-02
DAV:   3    -0.132217433900E+03    0.29607E-04   -0.47732E-05  3000   0.365E-02    0.231E-02
DAV:   4    -0.132217400126E+03    0.33774E-04   -0.11623E-04  2942   0.600E-02    0.110E-02
DAV:   5    -0.132217398158E+03    0.19686E-05   -0.37187E-05  2814   0.267E-02    0.118E-02
DAV:   6    -0.132217395966E+03    0.21916E-05   -0.50210E-06  1560   0.102E-02
  18 F= -.13221740E+03 E0= -.13221608E+03  d E =-.597487E-03
       N       E                     dE             d eps       ncg     rms          rms(c)
DAV:   1    -0.132217419654E+03   -0.21496E-04   -0.48938E-02  2648   0.914E-01    0.287E-02
DAV:   2    -0.132217493844E+03   -0.74191E-04   -0.10446E-03  2992   0.131E-01    0.201E-02
DAV:   3    -0.132217480899E+03    0.12946E-04   -0.20405E-05  2162   0.255E-02    0.143E-02
DAV:   4    -0.132217464111E+03    0.16787E-04   -0.46100E-05  2708   0.359E-02    0.731E-03
DAV:   5    -0.132217461255E+03    0.28560E-05   -0.13163E-05  1842   0.178E-02    0.753E-03
DAV:   6    -0.132217458678E+03    0.25773E-05   -0.70390E-06  1590   0.137E-02
  19 F= -.13221746E+03 E0= -.13221616E+03  d E =-.660199E-03
       N       E                     dE             d eps       ncg     rms          rms(c)
DAV:   1    -0.132217739120E+03   -0.27787E-03   -0.19063E-01  2688   0.186E+00    0.596E-02
DAV:   2    -0.132218090395E+03   -0.35127E-03   -0.41547E-03  2922   0.263E-01    0.319E-02
DAV:   3    -0.132218066615E+03    0.23780E-04   -0.70981E-05  3084   0.420E-02    0.219E-02
DAV:   4    -0.132218046484E+03    0.20131E-04   -0.38740E-05  2762   0.401E-02    0.987E-03
DAV:   5    -0.132218041517E+03    0.49672E-05   -0.23648E-05  2408   0.328E-02    0.765E-03
DAV:   6    -0.132218040080E+03    0.14374E-05   -0.14168E-05  1624   0.212E-02
  20 F= -.13221804E+03 E0= -.13221676E+03  d E =-.581402E-03
       N       E                     dE             d eps       ncg     rms          rms(c)
DAV:   1    -0.132217734060E+03    0.30746E-03   -0.36365E-01  2688   0.257E+00    0.810E-02
DAV:   2    -0.132218397393E+03   -0.66333E-03   -0.77874E-03  2894   0.360E-01    0.448E-02
DAV:   3    -0.132218345885E+03    0.51509E-04   -0.11608E-04  3116   0.595E-02    0.305E-02
DAV:   4    -0.132218294331E+03    0.51554E-04   -0.80771E-05  2936   0.706E-02    0.128E-02
DAV:   5    -0.132218284096E+03    0.10235E-04   -0.66260E-05  2928   0.523E-02    0.109E-02
DAV:   6    -0.132218282049E+03    0.20466E-05   -0.27572E-05  2196   0.240E-02
  21 F= -.13221828E+03 E0= -.13221700E+03  d E =-.823371E-03
       N       E                     dE             d eps       ncg     rms          rms(c)
DAV:   1    -0.132218466379E+03   -0.18228E-03   -0.99195E-02  2612   0.130E+00    0.434E-02
DAV:   2    -0.132218649906E+03   -0.18353E-03   -0.21379E-03  2874   0.178E-01    0.221E-02
DAV:   3    -0.132218637419E+03    0.12487E-04   -0.23911E-05  2358   0.241E-02    0.153E-02
DAV:   4    -0.132218625210E+03    0.12209E-04   -0.21288E-05  2370   0.332E-02    0.568E-03
DAV:   5    -0.132218621951E+03    0.32593E-05   -0.16356E-05  1922   0.215E-02    0.486E-03
DAV:   6    -0.132218620316E+03    0.16345E-05   -0.27689E-06  1542   0.827E-03
  22 F= -.13221862E+03 E0= -.13221736E+03  d E =-.338267E-03
       N       E                     dE             d eps       ncg     rms          rms(c)
DAV:   1    -0.132217756086E+03    0.86587E-03   -0.79603E-01  2620   0.369E+00    0.116E-01
DAV:   2    -0.132219221077E+03   -0.14650E-02   -0.17058E-02  2894   0.504E-01    0.637E-02
DAV:   3    -0.132219127428E+03    0.93648E-04   -0.23668E-04  3110   0.725E-02    0.445E-02
DAV:   4    -0.132219055645E+03    0.71783E-04   -0.14483E-04  2942   0.689E-02    0.191E-02
DAV:   5    -0.132219037183E+03    0.18462E-04   -0.82976E-05  2898   0.439E-02    0.118E-02
DAV:   6    -0.132219029103E+03    0.80804E-05   -0.17312E-05  2038   0.188E-02
  23 F= -.13221903E+03 E0= -.13221777E+03  d E =-.747053E-03
       N       E                     dE             d eps       ncg     rms          rms(c)
DAV:   1    -0.132219231365E+03   -0.19418E-03   -0.15727E-02  2676   0.531E-01    0.180E-02
DAV:   2    -0.132219252916E+03   -0.21551E-04   -0.35635E-04  2944   0.803E-02    0.128E-02
DAV:   3    -0.132219247179E+03    0.57368E-05   -0.10863E-05  1818   0.195E-02    0.985E-03
DAV:   4    -0.132219240498E+03    0.66814E-05   -0.99688E-06  1806   0.198E-02    0.465E-03
DAV:   5    -0.132219236973E+03    0.35251E-05   -0.78907E-06  1860   0.196E-02    0.401E-03
DAV:   6    -0.132219235067E+03    0.19062E-05   -0.77729E-06  1802   0.213E-02
  24 F= -.13221924E+03 E0= -.13221796E+03  d E =-.205964E-03
       N       E                     dE             d eps       ncg     rms          rms(c)
DAV:   1    -0.132219321626E+03   -0.84653E-04   -0.34386E-02  2640   0.786E-01    0.272E-02
DAV:   2    -0.132219375622E+03   -0.53996E-04   -0.81865E-04  2914   0.123E-01    0.195E-02
DAV:   3    -0.132219364465E+03    0.11157E-04   -0.30982E-05  2614   0.313E-02    0.151E-02
DAV:   4    -0.132219353790E+03    0.10675E-04   -0.12710E-05  1720   0.227E-02    0.818E-03
DAV:   5    -0.132219343206E+03    0.10583E-04   -0.11311E-05  1906   0.338E-02    0.557E-03
DAV:   6    -0.132219335996E+03    0.72104E-05   -0.11173E-05  2030   0.382E-02
  25 F= -.13221934E+03 E0= -.13221807E+03  d E =-.306893E-03
       N       E                     dE             d eps       ncg     rms          rms(c)
DAV:   1    -0.132219506262E+03   -0.16306E-03   -0.16520E-02  2710   0.543E-01    0.228E-02
DAV:   2    -0.132219524785E+03   -0.18523E-04   -0.41954E-04  2980   0.875E-02    0.153E-02
DAV:   3    -0.132219517127E+03    0.76581E-05   -0.13708E-05  2010   0.180E-02    0.101E-02
DAV:   4    -0.132219508161E+03    0.89662E-05   -0.11972E-05  1778   0.167E-02    0.530E-03
DAV:   5    -0.132219503258E+03    0.49034E-05   -0.30718E-06  1668   0.135E-02    0.394E-03
DAV:   6    -0.132219490266E+03    0.12992E-04   -0.58114E-06  1940   0.353E-02    0.244E-03
DAV:   7    -0.132219484895E+03    0.53709E-05   -0.14140E-05  2074   0.247E-02
  26 F= -.13221948E+03 E0= -.13221823E+03  d E =-.148899E-03
       N       E                     dE             d eps       ncg     rms          rms(c)
DAV:   1    -0.132219512736E+03   -0.22470E-04   -0.71261E-03  2808   0.356E-01    0.152E-02
DAV:   2    -0.132219518935E+03   -0.61990E-05   -0.16651E-04  2984   0.551E-02    0.776E-03
DAV:   3    -0.132219515173E+03    0.37621E-05   -0.51751E-06  1638   0.112E-02    0.537E-03
DAV:   4    -0.132219510256E+03    0.49171E-05   -0.28722E-06  1754   0.106E-02    0.325E-03
DAV:   5    -0.132219504599E+03    0.56567E-05   -0.25180E-06  1758   0.151E-02    0.280E-03
DAV:   6    -0.132219493897E+03    0.10702E-04   -0.77669E-06  2020   0.399E-02    0.269E-03
DAV:   7    -0.132219490892E+03    0.30050E-05   -0.15804E-05  2096   0.249E-02
  27 F= -.13221949E+03 E0= -.13221826E+03  d E =-.154896E-03
       N       E                     dE             d eps       ncg     rms          rms(c)
DAV:   1    -0.132219596318E+03   -0.10242E-03   -0.57173E-02  2796   0.100E+00    0.335E-02
DAV:   2    -0.132219699000E+03   -0.10268E-03   -0.12112E-03  2910   0.143E-01    0.181E-02
DAV:   3    -0.132219689756E+03    0.92441E-05   -0.19180E-05  2118   0.252E-02    0.115E-02
DAV:   4    -0.132219681016E+03    0.87396E-05   -0.11711E-05  1852   0.280E-02    0.485E-03
DAV:   5    -0.132219679243E+03    0.17732E-05   -0.11237E-05  1600   0.220E-02    0.344E-03
DAV:   6    -0.132219679001E+03    0.24161E-06   -0.52103E-06  1518   0.114E-02
  28 F= -.13221968E+03 E0= -.13221848E+03  d E =-.188109E-03
       N       E                     dE             d eps       ncg     rms          rms(c)
DAV:   1    -0.132219642011E+03    0.37232E-04   -0.64420E-02  2796   0.107E+00    0.341E-02
DAV:   2    -0.132219749674E+03   -0.10766E-03   -0.13456E-03  2912   0.152E-01    0.203E-02
DAV:   3    -0.132219734601E+03    0.15073E-04   -0.22571E-05  2214   0.332E-02    0.137E-02
DAV:   4    -0.132219713666E+03    0.20935E-04   -0.14349E-05  2186   0.453E-02    0.658E-03
DAV:   5    -0.132219703860E+03    0.98063E-05   -0.20863E-05  2128   0.386E-02    0.459E-03
DAV:   6    -0.132219698937E+03    0.49232E-05   -0.17069E-05  1790   0.293E-02
  29 F= -.13221970E+03 E0= -.13221854E+03  d E =-.208045E-03
       N       E                     dE             d eps       ncg     rms          rms(c)
DAV:   1    -0.132219704352E+03   -0.49166E-06   -0.92844E-02  2706   0.127E+00    0.392E-02
DAV:   2    -0.132219861383E+03   -0.15703E-03   -0.19949E-03  2916   0.177E-01    0.247E-02
DAV:   3    -0.132219841679E+03    0.19704E-04   -0.34169E-05  2764   0.271E-02    0.176E-02
DAV:   4    -0.132219819092E+03    0.22587E-04   -0.17447E-05  2012   0.302E-02    0.870E-03
DAV:   5    -0.132219803422E+03    0.15670E-04   -0.17354E-05  2118   0.312E-02    0.570E-03
DAV:   6    -0.132219788408E+03    0.15014E-04   -0.10817E-05  1888   0.318E-02    0.367E-03
DAV:   7    -0.132219771023E+03    0.17385E-04   -0.80876E-06  1920   0.398E-02    0.671E-03
DAV:   8    -0.132219739351E+03    0.31671E-04   -0.27825E-05  2476   0.877E-02    0.477E-03
DAV:   9    -0.132219730821E+03    0.85306E-05   -0.63766E-05  2908   0.672E-02
  30 F= -.13221973E+03 E0= -.13221858E+03  d E =-.318841E-04
       N       E                     dE             d eps       ncg     rms          rms(c)
DAV:   1    -0.132219680903E+03    0.58448E-04   -0.27159E-02  2824   0.681E-01    0.223E-02
DAV:   2    -0.132219730209E+03   -0.49305E-04   -0.59125E-04  2880   0.940E-02    0.125E-02
DAV:   3    -0.132219725749E+03    0.44598E-05   -0.70290E-06  1794   0.137E-02    0.863E-03
DAV:   4    -0.132219721976E+03    0.37729E-05   -0.15276E-05  1986   0.195E-02    0.311E-03
DAV:   5    -0.132219721953E+03    0.23226E-07   -0.44227E-06  1458   0.877E-03    0.291E-03
DAV:   6    -0.132219721659E+03    0.29407E-06   -0.69672E-07  1428   0.385E-03
  31 F= -.13221972E+03 E0= -.13221854E+03  d E =-.227219E-04
       N       E                     dE             d eps       ncg     rms          rms(c)
DAV:   1    -0.132219875580E+03   -0.15363E-03   -0.32688E-02  2756   0.745E-01    0.260E-02
DAV:   2    -0.132219916671E+03   -0.41090E-04   -0.74223E-04  2876   0.118E-01    0.167E-02
DAV:   3    -0.132219907481E+03    0.91903E-05   -0.42753E-05  2814   0.325E-02    0.136E-02
DAV:   4    -0.132219900163E+03    0.73180E-05   -0.64318E-06  1534   0.138E-02    0.836E-03
DAV:   5    -0.132219886918E+03    0.13244E-04   -0.19262E-05  2338   0.379E-02    0.673E-03
DAV:   6    -0.132219884113E+03    0.28049E-05   -0.11013E-05  1638   0.213E-02
  32 F= -.13221988E+03 E0= -.13221871E+03  d E =-.162455E-03
       N       E                     dE             d eps       ncg     rms          rms(c)
DAV:   1    -0.132219884249E+03    0.26694E-05   -0.12783E-03  2704   0.151E-01    0.611E-03
DAV:   2    -0.132219884398E+03   -0.14966E-06   -0.45478E-05  2702   0.303E-02    0.662E-03
DAV:   3    -0.132219882580E+03    0.18180E-05   -0.23113E-06  1500   0.820E-03    0.534E-03
DAV:   4    -0.132219877677E+03    0.49032E-05   -0.45293E-06  1650   0.162E-02    0.281E-03
DAV:   5    -0.132219875697E+03    0.19797E-05   -0.19216E-06  1576   0.123E-02    0.302E-03
DAV:   6    -0.132219871957E+03    0.37404E-05   -0.61184E-06  1710   0.352E-02
  33 F= -.13221987E+03 E0= -.13221870E+03  d E =-.150298E-03
       N       E                     dE             d eps       ncg     rms          rms(c)
DAV:   1    -0.132219868223E+03    0.74742E-05   -0.10208E-04  2710   0.614E-02    0.312E-03
DAV:   2    -0.132219869170E+03   -0.94690E-06   -0.18320E-05  1794   0.167E-02    0.576E-03
DAV:   3    -0.132219869512E+03   -0.34179E-06   -0.13092E-06  1476   0.424E-03    0.641E-03
DAV:   4    -0.132219869476E+03    0.36322E-07   -0.22961E-07  1410   0.163E-03    0.663E-03
DAV:   5    -0.132219868953E+03    0.52287E-06   -0.32230E-07  1392   0.268E-03    0.520E-03
DAV:   6    -0.132219867956E+03    0.99717E-06   -0.10292E-05  1592   0.136E-02
  34 F= -.13221987E+03 E0= -.13221870E+03  d E =-.146297E-03
       N       E                     dE             d eps       ncg     rms          rms(c)
DAV:   1    -0.132219868698E+03    0.25462E-06   -0.16741E-04  2444   0.529E-02    0.538E-03
DAV:   2    -0.132219868293E+03    0.40503E-06   -0.52160E-06  1364   0.101E-02    0.226E-03
DAV:   3    -0.132219868066E+03    0.22743E-06   -0.13695E-06  1374   0.470E-03    0.103E-03
DAV:   4    -0.132219867882E+03    0.18332E-06   -0.14833E-07  1374   0.290E-03    0.685E-04
DAV:   5    -0.132219867460E+03    0.42229E-06   -0.95102E-07  1638   0.645E-03    0.164E-03
DAV:   6    -0.132219867372E+03    0.88001E-07   -0.41097E-07  1416   0.319E-03
  35 F= -.13221987E+03 E0= -.13221870E+03  d E =-.145713E-03
