 vasp.5.3.5 31Mar14 (build Apr 08 2024 10:12:10) complex                        
  
 executed on             LinuxIFC date 2024.07.29  20:50:08
 running on    8 total cores
 distrk:  each k-point on    8 cores,    1 groups
 distr:  one band on NCORES_PER_BAND=   4 cores,    2 groups


--------------------------------------------------------------------------------------------------------


 INCAR:
 POTCAR:    PAW_PBE O 08Apr2002                   
 POTCAR:    PAW_PBE Mg 13Apr2007                  
 POTCAR:    PAW_PBE Al 04Jan2001                  
 POTCAR:    PAW_PBE O 08Apr2002                   
   VRHFIN =O: s2p4                                                              
   LEXCH  = PE                                                                  
   EATOM  =   432.3788 eV,   31.7789 Ry                                         
                                                                                
   TITEL  = PAW_PBE O 08Apr2002                                                 
   LULTRA =        F    use ultrasoft PP ?                                      
   IUNSCR =        1    unscreen: 0-lin 1-nonlin 2-no                           
   RPACOR =    1.200    partial core radius                                     
   POMASS =   16.000; ZVAL   =    6.000    mass and valenz                      
   RCORE  =    1.520    outmost cutoff radius                                   
   RWIGS  =    1.550; RWIGS  =    0.820    wigner-seitz radius (au A)           
   ENMAX  =  400.000; ENMIN  =  300.000 eV                                      
   ICORE  =        2    local potential                                         
   LCOR   =        T    correct aug charges                                     
   LPAW   =        T    paw PP                                                  
   EAUG   =  605.392                                                            
   DEXC   =    0.000                                                            
   RMAX   =    1.553    core radius for proj-oper                               
   RAUG   =    1.300    factor for augmentation sphere                          
   RDEP   =    1.550    radius for radial grids                                 
   RDEPT  =    1.329    core radius for aug-charge                              
                                                                                
   Atomic configuration                                                         
    4 entries                                                                   
     n  l   j            E        occ.                                          
     1  0  0.50      -514.6923   2.0000                                         
     2  0  0.50       -23.9615   2.0000                                         
     2  1  0.50        -9.0305   4.0000                                         
     3  2  1.50        -9.5241   0.0000                                         
   Description                                                                  
     l       E           TYP  RCUT    TYP  RCUT                                 
     0    -23.9615318     23  1.200                                             
     0     -9.5240782     23  1.200                                             
     1     -9.0304911     23  1.520                                             
     1      8.1634956     23  1.520                                             
     2     -9.5240782      7  1.500                                             
  local pseudopotential read in
  partial core-charges read in
  partial kinetic energy density read in
  kinetic energy density of atom read in
  atomic valenz-charges read in
  non local Contribution for L=           0  read in
    real space projection operators read in
  non local Contribution for L=           0  read in
    real space projection operators read in
  non local Contribution for L=           1  read in
    real space projection operators read in
  non local Contribution for L=           1  read in
    real space projection operators read in
    PAW grid and wavefunctions read in
 
   number of l-projection  operators is LMAX  =           4
   number of lm-projection operators is LMMAX =           8
 
 POTCAR:    PAW_PBE Mg 13Apr2007                  
   VRHFIN =Mg: s2p0                                                             
   LEXCH  = PE                                                                  
   EATOM  =    23.0369 eV,    1.6932 Ry                                         
                                                                                
   TITEL  = PAW_PBE Mg 13Apr2007                                                
   LULTRA =        F    use ultrasoft PP ?                                      
   IUNSCR =        1    unscreen: 0-lin 1-nonlin 2-no                           
   RPACOR =    1.500    partial core radius                                     
   POMASS =   24.305; ZVAL   =    2.000    mass and valenz                      
   RCORE  =    2.000    outmost cutoff radius                                   
   RWIGS  =    2.880; RWIGS  =    1.524    wigner-seitz radius (au A)           
   ENMAX  =  200.000; ENMIN  =  100.000 eV                                      
   RCLOC  =    1.506    cutoff for local pot                                    
   LCOR   =        T    correct aug charges                                     
   LPAW   =        T    paw PP                                                  
   EAUG   =  454.734                                                            
   DEXC   =    0.000                                                            
   RMAX   =    2.045    core radius for proj-oper                               
   RAUG   =    1.300    factor for augmentation sphere                          
   RDEP   =    2.025    radius for radial grids                                 
   RDEPT  =    1.942    core radius for aug-charge                              
                                                                                
   Atomic configuration                                                         
    6 entries                                                                   
     n  l   j            E        occ.                                          
     1  0  0.50     -1259.6230   2.0000                                         
     2  0  0.50       -79.8442   2.0000                                         
     2  1  1.50       -46.6121   6.0000                                         
     3  0  0.50        -4.7055   2.0000                                         
     3  1  0.50        -1.3660   0.0000                                         
     3  2  1.50        -1.3606   0.0000                                         
   Description                                                                  
     l       E           TYP  RCUT    TYP  RCUT                                 
     0     -4.7054661     23  2.000                                             
     0     27.2116520     23  2.000                                             
     1      1.3605826     23  2.000                                             
     1     27.2116520     23  2.000                                             
     2     -1.3605826     23  2.000                                             
  local pseudopotential read in
  partial core-charges read in
  partial kinetic energy density read in
  atomic valenz-charges read in
  non local Contribution for L=           0  read in
    real space projection operators read in
  non local Contribution for L=           0  read in
    real space projection operators read in
  non local Contribution for L=           1  read in
    real space projection operators read in
  non local Contribution for L=           1  read in
    real space projection operators read in
  non local Contribution for L=           2  read in
    real space projection operators read in
    PAW grid and wavefunctions read in
 
   number of l-projection  operators is LMAX  =           5
   number of lm-projection operators is LMMAX =          13
 
 POTCAR:    PAW_PBE Al 04Jan2001                  
   VRHFIN =Al: s2p1                                                             
   LEXCH  = PE                                                                  
   EATOM  =    53.5387 eV,    3.9350 Ry                                         
                                                                                
   TITEL  = PAW_PBE Al 04Jan2001                                                
   LULTRA =        F    use ultrasoft PP ?                                      
   IUNSCR =        1    unscreen: 0-lin 1-nonlin 2-no                           
   RPACOR =    1.500    partial core radius                                     
   POMASS =   26.981; ZVAL   =    3.000    mass and valenz                      
   RCORE  =    1.900    outmost cutoff radius                                   
   RWIGS  =    2.650; RWIGS  =    1.402    wigner-seitz radius (au A)           
   ENMAX  =  240.300; ENMIN  =  180.225 eV                                      
   ICORE  =        2    local potential                                         
   LCOR   =        T    correct aug charges                                     
   LPAW   =        T    paw PP                                                  
   EAUG   =  291.052                                                            
   DEXC   =    0.000                                                            
   RMAX   =    1.939    core radius for proj-oper                               
   RAUG   =    1.300    factor for augmentation sphere                          
   RDEP   =    1.966    radius for radial grids                                 
   RDEPT  =    1.856    core radius for aug-charge                              
                                                                                
   Atomic configuration                                                         
    6 entries                                                                   
     n  l   j            E        occ.                                          
     1  0  0.50     -1511.1048   2.0000                                         
     2  0  0.50      -108.1629   2.0000                                         
     2  1  1.50       -69.6402   6.0000                                         
     3  0  0.50        -7.7528   2.0000                                         
     3  1  1.50        -2.7121   1.0000                                         
     3  2  2.50        -2.7212   0.0000                                         
   Description                                                                  
     l       E           TYP  RCUT    TYP  RCUT                                 
     0     -7.7528455     23  1.900                                             
     0     -3.3096929     23  1.900                                             
     1     -2.7120682     23  1.900                                             
     1     13.6058260     23  1.900                                             
     2     -2.7211652      7  1.900                                             
  local pseudopotential read in
  partial core-charges read in
  partial kinetic energy density read in
  atomic valenz-charges read in
  non local Contribution for L=           0  read in
    real space projection operators read in
  non local Contribution for L=           0  read in
    real space projection operators read in
  non local Contribution for L=           1  read in
    real space projection operators read in
  non local Contribution for L=           1  read in
    real space projection operators read in
    PAW grid and wavefunctions read in
 
   number of l-projection  operators is LMAX  =           4
   number of lm-projection operators is LMMAX =           8
 

 ----------------------------------------------------------------------------- 
|                                                                             |
|  ADVICE TO THIS USER RUNNING 'VASP/VAMP'   (HEAR YOUR MASTER'S VOICE ...):  |
|                                                                             |
|      You have a (more or less) 'large supercell' and for larger cells       |
|      it might be more efficient to use real space projection opertators     |
|      So try LREAL= Auto  in the INCAR   file.                               |
|      Mind: At the moment your POTCAR file does not contain real space       |
|       projectors, and has to be modified,  BUT if you                       |
|      want to do an extremely  accurate calculation you might also keep the  |
|      reciprocal projection scheme          (i.e. LREAL=.FALSE.)             |
|                                                                             |
 ----------------------------------------------------------------------------- 

  PAW_PBE O 08Apr2002                   :
 energy of atom  1       EATOM= -432.3788
 kinetic energy error for atom=    0.0208 (will be added to EATOM!!)
  PAW_PBE Mg 13Apr2007                  :
 energy of atom  2       EATOM=  -23.0369
 kinetic energy error for atom=    0.0000 (will be added to EATOM!!)
  PAW_PBE Al 04Jan2001                  :
 energy of atom  3       EATOM=  -53.5387
 kinetic energy error for atom=    0.0002 (will be added to EATOM!!)
 
 
 POSCAR: Layer                                   
  positions in direct lattice
  velocities in cartesian coordinates
 exchange correlation table for  LEXCH =        8
   RHO(1)=    0.500       N(1)  =     2000
   RHO(2)=  100.500       N(2)  =     4000
 


--------------------------------------------------------------------------------------------------------


 ion  position               nearest neighbor table
   1  0.000  0.000  0.365-  14 2.13  14 2.13  14 2.13  17 2.13  17 2.13  17 2.13
   2  0.333  0.667  0.419-  11 2.13  11 2.13  11 2.13  14 2.13  14 2.13  14 2.13
   3  0.000  0.000  0.526-  18 2.13  18 2.13  18 2.13  15 2.13  15 2.13  15 2.13
   4  0.333  0.667  0.579-  12 2.13  12 2.13  12 2.13  15 2.13  15 2.13  15 2.13
   5  0.000  0.000  0.687-  16 2.13  16 2.13  16 2.13  19 2.13  19 2.13  19 2.13
   6  0.333  0.667  0.740-  16 2.13  16 2.13  16 2.13  13 2.16  13 2.16  13 2.16
   7  0.667  0.333  0.311-  17 2.13  17 2.13  17 2.13  10 2.16  10 2.16  10 2.16
   8  0.667  0.333  0.472-  11 2.13  11 2.13  11 2.13  18 2.13  18 2.13  18 2.13
   9  0.667  0.333  0.633-  19 2.13  19 2.13  19 2.13  12 2.13  12 2.13  12 2.13
  10  0.000  0.000  0.283-   7 2.16   7 2.16   7 2.16  17 3.07  17 3.07  17 3.07
  11  0.000  0.000  0.445-   2 2.13   2 2.13   2 2.13   8 2.13   8 2.13   8 2.13  14 3.03  14 3.03
                            14 3.03  18 3.03  18 3.03  18 3.03
  12  0.000  0.000  0.606-   4 2.13   4 2.13   4 2.13   9 2.13   9 2.13   9 2.13  19 3.03  19 3.03
                            19 3.03  15 3.03  15 3.03  15 3.03
  13  0.000  0.000  0.768-   6 2.16   6 2.16   6 2.16  16 3.07  16 3.07  16 3.07
  14  0.667  0.333  0.392-   1 2.13   1 2.13   1 2.13   2 2.13   2 2.13   2 2.13  11 3.03  11 3.03
                            11 3.03  17 3.03  17 3.03  17 3.03
  15  0.667  0.333  0.553-   4 2.13   4 2.13   4 2.13   3 2.13   3 2.13   3 2.13  12 3.03  12 3.03
                            12 3.03  18 3.03  18 3.03  18 3.03
  16  0.667  0.333  0.714-   6 2.13   6 2.13   6 2.13   5 2.13   5 2.13   5 2.13  19 3.03  19 3.03
                            19 3.03  13 3.07  13 3.07  13 3.07
  17  0.333  0.667  0.338-   7 2.13   7 2.13   7 2.13   1 2.13   1 2.13   1 2.13  14 3.03  14 3.03
                            14 3.03  10 3.07  10 3.07  10 3.07
  18  0.333  0.667  0.499-   8 2.13   8 2.13   8 2.13   3 2.13   3 2.13   3 2.13  11 3.03  11 3.03
                            11 3.03  15 3.03  15 3.03  15 3.03
  19  0.333  0.667  0.660-   9 2.13   9 2.13   9 2.13   5 2.13   5 2.13   5 2.13  12 3.03  12 3.03
                            12 3.03  16 3.03  16 3.03  16 3.03
  20  0.000  0.000  0.026-  23 2.84  23 2.84  23 2.84  25 2.84  25 2.84  25 2.84
  21  0.000  0.000  0.172-  22 2.86  22 2.86  22 2.86
  22  0.667  0.333  0.123-  23 2.85  23 2.85  23 2.85  21 2.86  21 2.86  21 2.86
  23  0.333  0.667  0.074-  20 2.84  20 2.84  20 2.84  22 2.85  22 2.85  22 2.85
  24  0.000  0.000  0.879-  26 2.86  26 2.86  26 2.86
  25  0.667  0.333  0.977-  20 2.84  20 2.84  20 2.84  26 2.85  26 2.85  26 2.85
  26  0.333  0.667  0.928-  25 2.85  25 2.85  25 2.85  24 2.86  24 2.86  24 2.86
 
  LATTYP: Found a hexagonal cell.
 ALAT       =     2.9929628358
 C/A-ratio  =    15.4815325380
  
  Lattice vectors:
  
 A1 = (   2.5919820457,  -1.4964810762,   0.0000000000)
 A2 = (   0.0000000000,   2.9929621524,   0.0000000000)
 A3 = (   0.0000000000,  -0.0000000000,  46.3356515275)


Analysis of symmetry for initial positions (statically):
=====================================================================
 Subroutine PRICEL returns:
 Original cell was already a primitive cell.
 

 Routine SETGRP: Setting up the symmetry group for a 
 hexagonal supercell.


 Subroutine GETGRP returns: Found  6 space group operations
 (whereof  6 operations were pure point group operations)
 out of a pool of 24 trial point group operations.


The static configuration has the point symmetry C_3v.


Analysis of symmetry for dynamics (positions and initial velocities):
=====================================================================
 Subroutine PRICEL returns:
 Original cell was already a primitive cell.
 

 Routine SETGRP: Setting up the symmetry group for a 
 hexagonal supercell.


 Subroutine GETGRP returns: Found  6 space group operations
 (whereof  6 operations were pure point group operations)
 out of a pool of 24 trial point group operations.


The dynamic configuration has the point symmetry C_3v.


Analysis of constrained symmetry for selective dynamics:
=====================================================================
 Subroutine PRICEL returns:
 Original cell was already a primitive cell.
 

 Routine SETGRP: Setting up the symmetry group for a 
 hexagonal supercell.


 Subroutine GETGRP returns: Found  6 space group operations
 (whereof  6 operations were pure point group operations)
 out of a pool of 24 trial point group operations.


The constrained configuration has the point symmetry C_3v.
 
 
 KPOINTS: K-Spacing Value to Generate K-Mesh: 0.02

Automatic generation of k-mesh.
Space group operators:
 irot       det(A)        alpha          n_x          n_y          n_z        tau_x        tau_y        tau_z
    1     1.000000     0.000001     1.000000     0.000000     0.000000     0.000000     0.000000     0.000000
    2     1.000000   120.000000    -0.000000     0.000000    -1.000000     0.000000     0.000000     0.000000
    3     1.000000   120.000000    -0.000000    -0.000000     1.000000     0.000000     0.000000     0.000000
    4    -1.000000   180.000000    -0.866025     0.500000     0.000000     0.000000     0.000000     0.000000
    5    -1.000000   180.000000     0.000000     1.000000     0.000000     0.000000     0.000000     0.000000
    6    -1.000000   180.000000    -0.866025    -0.500000    -0.000000     0.000000     0.000000     0.000000
 
 Subroutine IBZKPT returns following result:
 ===========================================
 
 Found     21 irreducible k-points:
 
 Following reciprocal coordinates:
            Coordinates               Weight
  0.000000  0.000000  0.000000      1.000000
  0.076923 -0.000000  0.000000      6.000000
  0.153846 -0.000000  0.000000      6.000000
  0.230769  0.000000  0.000000      6.000000
  0.307692 -0.000000  0.000000      6.000000
  0.384615 -0.000000  0.000000      6.000000
  0.461538  0.000000  0.000000      6.000000
  0.076923  0.076923  0.000000      6.000000
  0.153846  0.076923  0.000000     12.000000
  0.230769  0.076923 -0.000000     12.000000
  0.307692  0.076923 -0.000000     12.000000
  0.384615  0.076923 -0.000000     12.000000
  0.461538  0.076923  0.000000      6.000000
  0.153846  0.153846 -0.000000      6.000000
  0.230769  0.153846 -0.000000     12.000000
  0.307692  0.153846  0.000000     12.000000
  0.384615  0.153846  0.000000     12.000000
  0.230769  0.230769  0.000000      6.000000
  0.307692  0.230769  0.000000     12.000000
  0.384615  0.230769  0.000000      6.000000
  0.307692  0.307692 -0.000000      6.000000
 
 Following cartesian coordinates:
            Coordinates               Weight
  0.000000  0.000000  0.000000      1.000000
  0.029677 -0.000000 -0.000000      6.000000
  0.059355 -0.000000 -0.000000      6.000000
  0.089032 -0.000000 -0.000000      6.000000
  0.118709 -0.000000 -0.000000      6.000000
  0.148387 -0.000000 -0.000000      6.000000
  0.178064 -0.000000 -0.000000      6.000000
  0.044516  0.025701  0.000000      6.000000
  0.074193  0.025701  0.000000     12.000000
  0.103871  0.025701  0.000000     12.000000
  0.133548  0.025701  0.000000     12.000000
  0.163225  0.025701  0.000000     12.000000
  0.192903  0.025701  0.000000      6.000000
  0.089032  0.051403  0.000000      6.000000
  0.118709  0.051403  0.000000     12.000000
  0.148387  0.051403  0.000000     12.000000
  0.178064  0.051403  0.000000     12.000000
  0.133548  0.077104  0.000000      6.000000
  0.163225  0.077104  0.000000     12.000000
  0.192903  0.077104  0.000000      6.000000
  0.178064  0.102805  0.000000      6.000000
 


--------------------------------------------------------------------------------------------------------




 Dimension of arrays:
   k-points           NKPTS =     21   k-points in BZ     NKDIM =     21   number of bands    NBANDS=     62
   number of dos      NEDOS =    301   number of ions     NIONS =     26
   non local maximal  LDIM  =      5   non local SUM 2l+1 LMDIM =     13
   total plane-waves  NPLWV = 201600
   max r-space proj   IRMAX =      1   max aug-charges    IRDMAX= 190774
   dimension x,y,z NGX =    24 NGY =   24 NGZ =  350
   dimension x,y,z NGXF=    48 NGYF=   48 NGZF=  700
   support grid    NGXF=    96 NGYF=   96 NGZF= 1400
   ions per type =               9  10   7
 NGX,Y,Z   is equivalent  to a cutoff of  13.33, 13.33, 12.56 a.u.
 NGXF,Y,Z  is equivalent  to a cutoff of  26.66, 26.66, 25.12 a.u.


 I would recommend the setting:
   dimension x,y,z NGX =    22 NGY =   22 NGZ =  345
 SYSTEM =  unknown system                          
 POSCAR =  Layer                                   

 Startparameter for this run:
   NWRITE =      2    write-flag & timer
   PREC   = accura    normal or accurate (medium, high low for compatibility)
   ISTART =      0    job   : 0-new  1-cont  2-samecut
   ICHARG =      2    charge: 1-file 2-atom 10-const
   ISPIN  =      1    spin polarized calculation?
   LNONCOLLINEAR =      F non collinear calculations
   LSORBIT =      F    spin-orbit coupling
   INIWAV =      1    electr: 0-lowe 1-rand  2-diag
   LASPH  =      F    aspherical Exc in radial PAW
   METAGGA=      F    non-selfconsistent MetaGGA calc.

 Electronic Relaxation 1
   ENCUT  =  520.0 eV  38.22 Ry    6.18 a.u.   5.56  5.56 86.15*2*pi/ulx,y,z
   ENINI  =  520.0     initial cutoff
   ENAUG  =  605.4 eV  augmentation charge cutoff
   NELM   =    100;   NELMIN=  6; NELMDL=  0     # of ELM steps 
   EDIFF  = 0.1E-04   stopping-criterion for ELM
   LREAL  =      F    real-space projection
   NLSPLINE    = F    spline interpolate recip. space projectors
   LCOMPAT=      F    compatible to vasp.4.4
   GGA_COMPAT  = T    GGA compatible to vasp.4.4-vasp.4.6
   LMAXPAW     = -100 max onsite density
   LMAXMIX     =    2 max onsite mixed and CHGCAR
   VOSKOWN=      0    Vosko Wilk Nusair interpolation
   ROPT   =    0.00000   0.00000   0.00000
 Ionic relaxation
   EDIFFG = -.2E-01   stopping-criterion for IOM
   NSW    =    500    number of steps for IOM
   NBLOCK =      1;   KBLOCK =    500    inner block; outer block 
   IBRION =      2    ionic relax: 0-MD 1-quasi-New 2-CG
   NFREE  =      1    steps in history (QN), initial steepest desc. (CG)
   ISIF   =      2    stress and relaxation
   IWAVPR =     11    prediction:  0-non 1-charg 2-wave 3-comb
   ISYM   =      2    0-nonsym 1-usesym 2-fastsym
   LCORR  =      T    Harris-Foulkes like correction to forces

   POTIM  = 0.5000    time-step for ionic-motion
   TEIN   =    0.0    initial temperature
   TEBEG  =    0.0;   TEEND  =   0.0 temperature during run
   SMASS  =  -3.00    Nose mass-parameter (am)
   estimated Nose-frequenzy (Omega)   =  0.10E-29 period in steps =****** mass=  -0.205E-27a.u.
   SCALEE = 1.0000    scale energy and forces
   NPACO  =    256;   APACO  = 16.0  distance and # of slots for P.C.
   PSTRESS=    0.0 pullay stress

  Mass of Ions in am
   POMASS =  16.00 24.30 26.98
  Ionic Valenz
   ZVAL   =   6.00  2.00  3.00
  Atomic Wigner-Seitz radii
   RWIGS  =  -1.00 -1.00 -1.00
  virtual crystal weights 
   VCA    =   1.00  1.00  1.00
   NELECT =      95.0000    total number of electrons
   NUPDOWN=      -1.0000    fix difference up-down

 DOS related values:
   EMIN   =  10.00;   EMAX   =-10.00  energy-range for DOS
   EFERMI =   0.00
   ISMEAR =     0;   SIGMA  =   0.05  broadening in eV -4-tet -1-fermi 0-gaus

 Electronic relaxation 2 (details)
   IALGO  =     38    algorithm
   LDIAG  =      T    sub-space diagonalisation (order eigenvalues)
   LSUBROT=      F    optimize rotation matrix (better conditioning)
   TURBO    =      0    0=normal 1=particle mesh
   IRESTART =      0    0=no restart 2=restart with 2 vectors
   NREBOOT  =      0    no. of reboots
   NMIN     =      0    reboot dimension
   EREF     =   0.00    reference energy to select bands
   IMIX   =      4    mixing-type and parameters
     AMIX     =   0.40;   BMIX     =  1.00
     AMIX_MAG =   1.60;   BMIX_MAG =  1.00
     AMIN     =   0.01
     WC   =   100.;   INIMIX=   1;  MIXPRE=   1;  MAXMIX= -45

 Intra band minimization:
   WEIMIN = 0.0010     energy-eigenvalue tresh-hold
   EBREAK =  0.40E-07  absolut break condition
   DEPER  =   0.30     relativ break condition  

   TIME   =   0.40     timestep for ELM

  volume/ion in A,a.u.               =      13.83        93.30
  Fermi-wavevector in a.u.,A,eV,Ry     =   1.050590  1.985327 15.017281  1.103739
  Thomas-Fermi vector in A             =   2.185599
 
 Write flags
   LWAVE  =      F    write WAVECAR
   LCHARG =      T    write CHGCAR
   LVTOT  =      F    write LOCPOT, total local potential
   LVHAR  =      F    write LOCPOT, Hartree potential only
   LELF   =      F    write electronic localiz. function (ELF)
   LORBIT =      0    0 simple, 1 ext, 2 COOP (PROOUT)


 Dipole corrections
   LMONO  =      F    monopole corrections only (constant potential shift)
   LDIPOL =      F    correct potential (dipole corrections)
   IDIPOL =      0    1-x, 2-y, 3-z, 4-all directions 
   EPSILON=  1.0000000 bulk dielectric constant

 Exchange correlation treatment:
   GGA     =    --    GGA type
   LEXCH   =     8    internal setting for exchange type
   VOSKOWN=      0    Vosko Wilk Nusair interpolation
   LHFCALC =     F    Hartree Fock is set to
   LHFONE  =     F    Hartree Fock one center treatment
   AEXX    =    0.0000 exact exchange contribution

 Linear response parameters
   LEPSILON=     F    determine dielectric tensor
   LRPA    =     F    only Hartree local field effects (RPA)
   LNABLA  =     F    use nabla operator in PAW spheres
   LVEL    =     F    velocity operator in full k-point grid
   LINTERFAST=   F  fast interpolation
   KINTER  =     0    interpolate to denser k-point grid
   CSHIFT  =0.1000    complex shift for real part using Kramers Kronig
   OMEGAMAX=  -1.0    maximum frequency
   DEG_THRESHOLD= 0.2000000E-02 threshold for treating states as degnerate
   RTIME   =    0.100 relaxation time in fs

 Orbital magnetization related:
   ORBITALMAG=     F  switch on orbital magnetization
   LCHIMAG   =     F  perturbation theory with respect to B field
   DQ        =  0.001000  dq finite difference perturbation B field



--------------------------------------------------------------------------------------------------------


 conjugate gradient relaxation of ions
   using selective dynamics as specified on POSCAR
 charge density and potential will be updated during run
 non-spin polarized calculation
 Variant of blocked Davidson
 Davidson routine will perform the subspace rotation
 perform sub-space diagonalisation
    after iterative eigenvector-optimisation
 modified Broyden-mixing scheme, WC =      100.0
 initial mixing is a Kerker type mixing with AMIX =  0.4000 and BMIX =      1.0000
 Hartree-type preconditioning will be used
 using additional bands           14
 reciprocal scheme for non local part
 use partial core corrections
 calculate Harris-corrections to forces 
   (improved forces if not selfconsistent)
 use gradient corrections 
 use of overlap-Matrix (Vanderbilt PP)
 Gauss-broadening in eV      SIGMA  =   0.05


--------------------------------------------------------------------------------------------------------


  energy-cutoff  :      520.00
  volume of cell :      359.46
      direct lattice vectors                 reciprocal lattice vectors
     2.591982046 -1.496481076  0.000000000     0.385805142 -0.000000000 -0.000000000
     0.000000000  2.992962152  0.000000000     0.192902571  0.334117155  0.000000000
     0.000000000 -0.000000000 46.335651528     0.000000000  0.000000000  0.021581654

  length of vectors
     2.992962836  2.992962152 46.335651528     0.385805142  0.385805230  0.021581654


 
 k-points in units of 2pi/SCALE and weight: K-Spacing Value to Generate K-Mesh: 0.02
   0.00000000  0.00000000  0.00000000       0.006
   0.02967732 -0.00000000 -0.00000000       0.036
   0.05935464 -0.00000000 -0.00000000       0.036
   0.08903196 -0.00000000 -0.00000000       0.036
   0.11870927 -0.00000000 -0.00000000       0.036
   0.14838659 -0.00000000 -0.00000000       0.036
   0.17806391 -0.00000000 -0.00000000       0.036
   0.04451598  0.02570132  0.00000000       0.036
   0.07419330  0.02570132  0.00000000       0.071
   0.10387062  0.02570132  0.00000000       0.071
   0.13354793  0.02570132  0.00000000       0.071
   0.16322525  0.02570132  0.00000000       0.071
   0.19290257  0.02570132  0.00000000       0.036
   0.08903196  0.05140264  0.00000000       0.036
   0.11870927  0.05140264  0.00000000       0.071
   0.14838659  0.05140264  0.00000000       0.071
   0.17806391  0.05140264  0.00000000       0.071
   0.13354793  0.07710396  0.00000000       0.036
   0.16322525  0.07710396  0.00000000       0.071
   0.19290257  0.07710396  0.00000000       0.036
   0.17806391  0.10280528  0.00000000       0.036
 
 k-points in reciprocal lattice and weights: K-Spacing Value to Generate K-Mesh: 0.02
   0.00000000  0.00000000  0.00000000       0.006
   0.07692308 -0.00000000  0.00000000       0.036
   0.15384615 -0.00000000  0.00000000       0.036
   0.23076923  0.00000000  0.00000000       0.036
   0.30769231 -0.00000000  0.00000000       0.036
   0.38461538 -0.00000000  0.00000000       0.036
   0.46153846  0.00000000  0.00000000       0.036
   0.07692308  0.07692308  0.00000000       0.036
   0.15384615  0.07692308  0.00000000       0.071
   0.23076923  0.07692308 -0.00000000       0.071
   0.30769231  0.07692308 -0.00000000       0.071
   0.38461538  0.07692308 -0.00000000       0.071
   0.46153846  0.07692308  0.00000000       0.036
   0.15384615  0.15384615 -0.00000000       0.036
   0.23076923  0.15384615 -0.00000000       0.071
   0.30769231  0.15384615  0.00000000       0.071
   0.38461538  0.15384615  0.00000000       0.071
   0.23076923  0.23076923  0.00000000       0.036
   0.30769231  0.23076923  0.00000000       0.071
   0.38461538  0.23076923  0.00000000       0.036
   0.30769231  0.30769231 -0.00000000       0.036
 
 position of ions in fractional coordinates (direct lattice) 
   0.00000000  0.00000000  0.36489741
   0.33333300  0.66666700  0.41851636
   0.00000000  0.00000000  0.52579040
   0.33333300  0.66666700  0.57944758
   0.00000000  0.00000000  0.68670381
   0.33333300  0.66666700  0.74027278
   0.66666700  0.33333300  0.31130906
   0.66666700  0.33333300  0.47213935
   0.66666700  0.33333300  0.63307226
   0.00000000  0.00000000  0.28339303
   0.00000000  0.00000000  0.44532573
   0.00000000  0.00000000  0.60625669
   0.00000000  0.00000000  0.76820383
   0.66666700  0.33333300  0.39170665
   0.66666700  0.33333300  0.55262005
   0.66666700  0.33333300  0.71351898
   0.33333300  0.66666700  0.33806140
   0.33333300  0.66666700  0.49896188
   0.33333300  0.66666700  0.65988178
   0.00000000  0.00000000  0.02577694
   0.00000000  0.00000000  0.17241299
   0.66666700  0.33333300  0.12313116
   0.33333300  0.66666700  0.07433637
   0.00000000  0.00000000  0.87913914
   0.66666700  0.33333300  0.97721744
   0.33333300  0.66666700  0.92842191
 
 position of ions in cartesian coordinates  (Angst):
   0.00000000 -0.00000000 16.90775917
   0.86399315  1.49648257 19.39222835
   0.00000000 -0.00000000 24.36284072
   0.86399315  1.49648257 26.84908130
   0.00000000 -0.00000000 31.81886825
   0.86399315  1.49648257 34.30102165
   1.72798889 -0.00000150 14.42470811
   1.72798889 -0.00000150 21.87688425
   1.72798889 -0.00000150 29.33381557
   0.00000000 -0.00000000 13.13120071
   0.00000000 -0.00000000 20.63445763
   0.00000000 -0.00000000 28.09129894
   0.00000000 -0.00000000 35.59522515
   1.72798889 -0.00000150 18.14998305
   1.72798889 -0.00000150 25.60601006
   1.72798889 -0.00000150 33.06136695
   0.86399315  1.49648257 15.66429542
   0.86399315  1.49648257 23.11972401
   0.86399315  1.49648257 30.57605222
   0.00000000 -0.00000000  1.19439126
   0.00000000 -0.00000000  7.98886830
   1.72798889 -0.00000150  5.70536232
   0.86399315  1.49648257  3.44442403
   0.00000000 -0.00000000 40.73548495
   1.72798889 -0.00000150 45.28000691
   0.86399315  1.49648257 43.01903420
 


--------------------------------------------------------------------------------------------------------


 k-point  1 :   0.0000 0.0000 0.0000  plane waves:    9833
 k-point  2 :   0.0769-0.0000 0.0000  plane waves:    9807
 k-point  3 :   0.1538-0.0000 0.0000  plane waves:    9775
 k-point  4 :   0.2308 0.0000 0.0000  plane waves:    9728
 k-point  5 :   0.3077-0.0000 0.0000  plane waves:    9684
 k-point  6 :   0.3846-0.0000 0.0000  plane waves:    9618
 k-point  7 :   0.4615 0.0000 0.0000  plane waves:    9636
 k-point  8 :   0.0769 0.0769 0.0000  plane waves:    9783
 k-point  9 :   0.1538 0.0769 0.0000  plane waves:    9748
 k-point 10 :   0.2308 0.0769-0.0000  plane waves:    9687
 k-point 11 :   0.3077 0.0769-0.0000  plane waves:    9672
 k-point 12 :   0.3846 0.0769-0.0000  plane waves:    9626
 k-point 13 :   0.4615 0.0769 0.0000  plane waves:    9598
 k-point 14 :   0.1538 0.1538-0.0000  plane waves:    9713
 k-point 15 :   0.2308 0.1538-0.0000  plane waves:    9682
 k-point 16 :   0.3077 0.1538 0.0000  plane waves:    9668
 k-point 17 :   0.3846 0.1538 0.0000  plane waves:    9616
 k-point 18 :   0.2308 0.2308 0.0000  plane waves:    9682
 k-point 19 :   0.3077 0.2308 0.0000  plane waves:    9633
 k-point 20 :   0.3846 0.2308 0.0000  plane waves:    9672
 k-point 21 :   0.3077 0.3077-0.0000  plane waves:    9666

 maximum and minimum number of plane-waves per node :      2466     2385

 maximum number of plane-waves:      9833
 maximum index in each direction: 
   IXMAX=    5   IYMAX=    5   IZMAX=   86
   IXMIN=   -6   IYMIN=   -5   IZMIN=  -86

 NGX is ok and might be reduce to  24
 NGY is ok and might be reduce to  22
 NGZ is ok and might be reduce to 346

 parallel 3D FFT for wavefunctions:
    minimum data exchange during FFTs selected (reduces bandwidth)
 parallel 3D FFT for charge:
    minimum data exchange during FFTs selected (reduces bandwidth)


 total amount of memory used by VASP on root node   158215. kBytes
========================================================================

   base      :      30000. kBytes
   nonl-proj :      17183. kBytes
   fftplans  :      60349. kBytes
   grid      :      24192. kBytes
   one-center:         56. kBytes
   wavefun   :      26435. kBytes
 
     INWAV:  cpu time    0.00: real time    0.00
 Broyden mixing: mesh for mixing (old mesh)
   NGX = 11   NGY = 11   NGZ =173
  (NGX  = 48   NGY  = 48   NGZ  =700)
  gives a total of  20933 points

 initial charge density was supplied:
 charge density of overlapping atoms calculated
 number of electron      95.0000000 magnetization 
 keeping initial charge density in first step


--------------------------------------------------------------------------------------------------------


 Maximum index for augmentation-charges        22962 (set IRDMAX)


--------------------------------------------------------------------------------------------------------


 First call to EWALD:  gamma=   0.249
 Maximum number of real-space cells 7x 7x 1
 Maximum number of reciprocal cells 1x 1x15

 FEWALD executed in parallel
    FEWALD:  cpu time    0.00: real time    0.00


----------------------------------------- Iteration    1(   1)  ---------------------------------------


    POTLOK:  cpu time    0.12: real time    0.12
    SETDIJ:  cpu time    0.11: real time    0.11
     EDDAV:  cpu time    4.70: real time    4.74
       DOS:  cpu time    0.00: real time    0.00
    --------------------------------------------
      LOOP:  cpu time    4.93: real time    4.97

 eigenvalue-minimisations  :  2620
 total energy-change (2. order) : 0.5027670E+03  (-0.4092788E+04)
 number of electron      95.0000000 magnetization 
 augmentation part       95.0000000 magnetization 

 Free energy of the ion-electron system (eV)
  ---------------------------------------------------
  alpha Z        PSCENC =       112.48645157
  Ewald energy   TEWEN  =     22994.59377381
  -Hartree energ DENC   =    -27630.42139514
  -exchange      EXHF   =         0.00000000
  -V(xc)+E(xc)   XCENC  =      -419.43459655
  PAW double counting   =      4235.41334458    -3509.29226066
  entropy T*S    EENTRO =        -0.00520245
  eigenvalues    EBANDS =       223.06714562
  atomic energy  EATOM  =      4496.35971583
  ---------------------------------------------------
  free energy    TOTEN  =       502.76697660 eV

  energy without entropy =      502.77217904  energy(sigma->0) =      502.76957782


--------------------------------------------------------------------------------------------------------




----------------------------------------- Iteration    1(   2)  ---------------------------------------


     EDDAV:  cpu time    5.68: real time    5.69
       DOS:  cpu time    0.00: real time    0.00
    --------------------------------------------
      LOOP:  cpu time    5.68: real time    5.69

 eigenvalue-minimisations  :  3412
 total energy-change (2. order) :-0.5857595E+03  (-0.5528671E+03)
 number of electron      95.0000000 magnetization 
 augmentation part       95.0000000 magnetization 

 Free energy of the ion-electron system (eV)
  ---------------------------------------------------
  alpha Z        PSCENC =       112.48645157
  Ewald energy   TEWEN  =     22994.59377381
  -Hartree energ DENC   =    -27630.42139514
  -exchange      EXHF   =         0.00000000
  -V(xc)+E(xc)   XCENC  =      -419.43459655
  PAW double counting   =      4235.41334458    -3509.29226066
  entropy T*S    EENTRO =        -0.00586242
  eigenvalues    EBANDS =      -362.69165394
  atomic energy  EATOM  =      4496.35971583
  ---------------------------------------------------
  free energy    TOTEN  =       -82.99248294 eV

  energy without entropy =      -82.98662051  energy(sigma->0) =      -82.98955173


--------------------------------------------------------------------------------------------------------




----------------------------------------- Iteration    1(   3)  ---------------------------------------


     EDDAV:  cpu time    5.25: real time    5.26
       DOS:  cpu time    0.00: real time    0.00
    --------------------------------------------
      LOOP:  cpu time    5.26: real time    5.26

 eigenvalue-minimisations  :  3072
 total energy-change (2. order) :-0.6407270E+02  (-0.6365590E+02)
 number of electron      95.0000000 magnetization 
 augmentation part       95.0000000 magnetization 

 Free energy of the ion-electron system (eV)
  ---------------------------------------------------
  alpha Z        PSCENC =       112.48645157
  Ewald energy   TEWEN  =     22994.59377381
  -Hartree energ DENC   =    -27630.42139514
  -exchange      EXHF   =         0.00000000
  -V(xc)+E(xc)   XCENC  =      -419.43459655
  PAW double counting   =      4235.41334458    -3509.29226066
  entropy T*S    EENTRO =        -0.00667240
  eigenvalues    EBANDS =      -426.76354287
  atomic energy  EATOM  =      4496.35971583
  ---------------------------------------------------
  free energy    TOTEN  =      -147.06518185 eV

  energy without entropy =     -147.05850945  energy(sigma->0) =     -147.06184565


--------------------------------------------------------------------------------------------------------




----------------------------------------- Iteration    1(   4)  ---------------------------------------


     EDDAV:  cpu time    5.21: real time    5.22
       DOS:  cpu time    0.00: real time    0.00
    --------------------------------------------
      LOOP:  cpu time    5.21: real time    5.22

 eigenvalue-minimisations  :  3072
 total energy-change (2. order) :-0.1234667E+01  (-0.1231488E+01)
 number of electron      95.0000000 magnetization 
 augmentation part       95.0000000 magnetization 

 Free energy of the ion-electron system (eV)
  ---------------------------------------------------
  alpha Z        PSCENC =       112.48645157
  Ewald energy   TEWEN  =     22994.59377381
  -Hartree energ DENC   =    -27630.42139514
  -exchange      EXHF   =         0.00000000
  -V(xc)+E(xc)   XCENC  =      -419.43459655
  PAW double counting   =      4235.41334458    -3509.29226066
  entropy T*S    EENTRO =        -0.00673695
  eigenvalues    EBANDS =      -427.99814500
  atomic energy  EATOM  =      4496.35971583
  ---------------------------------------------------
  free energy    TOTEN  =      -148.29984853 eV

  energy without entropy =     -148.29311158  energy(sigma->0) =     -148.29648006


--------------------------------------------------------------------------------------------------------




----------------------------------------- Iteration    1(   5)  ---------------------------------------


     EDDAV:  cpu time    5.41: real time    5.42
       DOS:  cpu time    0.00: real time    0.00
    CHARGE:  cpu time    0.43: real time    0.43
    MIXING:  cpu time    0.00: real time    0.00
    --------------------------------------------
      LOOP:  cpu time    5.84: real time    5.85

 eigenvalue-minimisations  :  3182
 total energy-change (2. order) :-0.2991427E-01  (-0.2989501E-01)
 number of electron      95.0000000 magnetization 
 augmentation part        6.9262259 magnetization 

 Broyden mixing:
  rms(total) = 0.22133E+01    rms(broyden)= 0.22128E+01
  rms(prec ) = 0.22925E+01
  weight for this iteration     100.00

 Free energy of the ion-electron system (eV)
  ---------------------------------------------------
  alpha Z        PSCENC =       112.48645157
  Ewald energy   TEWEN  =     22994.59377381
  -Hartree energ DENC   =    -27630.42139514
  -exchange      EXHF   =         0.00000000
  -V(xc)+E(xc)   XCENC  =      -419.43459655
  PAW double counting   =      4235.41334458    -3509.29226066
  entropy T*S    EENTRO =        -0.00674966
  eigenvalues    EBANDS =      -428.02804656
  atomic energy  EATOM  =      4496.35971583
  ---------------------------------------------------
  free energy    TOTEN  =      -148.32976280 eV

  energy without entropy =     -148.32301314  energy(sigma->0) =     -148.32638797


--------------------------------------------------------------------------------------------------------




----------------------------------------- Iteration    1(   6)  ---------------------------------------


    POTLOK:  cpu time    0.12: real time    0.12
    SETDIJ:  cpu time    0.12: real time    0.12
     EDDAV:  cpu time    4.96: real time    4.96
       DOS:  cpu time    0.00: real time    0.00
    CHARGE:  cpu time    0.41: real time    0.41
    MIXING:  cpu time    0.00: real time    0.00
    --------------------------------------------
      LOOP:  cpu time    5.61: real time    5.62

 eigenvalue-minimisations  :  2880
 total energy-change (2. order) : 0.1591295E+02  (-0.8685101E+01)
 number of electron      95.0000001 magnetization 
 augmentation part        5.6211158 magnetization 

 Broyden mixing:
  rms(total) = 0.73312E+00    rms(broyden)= 0.73217E+00
  rms(prec ) = 0.73944E+00
  weight for this iteration     100.00

 eigenvalues of (default mixing * dielectric matrix)
  average eigenvalue GAMMA=   0.8495
  0.8495

 Free energy of the ion-electron system (eV)
  ---------------------------------------------------
  alpha Z        PSCENC =       112.48645157
  Ewald energy   TEWEN  =     22994.59377381
  -Hartree energ DENC   =    -27807.28924061
  -exchange      EXHF   =         0.00000000
  -V(xc)+E(xc)   XCENC  =      -407.23605468
  PAW double counting   =      5048.49943780    -4325.54062444
  entropy T*S    EENTRO =        -0.00458996
  eigenvalues    EBANDS =      -244.28567786
  atomic energy  EATOM  =      4496.35971583
  ---------------------------------------------------
  free energy    TOTEN  =      -132.41680855 eV

  energy without entropy =     -132.41221859  energy(sigma->0) =     -132.41451357


--------------------------------------------------------------------------------------------------------




----------------------------------------- Iteration    1(   7)  ---------------------------------------


    POTLOK:  cpu time    0.11: real time    0.11
    SETDIJ:  cpu time    0.10: real time    0.10
     EDDAV:  cpu time    5.03: real time    5.04
       DOS:  cpu time    0.00: real time    0.00
    CHARGE:  cpu time    0.41: real time    0.41
    MIXING:  cpu time    0.00: real time    0.00
    --------------------------------------------
      LOOP:  cpu time    5.66: real time    5.67

 eigenvalue-minimisations  :  2910
 total energy-change (2. order) : 0.9412505E-01  (-0.1854298E+00)
 number of electron      95.0000001 magnetization 
 augmentation part        5.6553270 magnetization 

 Broyden mixing:
  rms(total) = 0.44975E+00    rms(broyden)= 0.44973E+00
  rms(prec ) = 0.45425E+00
  weight for this iteration     100.00

 eigenvalues of (default mixing * dielectric matrix)
  average eigenvalue GAMMA=   1.6394
  0.9832  2.2957

 Free energy of the ion-electron system (eV)
  ---------------------------------------------------
  alpha Z        PSCENC =       112.48645157
  Ewald energy   TEWEN  =     22994.59377381
  -Hartree energ DENC   =    -27808.90411894
  -exchange      EXHF   =         0.00000000
  -V(xc)+E(xc)   XCENC  =      -406.77013196
  PAW double counting   =      5339.91330000    -4616.53805279
  entropy T*S    EENTRO =        -0.00350010
  eigenvalues    EBANDS =      -243.46012091
  atomic energy  EATOM  =      4496.35971583
  ---------------------------------------------------
  free energy    TOTEN  =      -132.32268349 eV

  energy without entropy =     -132.31918339  energy(sigma->0) =     -132.32093344


--------------------------------------------------------------------------------------------------------




----------------------------------------- Iteration    1(   8)  ---------------------------------------


    POTLOK:  cpu time    0.11: real time    0.11
    SETDIJ:  cpu time    0.11: real time    0.11
     EDDAV:  cpu time    5.26: real time    5.27
       DOS:  cpu time    0.00: real time    0.00
    CHARGE:  cpu time    0.41: real time    0.41
    MIXING:  cpu time    0.00: real time    0.00
    --------------------------------------------
      LOOP:  cpu time    5.89: real time    5.90

 eigenvalue-minimisations  :  3008
 total energy-change (2. order) : 0.1006172E+00  (-0.4412801E-01)
 number of electron      95.0000001 magnetization 
 augmentation part        5.6925765 magnetization 

 Broyden mixing:
  rms(total) = 0.78830E-01    rms(broyden)= 0.78801E-01
  rms(prec ) = 0.99283E-01
  weight for this iteration     100.00

 eigenvalues of (default mixing * dielectric matrix)
  average eigenvalue GAMMA=   1.3616
  2.4188  0.9478  0.7184

 Free energy of the ion-electron system (eV)
  ---------------------------------------------------
  alpha Z        PSCENC =       112.48645157
  Ewald energy   TEWEN  =     22994.59377381
  -Hartree energ DENC   =    -27819.43648001
  -exchange      EXHF   =         0.00000000
  -V(xc)+E(xc)   XCENC  =      -405.34843694
  PAW double counting   =      5836.44409652    -5112.78876411
  entropy T*S    EENTRO =        -0.00476848
  eigenvalues    EBANDS =      -234.52765445
  atomic energy  EATOM  =      4496.35971583
  ---------------------------------------------------
  free energy    TOTEN  =      -132.22206626 eV

  energy without entropy =     -132.21729778  energy(sigma->0) =     -132.21968202


--------------------------------------------------------------------------------------------------------




----------------------------------------- Iteration    1(   9)  ---------------------------------------


    POTLOK:  cpu time    0.11: real time    0.11
    SETDIJ:  cpu time    0.11: real time    0.11
     EDDAV:  cpu time    5.08: real time    5.09
       DOS:  cpu time    0.00: real time    0.00
    CHARGE:  cpu time    0.42: real time    0.42
    MIXING:  cpu time    0.00: real time    0.00
    --------------------------------------------
      LOOP:  cpu time    5.73: real time    5.74

 eigenvalue-minimisations  :  2940
 total energy-change (2. order) : 0.2049670E-01  (-0.5832840E-02)
 number of electron      95.0000001 magnetization 
 augmentation part        5.6768362 magnetization 

 Broyden mixing:
  rms(total) = 0.40164E-01    rms(broyden)= 0.40163E-01
  rms(prec ) = 0.42317E-01
  weight for this iteration     100.00

 eigenvalues of (default mixing * dielectric matrix)
  average eigenvalue GAMMA=   1.4182
  2.5185  1.4562  0.9803  0.7178

 Free energy of the ion-electron system (eV)
  ---------------------------------------------------
  alpha Z        PSCENC =       112.48645157
  Ewald energy   TEWEN  =     22994.59377381
  -Hartree energ DENC   =    -27823.46474111
  -exchange      EXHF   =         0.00000000
  -V(xc)+E(xc)   XCENC  =      -405.02017979
  PAW double counting   =      5861.22719396    -5137.60285998
  entropy T*S    EENTRO =        -0.00419728
  eigenvalues    EBANDS =      -230.77672658
  atomic energy  EATOM  =      4496.35971583
  ---------------------------------------------------
  free energy    TOTEN  =      -132.20156956 eV

  energy without entropy =     -132.19737229  energy(sigma->0) =     -132.19947093


--------------------------------------------------------------------------------------------------------




----------------------------------------- Iteration    1(  10)  ---------------------------------------


    POTLOK:  cpu time    0.11: real time    0.11
    SETDIJ:  cpu time    0.11: real time    0.11
     EDDAV:  cpu time    5.28: real time    5.29
       DOS:  cpu time    0.00: real time    0.00
    CHARGE:  cpu time    0.41: real time    0.41
    MIXING:  cpu time    0.00: real time    0.00
    --------------------------------------------
      LOOP:  cpu time    5.92: real time    5.92

 eigenvalue-minimisations  :  3086
 total energy-change (2. order) :-0.1317566E-02  (-0.3195798E-02)
 number of electron      95.0000001 magnetization 
 augmentation part        5.6586695 magnetization 

 Broyden mixing:
  rms(total) = 0.27760E-01    rms(broyden)= 0.27751E-01
  rms(prec ) = 0.30156E-01
  weight for this iteration     100.00

 eigenvalues of (default mixing * dielectric matrix)
  average eigenvalue GAMMA=   1.3619
  2.5616  2.0003  0.9395  0.6540  0.6540

 Free energy of the ion-electron system (eV)
  ---------------------------------------------------
  alpha Z        PSCENC =       112.48645157
  Ewald energy   TEWEN  =     22994.59377381
  -Hartree energ DENC   =    -27827.37240274
  -exchange      EXHF   =         0.00000000
  -V(xc)+E(xc)   XCENC  =      -404.76171487
  PAW double counting   =      5840.42691361    -5116.84468847
  entropy T*S    EENTRO =        -0.00404123
  eigenvalues    EBANDS =      -227.08689463
  atomic energy  EATOM  =      4496.35971583
  ---------------------------------------------------
  free energy    TOTEN  =      -132.20288713 eV

  energy without entropy =     -132.19884590  energy(sigma->0) =     -132.20086652


--------------------------------------------------------------------------------------------------------




----------------------------------------- Iteration    1(  11)  ---------------------------------------


    POTLOK:  cpu time    0.11: real time    0.11
    SETDIJ:  cpu time    0.12: real time    0.12
     EDDAV:  cpu time    5.46: real time    5.47
       DOS:  cpu time    0.00: real time    0.00
    CHARGE:  cpu time    0.43: real time    0.43
    MIXING:  cpu time    0.00: real time    0.00
    --------------------------------------------
      LOOP:  cpu time    6.12: real time    6.13

 eigenvalue-minimisations  :  3306
 total energy-change (2. order) : 0.4299908E-03  (-0.1984644E-03)
 number of electron      95.0000001 magnetization 
 augmentation part        5.6605289 magnetization 

 Broyden mixing:
  rms(total) = 0.16993E-01    rms(broyden)= 0.16993E-01
  rms(prec ) = 0.19626E-01
  weight for this iteration     100.00

 eigenvalues of (default mixing * dielectric matrix)
  average eigenvalue GAMMA=   1.4885
  3.0077  2.4799  0.9657  0.9196  0.9196  0.6382

 Free energy of the ion-electron system (eV)
  ---------------------------------------------------
  alpha Z        PSCENC =       112.48645157
  Ewald energy   TEWEN  =     22994.59377381
  -Hartree energ DENC   =    -27827.88952264
  -exchange      EXHF   =         0.00000000
  -V(xc)+E(xc)   XCENC  =      -404.75310529
  PAW double counting   =      5815.59580440    -5092.01625237
  entropy T*S    EENTRO =        -0.00398607
  eigenvalues    EBANDS =      -226.57533636
  atomic energy  EATOM  =      4496.35971583
  ---------------------------------------------------
  free energy    TOTEN  =      -132.20245714 eV

  energy without entropy =     -132.19847107  energy(sigma->0) =     -132.20046410


--------------------------------------------------------------------------------------------------------




----------------------------------------- Iteration    1(  12)  ---------------------------------------


    POTLOK:  cpu time    0.12: real time    0.12
    SETDIJ:  cpu time    0.13: real time    0.13
     EDDAV:  cpu time    6.00: real time    6.01
       DOS:  cpu time    0.00: real time    0.00
    CHARGE:  cpu time    0.41: real time    0.41
    MIXING:  cpu time    0.00: real time    0.00
    --------------------------------------------
      LOOP:  cpu time    6.67: real time    6.68

 eigenvalue-minimisations  :  3530
 total energy-change (2. order) : 0.8015702E-03  (-0.2541943E-03)
 number of electron      95.0000001 magnetization 
 augmentation part        5.6636522 magnetization 

 Broyden mixing:
  rms(total) = 0.48941E-02    rms(broyden)= 0.48898E-02
  rms(prec ) = 0.97091E-02
  weight for this iteration     100.00

 eigenvalues of (default mixing * dielectric matrix)
  average eigenvalue GAMMA=   1.4291
  2.9046  2.5291  1.0270  1.0270  0.9410  0.9410  0.6342

 Free energy of the ion-electron system (eV)
  ---------------------------------------------------
  alpha Z        PSCENC =       112.48645157
  Ewald energy   TEWEN  =     22994.59377381
  -Hartree energ DENC   =    -27828.92797833
  -exchange      EXHF   =         0.00000000
  -V(xc)+E(xc)   XCENC  =      -404.74689871
  PAW double counting   =      5786.50750125    -5062.93255762
  entropy T*S    EENTRO =        -0.00398325
  eigenvalues    EBANDS =      -225.53768011
  atomic energy  EATOM  =      4496.35971583
  ---------------------------------------------------
  free energy    TOTEN  =      -132.20165557 eV

  energy without entropy =     -132.19767232  energy(sigma->0) =     -132.19966394


--------------------------------------------------------------------------------------------------------




----------------------------------------- Iteration    1(  13)  ---------------------------------------


    POTLOK:  cpu time    0.11: real time    0.11
    SETDIJ:  cpu time    0.11: real time    0.11
     EDDAV:  cpu time    5.17: real time    5.18
       DOS:  cpu time    0.00: real time    0.00
    CHARGE:  cpu time    0.41: real time    0.41
    MIXING:  cpu time    0.00: real time    0.00
    --------------------------------------------
      LOOP:  cpu time    5.81: real time    5.82

 eigenvalue-minimisations  :  3010
 total energy-change (2. order) : 0.3710486E-03  (-0.6388408E-04)
 number of electron      95.0000001 magnetization 
 augmentation part        5.6638943 magnetization 

 Broyden mixing:
  rms(total) = 0.35221E-02    rms(broyden)= 0.35217E-02
  rms(prec ) = 0.88363E-02
  weight for this iteration     100.00

 eigenvalues of (default mixing * dielectric matrix)
  average eigenvalue GAMMA=   1.4657
  3.1270  2.5950  1.3412  1.0283  1.0283  1.1025  0.6579  0.8451

 Free energy of the ion-electron system (eV)
  ---------------------------------------------------
  alpha Z        PSCENC =       112.48645157
  Ewald energy   TEWEN  =     22994.59377381
  -Hartree energ DENC   =    -27829.38042610
  -exchange      EXHF   =         0.00000000
  -V(xc)+E(xc)   XCENC  =      -404.75554582
  PAW double counting   =      5785.63209443    -5062.05671250
  entropy T*S    EENTRO =        -0.00401279
  eigenvalues    EBANDS =      -225.07662295
  atomic energy  EATOM  =      4496.35971583
  ---------------------------------------------------
  free energy    TOTEN  =      -132.20128452 eV

  energy without entropy =     -132.19727173  energy(sigma->0) =     -132.19927813


--------------------------------------------------------------------------------------------------------




----------------------------------------- Iteration    1(  14)  ---------------------------------------


    POTLOK:  cpu time    0.11: real time    0.11
    SETDIJ:  cpu time    0.10: real time    0.10
     EDDAV:  cpu time    5.49: real time    5.50
       DOS:  cpu time    0.00: real time    0.00
    CHARGE:  cpu time    0.42: real time    0.42
    MIXING:  cpu time    0.00: real time    0.00
    --------------------------------------------
      LOOP:  cpu time    6.13: real time    6.14

 eigenvalue-minimisations  :  3244
 total energy-change (2. order) : 0.9239389E-03  (-0.4078791E-04)
 number of electron      95.0000001 magnetization 
 augmentation part        5.6639255 magnetization 

 Broyden mixing:
  rms(total) = 0.44240E-02    rms(broyden)= 0.44236E-02
  rms(prec ) = 0.81999E-02
  weight for this iteration     100.00

 eigenvalues of (default mixing * dielectric matrix)
  average eigenvalue GAMMA=   1.4443
  3.1320  2.5165  2.0519  0.9510  0.9510  0.9981  0.9981  0.6513  0.7486

 Free energy of the ion-electron system (eV)
  ---------------------------------------------------
  alpha Z        PSCENC =       112.48645157
  Ewald energy   TEWEN  =     22994.59377381
  -Hartree energ DENC   =    -27830.70081486
  -exchange      EXHF   =         0.00000000
  -V(xc)+E(xc)   XCENC  =      -404.76095499
  PAW double counting   =      5781.42600640    -5057.84975673
  entropy T*S    EENTRO =        -0.00405257
  eigenvalues    EBANDS =      -223.75072904
  atomic energy  EATOM  =      4496.35971583
  ---------------------------------------------------
  free energy    TOTEN  =      -132.20036058 eV

  energy without entropy =     -132.19630801  energy(sigma->0) =     -132.19833430


--------------------------------------------------------------------------------------------------------




----------------------------------------- Iteration    1(  15)  ---------------------------------------


    POTLOK:  cpu time    0.11: real time    0.11
    SETDIJ:  cpu time    0.11: real time    0.11
     EDDAV:  cpu time    5.62: real time    5.63
       DOS:  cpu time    0.00: real time    0.00
    CHARGE:  cpu time    0.43: real time    0.43
    MIXING:  cpu time    0.01: real time    0.01
    --------------------------------------------
      LOOP:  cpu time    6.27: real time    6.28

 eigenvalue-minimisations  :  3356
 total energy-change (2. order) : 0.4376318E-03  (-0.2271983E-04)
 number of electron      95.0000001 magnetization 
 augmentation part        5.6638462 magnetization 

 Broyden mixing:
  rms(total) = 0.42281E-02    rms(broyden)= 0.42280E-02
  rms(prec ) = 0.75361E-02
  weight for this iteration     100.00

 eigenvalues of (default mixing * dielectric matrix)
  average eigenvalue GAMMA=   1.4137
  3.2948  2.5868  2.1140  0.6515  0.9643  0.9643  0.8951  0.8951  0.8854  0.8854

 Free energy of the ion-electron system (eV)
  ---------------------------------------------------
  alpha Z        PSCENC =       112.48645157
  Ewald energy   TEWEN  =     22994.59377381
  -Hartree energ DENC   =    -27831.41190293
  -exchange      EXHF   =         0.00000000
  -V(xc)+E(xc)   XCENC  =      -404.75909789
  PAW double counting   =      5783.21196064    -5059.63558566
  entropy T*S    EENTRO =        -0.00407297
  eigenvalues    EBANDS =      -223.04116534
  atomic energy  EATOM  =      4496.35971583
  ---------------------------------------------------
  free energy    TOTEN  =      -132.19992295 eV

  energy without entropy =     -132.19584998  energy(sigma->0) =     -132.19788646


--------------------------------------------------------------------------------------------------------




----------------------------------------- Iteration    1(  16)  ---------------------------------------


    POTLOK:  cpu time    0.11: real time    0.11
    SETDIJ:  cpu time    0.11: real time    0.11
     EDDAV:  cpu time    6.84: real time    6.85
       DOS:  cpu time    0.00: real time    0.00
    CHARGE:  cpu time    0.41: real time    0.42
    MIXING:  cpu time    0.01: real time    0.01
    --------------------------------------------
      LOOP:  cpu time    7.49: real time    7.50

 eigenvalue-minimisations  :  4312
 total energy-change (2. order) : 0.1882139E-02  (-0.2940763E-03)
 number of electron      95.0000001 magnetization 
 augmentation part        5.6635686 magnetization 

 Broyden mixing:
  rms(total) = 0.50007E-02    rms(broyden)= 0.49988E-02
  rms(prec ) = 0.57496E-02
  weight for this iteration     100.00

 eigenvalues of (default mixing * dielectric matrix)
  average eigenvalue GAMMA=   1.6152
  4.6605  2.7711  2.2454  1.6113  1.0327  1.0327  1.0477  1.0477  0.9451  0.6599
  0.7136

 Free energy of the ion-electron system (eV)
  ---------------------------------------------------
  alpha Z        PSCENC =       112.48645157
  Ewald energy   TEWEN  =     22994.59377381
  -Hartree energ DENC   =    -27835.51357885
  -exchange      EXHF   =         0.00000000
  -V(xc)+E(xc)   XCENC  =      -404.76718442
  PAW double counting   =      5778.47927115    -5054.90406366
  entropy T*S    EENTRO =        -0.00422837
  eigenvalues    EBANDS =      -218.92819786
  atomic energy  EATOM  =      4496.35971583
  ---------------------------------------------------
  free energy    TOTEN  =      -132.19804081 eV

  energy without entropy =     -132.19381244  energy(sigma->0) =     -132.19592663


--------------------------------------------------------------------------------------------------------




----------------------------------------- Iteration    1(  17)  ---------------------------------------


    POTLOK:  cpu time    0.11: real time    0.11
    SETDIJ:  cpu time    0.10: real time    0.11
     EDDAV:  cpu time    5.18: real time    5.19
       DOS:  cpu time    0.00: real time    0.00
    CHARGE:  cpu time    0.40: real time    0.40
    MIXING:  cpu time    0.01: real time    0.01
    --------------------------------------------
      LOOP:  cpu time    5.81: real time    5.81

 eigenvalue-minimisations  :  3084
 total energy-change (2. order) : 0.2908189E-04  (-0.2597191E-03)
 number of electron      95.0000001 magnetization 
 augmentation part        5.6643346 magnetization 

 Broyden mixing:
  rms(total) = 0.71067E-02    rms(broyden)= 0.71055E-02
  rms(prec ) = 0.73563E-02
  weight for this iteration     100.00

 eigenvalues of (default mixing * dielectric matrix)
  average eigenvalue GAMMA=   1.4918
  4.6863  2.7740  2.2633  1.5838  1.0406  1.0406  1.0460  1.0460  0.9529  0.6609
  0.7133  0.0940

 Free energy of the ion-electron system (eV)
  ---------------------------------------------------
  alpha Z        PSCENC =       112.48645157
  Ewald energy   TEWEN  =     22994.59377381
  -Hartree energ DENC   =    -27836.53814213
  -exchange      EXHF   =         0.00000000
  -V(xc)+E(xc)   XCENC  =      -404.77391794
  PAW double counting   =      5779.81632629    -5056.23918188
  entropy T*S    EENTRO =        -0.00427377
  eigenvalues    EBANDS =      -217.89876350
  atomic energy  EATOM  =      4496.35971583
  ---------------------------------------------------
  free energy    TOTEN  =      -132.19801173 eV

  energy without entropy =     -132.19373796  energy(sigma->0) =     -132.19587485


--------------------------------------------------------------------------------------------------------




----------------------------------------- Iteration    1(  18)  ---------------------------------------


    POTLOK:  cpu time    0.11: real time    0.11
    SETDIJ:  cpu time    0.11: real time    0.11
     EDDAV:  cpu time    5.05: real time    5.05
       DOS:  cpu time    0.00: real time    0.00
    CHARGE:  cpu time    0.42: real time    0.42
    MIXING:  cpu time    0.01: real time    0.01
    --------------------------------------------
      LOOP:  cpu time    5.69: real time    5.70

 eigenvalue-minimisations  :  2866
 total energy-change (2. order) : 0.8288471E-05  (-0.6308577E-04)
 number of electron      95.0000001 magnetization 
 augmentation part        5.6644451 magnetization 

 Broyden mixing:
  rms(total) = 0.70654E-02    rms(broyden)= 0.70650E-02
  rms(prec ) = 0.72946E-02
  weight for this iteration     100.00

 eigenvalues of (default mixing * dielectric matrix)
  average eigenvalue GAMMA=   1.4636
  4.2172  2.8632  2.0823  2.0823  1.2127  1.2127  1.0489  1.0489  0.8930  0.8333
  0.6540  0.4388  0.4388

 Free energy of the ion-electron system (eV)
  ---------------------------------------------------
  alpha Z        PSCENC =       112.48645157
  Ewald energy   TEWEN  =     22994.59377381
  -Hartree energ DENC   =    -27836.50975710
  -exchange      EXHF   =         0.00000000
  -V(xc)+E(xc)   XCENC  =      -404.77470141
  PAW double counting   =      5780.51445070    -5056.93680928
  entropy T*S    EENTRO =        -0.00427608
  eigenvalues    EBANDS =      -217.92685148
  atomic energy  EATOM  =      4496.35971583
  ---------------------------------------------------
  free energy    TOTEN  =      -132.19800344 eV

  energy without entropy =     -132.19372736  energy(sigma->0) =     -132.19586540


--------------------------------------------------------------------------------------------------------




----------------------------------------- Iteration    1(  19)  ---------------------------------------


    POTLOK:  cpu time    0.12: real time    0.12
    SETDIJ:  cpu time    0.11: real time    0.11
     EDDAV:  cpu time    5.12: real time    5.13
       DOS:  cpu time    0.00: real time    0.00
    CHARGE:  cpu time    0.41: real time    0.41
    MIXING:  cpu time    0.01: real time    0.01
    --------------------------------------------
      LOOP:  cpu time    5.76: real time    5.77

 eigenvalue-minimisations  :  3078
 total energy-change (2. order) : 0.1181592E-03  (-0.5367455E-04)
 number of electron      95.0000001 magnetization 
 augmentation part        5.6649469 magnetization 

 Broyden mixing:
  rms(total) = 0.18616E-02    rms(broyden)= 0.18589E-02
  rms(prec ) = 0.21834E-02
  weight for this iteration     100.00

 eigenvalues of (default mixing * dielectric matrix)
  average eigenvalue GAMMA=   1.6171
  6.3042  2.9513  2.4320  2.4320  1.1034  1.1034  1.1020  1.0239  1.0239  0.7640
  0.6538  0.6769  0.6769  0.3913

 Free energy of the ion-electron system (eV)
  ---------------------------------------------------
  alpha Z        PSCENC =       112.48645157
  Ewald energy   TEWEN  =     22994.59377381
  -Hartree energ DENC   =    -27836.70974692
  -exchange      EXHF   =         0.00000000
  -V(xc)+E(xc)   XCENC  =      -404.78156186
  PAW double counting   =      5781.92204843    -5058.34214510
  entropy T*S    EENTRO =        -0.00429418
  eigenvalues    EBANDS =      -217.72212686
  atomic energy  EATOM  =      4496.35971583
  ---------------------------------------------------
  free energy    TOTEN  =      -132.19788528 eV

  energy without entropy =     -132.19359110  energy(sigma->0) =     -132.19573819


--------------------------------------------------------------------------------------------------------




----------------------------------------- Iteration    1(  20)  ---------------------------------------


    POTLOK:  cpu time    0.11: real time    0.11
    SETDIJ:  cpu time    0.12: real time    0.12
     EDDAV:  cpu time    6.02: real time    6.04
       DOS:  cpu time    0.00: real time    0.00
    CHARGE:  cpu time    0.43: real time    0.43
    MIXING:  cpu time    0.01: real time    0.01
    --------------------------------------------
      LOOP:  cpu time    6.69: real time    6.70

 eigenvalue-minimisations  :  3604
 total energy-change (2. order) : 0.4546891E-04  (-0.1456515E-04)
 number of electron      95.0000001 magnetization 
 augmentation part        5.6643839 magnetization 

 Broyden mixing:
  rms(total) = 0.20297E-02    rms(broyden)= 0.20289E-02
  rms(prec ) = 0.21868E-02
  weight for this iteration     100.00

 eigenvalues of (default mixing * dielectric matrix)
  average eigenvalue GAMMA=   1.9484
 10.5071  3.6036  2.6288  2.4012  1.5829  1.0631  1.0631  1.1060  0.9521  0.9521
  0.8749  0.8749  0.6516  0.4823  0.4823

 Free energy of the ion-electron system (eV)
  ---------------------------------------------------
  alpha Z        PSCENC =       112.48645157
  Ewald energy   TEWEN  =     22994.59377381
  -Hartree energ DENC   =    -27837.26372334
  -exchange      EXHF   =         0.00000000
  -V(xc)+E(xc)   XCENC  =      -404.77355802
  PAW double counting   =      5784.27500316    -5060.69721785
  entropy T*S    EENTRO =        -0.00431852
  eigenvalues    EBANDS =      -217.17396645
  atomic energy  EATOM  =      4496.35971583
  ---------------------------------------------------
  free energy    TOTEN  =      -132.19783981 eV

  energy without entropy =     -132.19352130  energy(sigma->0) =     -132.19568055


--------------------------------------------------------------------------------------------------------




----------------------------------------- Iteration    1(  21)  ---------------------------------------


    POTLOK:  cpu time    0.12: real time    0.12
    SETDIJ:  cpu time    0.11: real time    0.11
     EDDAV:  cpu time    5.58: real time    5.59
       DOS:  cpu time    0.00: real time    0.00
    CHARGE:  cpu time    0.42: real time    0.42
    MIXING:  cpu time    0.01: real time    0.01
    --------------------------------------------
      LOOP:  cpu time    6.24: real time    6.25

 eigenvalue-minimisations  :  3270
 total energy-change (2. order) : 0.2513732E-04  (-0.9986543E-05)
 number of electron      95.0000001 magnetization 
 augmentation part        5.6641020 magnetization 

 Broyden mixing:
  rms(total) = 0.11336E-02    rms(broyden)= 0.11334E-02
  rms(prec ) = 0.12288E-02
  weight for this iteration     100.00

 eigenvalues of (default mixing * dielectric matrix)
  average eigenvalue GAMMA=   2.2236
 14.7208  4.2800  2.7211  2.5482  1.5825  1.1217  1.1217  1.2920  1.0067  1.0067
  0.9178  0.8627  0.6519  0.7507  0.4964  0.4964

 Free energy of the ion-electron system (eV)
  ---------------------------------------------------
  alpha Z        PSCENC =       112.48645157
  Ewald energy   TEWEN  =     22994.59377381
  -Hartree energ DENC   =    -27837.48901385
  -exchange      EXHF   =         0.00000000
  -V(xc)+E(xc)   XCENC  =      -404.77155470
  PAW double counting   =      5784.62252482    -5061.04627926
  entropy T*S    EENTRO =        -0.00432192
  eigenvalues    EBANDS =      -216.94911097
  atomic energy  EATOM  =      4496.35971583
  ---------------------------------------------------
  free energy    TOTEN  =      -132.19781467 eV

  energy without entropy =     -132.19349276  energy(sigma->0) =     -132.19565372


--------------------------------------------------------------------------------------------------------




----------------------------------------- Iteration    1(  22)  ---------------------------------------


    POTLOK:  cpu time    0.11: real time    0.11
    SETDIJ:  cpu time    0.11: real time    0.11
     EDDAV:  cpu time    5.58: real time    5.59
       DOS:  cpu time    0.00: real time    0.00
    --------------------------------------------
      LOOP:  cpu time    5.81: real time    5.81

 eigenvalue-minimisations  :  3252
 total energy-change (2. order) : 0.6914331E-05  (-0.8822498E-05)
 number of electron      95.0000001 magnetization 
 augmentation part        5.6641020 magnetization 

 Free energy of the ion-electron system (eV)
  ---------------------------------------------------
  alpha Z        PSCENC =       112.48645157
  Ewald energy   TEWEN  =     22994.59377381
  -Hartree energ DENC   =    -27837.62216458
  -exchange      EXHF   =         0.00000000
  -V(xc)+E(xc)   XCENC  =      -404.77422041
  PAW double counting   =      5783.81267619    -5060.23561536
  entropy T*S    EENTRO =        -0.00431577
  eigenvalues    EBANDS =      -216.81410904
  atomic energy  EATOM  =      4496.35971583
  ---------------------------------------------------
  free energy    TOTEN  =      -132.19780776 eV

  energy without entropy =     -132.19349199  energy(sigma->0) =     -132.19564987


--------------------------------------------------------------------------------------------------------




 average (electrostatic) potential at core
  the test charge radii are     0.7215  1.0714  1.0406
  (the norm of the test charge is              1.0000)
       1 -70.7852       2 -70.7801       3 -70.7814       4 -70.7820       5 -70.7836
       6 -70.8939       7 -70.9011       8 -70.7807       9 -70.7802      10 -36.8499
      11 -36.3545      12 -36.3552      13 -36.8472      14 -36.3507      15 -36.3614
      16 -36.3732      17 -36.3801      18 -36.3601      19 -36.3512      20 -75.3378
      21 -75.4463      22 -75.3493      23 -75.3387      24 -75.4464      25 -75.3387
      26 -75.3494
 
 
 
 E-fermi :   5.2985     XC(G=0):  -9.6860     alpha+bet :-11.4117


 k-point     1 :       0.0000    0.0000    0.0000
  band No.  band energies     occupation 
      1     -15.1167      2.00000
      2     -15.0509      2.00000
      3     -14.9428      2.00000
      4     -14.7968      2.00000
      5     -14.6222      2.00000
      6     -14.4363      2.00000
      7     -14.2574      2.00000
      8     -14.1064      2.00000
      9     -14.0068      2.00000
     10      -5.2431      2.00000
     11      -4.8119      2.00000
     12      -4.1578      2.00000
     13      -3.2729      2.00000
     14      -2.5190      2.00000
     15      -2.3375      2.00000
     16      -2.1605      2.00000
     17      -2.0225      2.00000
     18      -1.5730      2.00000
     19      -1.0105      2.00000
     20      -0.8229      2.00000
     21      -0.3610      2.00000
     22       0.3362      2.00000
     23       0.8034      2.00000
     24       1.0329      2.00000
     25       1.4308      2.00000
     26       1.4308      2.00000
     27       1.4652      2.00000
     28       1.4652      2.00000
     29       1.5219      2.00000
     30       1.5219      2.00000
     31       1.5979      2.00000
     32       1.5979      2.00000
     33       1.6145      2.00000
     34       1.6881      2.00000
     35       1.6881      2.00000
     36       1.7820      2.00000
     37       1.7820      2.00000
     38       1.8711      2.00000
     39       1.8711      2.00000
     40       1.9447      2.00000
     41       1.9447      2.00000
     42       1.9924      2.00000
     43       1.9924      2.00000
     44       2.1429      2.00000
     45       3.0270      2.00000
     46       3.0905      2.00000
     47       4.2250      2.00000
     48       6.0349      0.00000
     49       6.5501      0.00000
     50       7.0129      0.00000
     51       7.3046      0.00000
     52       7.9859      0.00000
     53       7.9881      0.00000
     54       8.7263      0.00000
     55       8.9101      0.00000
     56       9.4093      0.00000
     57       9.5854      0.00000
     58       9.7438      0.00000
     59       9.9130      0.00000
     60      10.8744      0.00000
     61      11.9307      0.00000
     62      13.2950      0.00000

 k-point     2 :       0.0769   -0.0000    0.0000
  band No.  band energies     occupation 
      1     -15.0633      2.00000
      2     -14.9992      2.00000
      3     -14.8937      2.00000
      4     -14.7513      2.00000
      5     -14.5810      2.00000
      6     -14.4000      2.00000
      7     -14.2260      2.00000
      8     -14.0794      2.00000
      9     -13.9828      2.00000
     10      -5.1129      2.00000
     11      -4.6820      2.00000
     12      -4.0284      2.00000
     13      -3.1441      2.00000
     14      -2.4385      2.00000
     15      -2.2625      2.00000
     16      -2.0326      2.00000
     17      -1.9594      2.00000
     18      -1.5294      2.00000
     19      -0.9944      2.00000
     20      -0.6964      2.00000
     21      -0.3839      2.00000
     22       0.2605      2.00000
     23       0.8664      2.00000
     24       0.9451      2.00000
     25       1.2022      2.00000
     26       1.2447      2.00000
     27       1.3030      2.00000
     28       1.3652      2.00000
     29       1.3867      2.00000
     30       1.4164      2.00000
     31       1.4214      2.00000
     32       1.4786      2.00000
     33       1.5232      2.00000
     34       1.5552      2.00000
     35       1.6014      2.00000
     36       1.6462      2.00000
     37       1.6605      2.00000
     38       1.7409      2.00000
     39       1.7575      2.00000
     40       1.8219      2.00000
     41       1.8308      2.00000
     42       1.9052      2.00000
     43       1.9533      2.00000
     44       2.2628      2.00000
     45       3.1578      2.00000
     46       3.2172      2.00000
     47       4.3486      2.00000
     48       6.1638      0.00000
     49       6.8835      0.00000
     50       7.2963      0.00000
     51       7.5195      0.00000
     52       8.1622      0.00000
     53       8.2082      0.00000
     54       8.9350      0.00000
     55       9.1158      0.00000
     56       9.6533      0.00000
     57       9.8252      0.00000
     58      10.0238      0.00000
     59      10.1005      0.00000
     60      10.9933      0.00000
     61      11.9717      0.00000
     62      12.5235      0.00000

 k-point     3 :       0.1538   -0.0000    0.0000
  band No.  band energies     occupation 
      1     -14.9101      2.00000
      2     -14.8509      2.00000
      3     -14.7533      2.00000
      4     -14.6217      2.00000
      5     -14.4646      2.00000
[...]
     45       4.6201      2.00000
     46       4.8942      2.00000
     47       5.1022      2.00000
     48       5.4657      0.00000
     49       5.6860      0.00000
     50       5.7417      0.00000
     51       5.7991      0.00000
     52       6.0305      0.00000
     53       6.4982      0.00000
     54       6.6839      0.00000
     55       7.5151      0.00000
     56       7.7445      0.00000
     57       8.0728      0.00000
     58       8.9658      0.00000
     59       9.1926      0.00000
     60       9.6315      0.00000
     61      10.2201      0.00000
     62      10.3411      0.00000

 k-point    19 :       0.3077    0.2308    0.0000
  band No.  band energies     occupation 
      1     -13.9696      2.00000
      2     -13.9635      2.00000
      3     -13.9367      2.00000
      4     -13.9029      2.00000
      5     -13.8602      2.00000
      6     -13.8148      2.00000
      7     -13.7728      2.00000
      8     -13.7394      2.00000
      9     -13.7137      2.00000
     10      -1.9416      2.00000
     11      -1.8491      2.00000
     12      -1.7099      2.00000
     13      -1.6910      2.00000
     14      -1.6395      2.00000
     15      -1.5720      2.00000
     16      -1.5294      2.00000
     17      -1.3767      2.00000
     18      -1.2161      2.00000
     19      -0.8051      2.00000
     20      -0.6579      2.00000
     21      -0.5613      2.00000
     22      -0.5128      2.00000
     23      -0.3352      2.00000
     24      -0.2062      2.00000
     25      -0.1405      2.00000
     26      -0.1385      2.00000
     27      -0.0977      2.00000
     28      -0.0033      2.00000
     29       0.1420      2.00000
     30       0.2555      2.00000
     31       0.3191      2.00000
     32       0.4777      2.00000
     33       0.5072      2.00000
     34       0.6489      2.00000
     35       0.7684      2.00000
     36       0.8349      2.00000
     37       0.9426      2.00000
     38       1.0319      2.00000
     39       1.1436      2.00000
     40       1.3778      2.00000
     41       2.4555      2.00000
     42       2.6826      2.00000
     43       3.0830      2.00000
     44       3.5331      2.00000
     45       3.9082      2.00000
     46       4.2680      2.00000
     47       4.5902      2.00000
     48       4.7217      2.00000
     49       5.1975      1.99611
     50       5.5313      0.00000
     51       5.8912      0.00000
     52       6.3489      0.00000
     53       6.6125      0.00000
     54       6.6822      0.00000
     55       6.8732      0.00000
     56       7.1520      0.00000
     57       7.5468      0.00000
     58       8.6759      0.00000
     59       8.7352      0.00000
     60       9.0693      0.00000
     61       9.4398      0.00000
     62       9.4690      0.00000

 k-point    20 :       0.3846    0.2308    0.0000
  band No.  band energies     occupation 
      1     -13.8862      2.00000
      2     -13.8847      2.00000
      3     -13.8574      2.00000
      4     -13.8429      2.00000
      5     -13.8198      2.00000
      6     -13.7944      2.00000
      7     -13.7701      2.00000
      8     -13.7501      2.00000
      9     -13.7329      2.00000
     10      -2.0255      2.00000
     11      -1.9247      2.00000
     12      -1.7617      2.00000
     13      -1.5817      2.00000
     14      -1.5648      2.00000
     15      -1.5437      2.00000
     16      -1.5004      2.00000
     17      -1.4504      2.00000
     18      -1.4438      2.00000
     19      -0.6249      2.00000
     20      -0.6091      2.00000
     21      -0.5458      2.00000
     22      -0.4956      2.00000
     23      -0.4885      2.00000
     24      -0.4325      2.00000
     25      -0.2986      2.00000
     26      -0.1164      2.00000
     27       0.0691      2.00000
     28       0.3641      2.00000
     29       0.3856      2.00000
     30       0.5732      2.00000
     31       0.6172      2.00000
     32       0.6957      2.00000
     33       0.7904      2.00000
     34       0.9287      2.00000
     35       0.9443      2.00000
     36       0.9445      2.00000
     37       1.0149      2.00000
     38       1.0189      2.00000
     39       1.3562      2.00000
     40       1.3626      2.00000
     41       1.9648      2.00000
     42       2.0233      2.00000
     43       2.7740      2.00000
     44       2.8822      2.00000
     45       3.7571      2.00000
     46       4.1421      2.00000
     47       4.2354      2.00000
     48       4.5382      2.00000
     49       5.0071      2.00000
     50       5.1825      1.99907
     51       5.6687      0.00000
     52       6.2708      0.00000
     53       6.9351      0.00000
     54       7.2899      0.00000
     55       7.3728      0.00000
     56       7.3871      0.00000
     57       7.4111      0.00000
     58       8.0238      0.00000
     59       8.4497      0.00000
     60       8.6429      0.00000
     61       8.7106      0.00000
     62       8.7344      0.00000

 k-point    21 :       0.3077    0.3077   -0.0000
  band No.  band energies     occupation 
      1     -13.8602      2.00000
      2     -13.8581      2.00000
      3     -13.8245      2.00000
      4     -13.8148      2.00000
      5     -13.7976      2.00000
      6     -13.7797      2.00000
      7     -13.7635      2.00000
      8     -13.7503      2.00000
      9     -13.7380      2.00000
     10      -1.6699      2.00000
     11      -1.6689      2.00000
     12      -1.5821      2.00000
     13      -1.5783      2.00000
     14      -1.4670      2.00000
     15      -1.4250      2.00000
     16      -1.2737      2.00000
     17      -1.2550      2.00000
     18      -1.1637      2.00000
     19      -1.0434      2.00000
     20      -0.9950      2.00000
     21      -0.8320      2.00000
     22      -0.7887      2.00000
     23      -0.6943      2.00000
     24      -0.5637      2.00000
     25      -0.5399      2.00000
     26      -0.3773      2.00000
     27      -0.3756      2.00000
     28       0.3722      2.00000
     29       0.3899      2.00000
     30       0.5971      2.00000
     31       0.7262      2.00000
     32       0.7825      2.00000
     33       0.8201      2.00000
     34       0.8349      2.00000
     35       0.8409      2.00000
     36       0.8676      2.00000
     37       0.9778      2.00000
     38       1.2374      2.00000
     39       1.8709      2.00000
     40       2.4322      2.00000
     41       2.4340      2.00000
     42       2.7113      2.00000
     43       2.8433      2.00000
     44       2.8444      2.00000
     45       3.4330      2.00000
     46       3.4584      2.00000
     47       3.6790      2.00000
     48       4.1847      2.00000
     49       4.5408      2.00000
     50       5.0663      2.00000
     51       5.6545      0.00000
     52       5.8501      0.00000
     53       6.8500      0.00000
     54       6.9703      0.00000
     55       7.0522      0.00000
     56       7.5354      0.00000
     57       7.5518      0.00000
     58       8.1367      0.00000
     59       8.4177      0.00000
     60       8.7158      0.00000
     61       9.2310      0.00000
     62       9.2567      0.00000


--------------------------------------------------------------------------------------------------------


 soft charge-density along one line, spin component           1
         0         1         2         3         4         5         6         7         8         9
 total charge-density along one line
 
 pseudopotential strength for first ion, spin component:           1
 12.292   0.000 -14.965   0.000  -0.000   0.000  -0.000   0.000   0.000   0.000   0.000   0.000   0.000   0.000  -0.000   0.000
-14.965   0.000  18.239   0.000   0.000   0.000   0.000   0.000  -0.000   0.000  -0.000   0.000  -0.000   0.000   0.000   0.000
 -0.000   0.000   0.000   0.000  -8.460   0.000  -0.000   0.000   0.000   0.000  10.158   0.000   0.000   0.000  -0.000   0.000
 -0.000   0.000   0.000   0.000  -0.000   0.000  -8.462   0.000   0.000   0.000   0.000   0.000  10.160   0.000  -0.000   0.000
  0.000   0.000  -0.000   0.000   0.000   0.000   0.000   0.000  -8.460   0.000  -0.000   0.000  -0.000   0.000  10.158   0.000
  0.000   0.000  -0.000   0.000  10.158   0.000   0.000   0.000  -0.000   0.000 -12.042   0.000  -0.000   0.000   0.000   0.000
  0.000   0.000  -0.000   0.000   0.000   0.000  10.160   0.000  -0.000   0.000  -0.000   0.000 -12.045   0.000   0.000   0.000
 -0.000   0.000   0.000   0.000  -0.000   0.000  -0.000   0.000  10.158   0.000   0.000   0.000   0.000   0.000 -12.042   0.000
 total augmentation occupancy for first ion, spin component:           1
  2.607   0.366   0.000  -0.000  -0.000   0.000  -0.000   0.000
  0.366   0.069   0.000   0.000  -0.000   0.000  -0.000   0.000
  0.000  -0.000   2.165  -0.000   0.000   0.261  -0.000   0.000
 -0.000   0.000  -0.000   2.164  -0.000  -0.000   0.263   0.000
  0.000   0.000   0.000   0.000   2.165   0.000   0.000   0.261
  0.000   0.000   0.261  -0.000   0.000   0.034  -0.000   0.000
 -0.000  -0.000  -0.000   0.263   0.000  -0.000   0.034   0.000
  0.000   0.000   0.000   0.000   0.261   0.000   0.000   0.034


------------------------ aborting loop because EDIFF is reached ----------------------------------------


    CHARGE:  cpu time    0.41: real time    0.42
    FORLOC:  cpu time    0.04: real time    0.04
    FORNL :  cpu time    3.23: real time    3.24
    STRESS:  cpu time    4.43: real time    4.44
    FORCOR:  cpu time    0.16: real time    0.16
    FORHAR:  cpu time    0.06: real time    0.06
    MIXING:  cpu time    0.00: real time    0.00
    OFIELD:  cpu time    0.00: real time    0.00

  FORCE on cell =-STRESS in cart. coord.  units (eV):
  Direction    XX          YY          ZZ          XY          YZ          ZX
  --------------------------------------------------------------------------------------
  Alpha Z   112.48645   112.48645   112.48645
  Ewald   26142.75071 26142.75100-28619.59130    -0.00002    -0.00003    -0.00013
  Hartree 27647.76077 27647.76070-26792.05725    -0.00000    -0.00000     0.00004
  E(xc)    -389.26949  -389.26950  -389.73590    -0.00000     0.00000    -0.00000
  Local  -54918.56765-54918.56717 54281.83031    -0.00016     0.00003     0.00004
  n-local   -24.72942   -35.03846   -26.98846     2.64614    -1.65687     5.31476
  augment    53.67836    53.67813    53.34422     0.00016    -0.00000     0.00000
  Kinetic  1400.60422  1356.65497  1378.56952     0.16911    -0.31497     1.01707
  Fock        0.00000     0.00000     0.00000     0.00000     0.00000     0.00000
  -------------------------------------------------------------------------------------
  Total      -2.41497    -2.41497    -2.14240     0.00000     0.00000     0.00000
  in kB     -10.76402   -10.76401    -9.54911     0.00000     0.00000     0.00000
  external pressure =      -10.36 kB  Pullay stress =        0.00 kB


 VOLUME and BASIS-vectors are now :
 -----------------------------------------------------------------------------
  energy-cutoff  :      520.00
  volume of cell :      359.46
      direct lattice vectors                 reciprocal lattice vectors
     2.591982046 -1.496481076  0.000000000     0.385805142 -0.000000000 -0.000000000
     0.000000000  2.992962152  0.000000000     0.192902571  0.334117155  0.000000000
     0.000000000 -0.000000000 46.335651528     0.000000000  0.000000000  0.021581654

  length of vectors
     2.992962836  2.992962152 46.335651528     0.385805142  0.385805230  0.021581654


 FORCES acting on ions
    electron-ion (+dipol)            ewald-force                    non-local-force                 convergence-correction
 -----------------------------------------------------------------------------------------------
   -.372E-07 0.426E-10 0.124E+04   0.707E-07 -.594E-07 -.124E+04   0.589E-19 -.175E-17 0.545E-01   -.155E-09 0.363E-09 0.167E-01
   0.106E-02 -.184E-02 0.825E+03   0.586E-04 -.102E-03 -.825E+03   -.480E-19 -.334E-19 0.174E-01   0.211E-08 -.348E-08 0.116E-01
   -.814E-09 0.151E-09 0.308E-01   -.170E-08 0.220E-08 -.323E-01   0.834E-21 -.956E-20 0.304E-02   0.156E-10 -.217E-10 -.293E-03
   0.106E-02 -.184E-02 -.412E+03   0.585E-04 -.101E-03 0.412E+03   -.424E-20 0.114E-19 0.593E-02   0.218E-08 -.376E-08 -.581E-02
   0.406E-07 -.575E-09 -.124E+04   -.365E-07 0.197E-07 0.124E+04   -.990E-19 0.891E-18 -.651E-01   0.166E-09 -.421E-09 -.176E-01
   0.107E-02 -.185E-02 -.164E+04   0.530E-04 -.883E-04 0.165E+04   0.498E-18 0.232E-17 -.162E+01   -.172E-08 0.293E-08 -.134E-01
   -.107E-02 0.185E-02 0.164E+04   -.530E-04 0.883E-04 -.165E+04   0.210E-17 -.405E-17 0.162E+01   -.392E-09 0.715E-09 0.128E-01
   -.106E-02 0.184E-02 0.412E+03   -.585E-04 0.101E-03 -.412E+03   -.232E-19 -.127E-19 -.245E-02   -.254E-08 0.442E-08 0.565E-02
   -.106E-02 0.184E-02 -.824E+03   -.586E-04 0.102E-03 0.825E+03   0.479E-19 0.531E-20 -.148E-01   -.639E-08 0.109E-07 -.115E-01
   -.982E-05 0.265E-05 0.599E+03   0.237E-04 -.251E-04 -.598E+03   0.686E-17 -.275E-16 -.711E+00   -.226E-09 0.384E-09 0.459E-02
   -.196E-08 0.125E-07 0.206E+03   -.134E-07 0.154E-07 -.206E+03   0.107E-19 -.145E-19 0.263E-02   0.810E-10 -.140E-09 0.282E-02
   -.304E-08 -.442E-08 -.206E+03   0.150E-07 -.172E-07 0.206E+03   -.141E-19 -.262E-19 -.257E-02   0.131E-09 -.257E-09 -.279E-02
   0.981E-05 -.264E-05 -.599E+03   -.237E-04 0.251E-04 0.598E+03   -.207E-16 0.414E-16 0.711E+00   0.252E-09 -.446E-09 -.445E-02
   0.443E-04 -.768E-04 0.344E+03   -.500E-04 0.866E-04 -.344E+03   0.660E-19 -.107E-18 -.424E-02   0.592E-09 -.111E-08 0.511E-02
   0.443E-04 -.767E-04 -.687E+02   -.499E-04 0.864E-04 0.687E+02   0.868E-22 -.648E-20 -.816E-03   0.447E-10 -.748E-10 -.104E-02
   0.445E-04 -.771E-04 -.482E+03   -.502E-04 0.870E-04 0.481E+03   -.141E-17 -.176E-17 0.568E-01   0.231E-10 -.786E-10 -.513E-02
   -.445E-04 0.771E-04 0.482E+03   0.501E-04 -.870E-04 -.482E+03   -.115E-18 0.349E-17 -.526E-01   -.238E-09 0.472E-09 0.489E-02
   -.443E-04 0.767E-04 0.687E+02   0.499E-04 -.864E-04 -.687E+02   -.578E-21 0.266E-19 0.132E-02   -.336E-10 0.614E-10 0.814E-03
   -.443E-04 0.768E-04 -.344E+03   0.500E-04 -.866E-04 0.344E+03   -.422E-19 0.161E-18 0.582E-02   -.681E-09 0.128E-08 -.529E-02
   0.998E-10 -.127E-09 -.107E+00   -.321E-10 0.322E-10 0.107E+00   -.449E-21 0.217E-21 -.140E-04   0.329E-12 -.424E-12 0.452E-04
   -.402E-06 -.359E-07 0.334E+03   0.242E-05 -.226E-05 -.335E+03   -.596E-16 0.549E-16 0.166E+01   -.790E-12 0.169E-11 0.385E-02
   0.150E-04 -.260E-04 0.220E+03   -.403E-05 0.705E-05 -.220E+03   0.241E-17 -.277E-16 -.673E-01   0.352E-11 -.518E-11 0.241E-02
   -.150E-04 0.259E-04 0.109E+03   0.421E-05 -.724E-05 -.109E+03   -.143E-17 0.317E-19 -.881E-01   -.311E-11 0.514E-11 0.117E-02
   0.402E-06 0.360E-07 -.334E+03   -.242E-05 0.226E-05 0.336E+03   0.458E-16 0.597E-18 -.166E+01   0.632E-12 -.156E-11 -.367E-02
   0.150E-04 -.259E-04 -.110E+03   -.420E-05 0.724E-05 0.110E+03   -.204E-17 -.177E-17 0.881E-01   0.292E-11 -.491E-11 -.107E-02
   -.150E-04 0.260E-04 -.221E+03   0.403E-05 -.705E-05 0.221E+03   0.452E-17 -.555E-16 0.673E-01   -.334E-11 0.481E-11 -.227E-02
 -----------------------------------------------------------------------------------------------
   0.226E-07 -.179E-07 -.494E-02   -.943E-13 -.425E-13 0.938E-12   -.233E-16 -.165E-16 0.680E-02   -.679E-08 0.118E-07 -.183E-02
 
 
 POSITION                                       TOTAL-FORCE (eV/Angst)
 -----------------------------------------------------------------------------------
     -0.00000     -0.00000     16.96933         0.000000     -0.000000     -0.000313
      0.86399      1.49648     19.43262         0.000000      0.000000      0.007630
     -0.00000     -0.00000     24.36293         0.000000     -0.000000      0.001244
      0.86399      1.49648     26.82836         0.000000     -0.000000      0.002177
     -0.00000     -0.00000     31.75709         0.000000      0.000000     -0.006234
      0.86399      1.49648     34.21552        -0.000000      0.000000      0.008502
      1.72799     -0.00000     14.51054        -0.000000      0.000000     -0.007549
      1.72799     -0.00000     21.89765        -0.000000      0.000000     -0.001188
      1.72799     -0.00000     29.29348        -0.000000     -0.000000     -0.006968
     -0.00000     -0.00000     13.22864         0.000000     -0.000000      0.007617
     -0.00000     -0.00000     20.66497         0.000000     -0.000000      0.006852
     -0.00000     -0.00000     28.06110         0.000000      0.000000     -0.008461
     -0.00000     -0.00000     35.49760         0.000000      0.000000     -0.010374
      1.72799     -0.00000     18.20129         0.000000     -0.000000     -0.001286
      1.72799     -0.00000     25.59576         0.000000     -0.000000     -0.003178
      1.72799     -0.00000     32.98820         0.000000      0.000000     -0.012331
      0.86399      1.49648     15.73764         0.000000     -0.000000      0.019082
      0.86399      1.49648     23.13018         0.000000     -0.000000      0.002350
      0.86399      1.49648     30.52480         0.000000     -0.000000      0.002538
     -0.00000     -0.00000      1.19426         0.000000     -0.000000     -0.000010
     -0.00000     -0.00000      7.91389         0.000000     -0.000000     -0.004370
      1.72799     -0.00000      5.65695         0.000000     -0.000000     -0.001539
      0.86399      1.49648      3.42043         0.000000     -0.000000      0.004495
     -0.00000     -0.00000     40.81024         0.000000     -0.000000      0.004323
      1.72799     -0.00000     45.30374         0.000000      0.000000     -0.004515
      0.86399      1.49648     43.06720         0.000000     -0.000000      0.001506
 -----------------------------------------------------------------------------------
    total drift:                                0.000000     -0.000000      0.000030


--------------------------------------------------------------------------------------------------------



  FREE ENERGIE OF THE ION-ELECTRON SYSTEM (eV)
  ---------------------------------------------------
  free  energy   TOTEN  =      -132.21986737 eV

  energy  without entropy=     -132.21753210  energy(sigma->0) =     -132.21869974
 
 d Force = 0.7902418E-06[ 0.523E-06, 0.106E-05]  d Energy =-0.5835300E-06 0.137E-05
 d Force = 0.3689243E+00[ 0.369E+00, 0.369E+00]  d Ewald  = 0.3689243E+00 0.800E-10


--------------------------------------------------------------------------------------------------------


    POTLOK:  cpu time    0.23: real time    0.23


--------------------------------------------------------------------------------------------------------




--------------------------------------------------------------------------------------------------------


  
 reached required accuracy - stopping structural energy minimisation
     LOOP+:  cpu time   32.47: real time   32.53
    4ORBIT:  cpu time    0.00: real time    0.00

 total amount of memory used by VASP on root node   158215. kBytes
========================================================================

   base      :      30000. kBytes
   nonl-proj :      17183. kBytes
   fftplans  :      60349. kBytes
   grid      :      24192. kBytes
   one-center:         56. kBytes
   wavefun   :      26435. kBytes
 
  
  
 General timing and accounting informations for this job:
 ========================================================
  
                  Total CPU time used (sec):     1709.057
                            User time (sec):     1687.775
                          System time (sec):       21.282
                         Elapsed time (sec):     1711.500
  
                   Maximum memory used (kb):      267076.
                   Average memory used (kb):           0.
  
                          Minor page faults:       395155
                          Major page faults:            0
                 Voluntary context switches:          306
