       N       E                     dE             d eps       ncg     rms          rms(c)
DAV:   1     0.513038291010E+03    0.51304E+03   -0.40713E+04  6100   0.130E+03
DAV:   2    -0.798210731707E+02   -0.59286E+03   -0.55960E+03  7888   0.255E+02
DAV:   3    -0.146350313807E+03   -0.66529E+02   -0.66104E+02  7128   0.914E+01
DAV:   4    -0.147692048323E+03   -0.13417E+01   -0.13389E+01  7256   0.142E+01
DAV:   5    -0.147724968033E+03   -0.32920E-01   -0.32898E-01  7644   0.217E+00    0.221E+01
DAV:   6    -0.132719350051E+03    0.15006E+02   -0.81970E+01  6956   0.290E+01    0.733E+00
DAV:   7    -0.132586120497E+03    0.13323E+00   -0.18667E+00  6732   0.494E+00    0.457E+00
DAV:   8    -0.132458320207E+03    0.12780E+00   -0.61703E-01  6980   0.394E+00    0.102E+00
DAV:   9    -0.132441346754E+03    0.16973E-01   -0.88186E-02  6982   0.132E+00    0.604E-01
DAV:  10    -0.132438772969E+03    0.25738E-02   -0.39758E-02  6976   0.675E-01    0.339E-01
DAV:  11    -0.132442982242E+03   -0.42093E-02   -0.21665E-02  7226   0.599E-01    0.251E-01
DAV:  12    -0.132443067383E+03   -0.85141E-04   -0.34994E-03  7914   0.308E-01    0.163E-01
DAV:  13    -0.132443084474E+03   -0.17090E-04   -0.42760E-03  7182   0.268E-01    0.732E-02
DAV:  14    -0.132443001558E+03    0.82916E-04   -0.10910E-03  6876   0.118E-01    0.465E-02
DAV:  15    -0.132442817511E+03    0.18405E-03   -0.38951E-04  6866   0.113E-01    0.263E-02
DAV:  16    -0.132442391519E+03    0.42599E-03   -0.49492E-04  7562   0.210E-01    0.343E-02
DAV:  17    -0.132442044822E+03    0.34670E-03   -0.35723E-04  7880   0.183E-01    0.216E-02
DAV:  18    -0.132441632596E+03    0.41223E-03   -0.26435E-04  9168   0.232E-01    0.135E-02
DAV:  19    -0.132441264895E+03    0.36770E-03   -0.38950E-04  8360   0.317E-01    0.175E-02
DAV:  20    -0.132441195311E+03    0.69584E-04   -0.60654E-04  7842   0.232E-01    0.177E-02
DAV:  21    -0.132441193088E+03    0.22238E-05   -0.37690E-04  7272   0.164E-01    0.172E-02
DAV:  22    -0.132441194798E+03   -0.17107E-05   -0.14396E-04  6876   0.630E-02    0.184E-02
DAV:  23    -0.132441184581E+03    0.10218E-04   -0.24669E-05  5700   0.366E-02    0.912E-03
DAV:  24    -0.132441181580E+03    0.30004E-05   -0.46666E-05  6136   0.563E-02
   1 F= -.13244118E+03 E0= -.13243760E+03  d E =-.132441E+03
       N       E                     dE             d eps       ncg     rms          rms(c)
DAV:   1    -0.132441246177E+03   -0.61596E-04   -0.17393E-02  6720   0.554E-01    0.182E-02
DAV:   2    -0.132441272761E+03   -0.26584E-04   -0.41963E-04  6858   0.869E-02    0.131E-02
DAV:   3    -0.132441265515E+03    0.72453E-05   -0.51631E-05  4960   0.279E-02    0.993E-03
DAV:   4    -0.132441262062E+03    0.34530E-05   -0.85255E-06  3662   0.129E-02    0.798E-03
DAV:   5    -0.132441252031E+03    0.10032E-04   -0.67137E-06  4190   0.257E-02    0.519E-03
DAV:   6    -0.132441241522E+03    0.10509E-04   -0.98766E-06  4440   0.411E-02    0.486E-03
DAV:   7    -0.132441239701E+03    0.18209E-05   -0.15543E-05  4462   0.227E-02
   2 F= -.13244124E+03 E0= -.13243765E+03  d E =-.581207E-04
