 vasp.5.3.5 31Mar14 (build Apr 08 2024 10:12:10) complex                        
  
 executed on             LinuxIFC date 2024.07.31  08:52:10
 running on    8 total cores
 distrk:  each k-point on    8 cores,    1 groups
 distr:  one band on NCORES_PER_BAND=   4 cores,    2 groups


--------------------------------------------------------------------------------------------------------


 INCAR:
 POTCAR:    PAW_PBE O 08Apr2002                   
 POTCAR:    PAW_PBE Mg 13Apr2007                  
 POTCAR:    PAW_PBE Al 04Jan2001                  
 POTCAR:    PAW_PBE O 08Apr2002                   
   VRHFIN =O: s2p4                                                              
   LEXCH  = PE                                                                  
   EATOM  =   432.3788 eV,   31.7789 Ry                                         
                                                                                
   TITEL  = PAW_PBE O 08Apr2002                                                 
   LULTRA =        F    use ultrasoft PP ?                                      
   IUNSCR =        1    unscreen: 0-lin 1-nonlin 2-no                           
   RPACOR =    1.200    partial core radius                                     
   POMASS =   16.000; ZVAL   =    6.000    mass and valenz                      
   RCORE  =    1.520    outmost cutoff radius                                   
   RWIGS  =    1.550; RWIGS  =    0.820    wigner-seitz radius (au A)           
   ENMAX  =  400.000; ENMIN  =  300.000 eV                                      
   ICORE  =        2    local potential                                         
   LCOR   =        T    correct aug charges                                     
   LPAW   =        T    paw PP                                                  
   EAUG   =  605.392                                                            
   DEXC   =    0.000                                                            
   RMAX   =    1.553    core radius for proj-oper                               
   RAUG   =    1.300    factor for augmentation sphere                          
   RDEP   =    1.550    radius for radial grids                                 
   RDEPT  =    1.329    core radius for aug-charge                              
                                                                                
   Atomic configuration                                                         
    4 entries                                                                   
     n  l   j            E        occ.                                          
     1  0  0.50      -514.6923   2.0000                                         
     2  0  0.50       -23.9615   2.0000                                         
     2  1  0.50        -9.0305   4.0000                                         
     3  2  1.50        -9.5241   0.0000                                         
   Description                                                                  
     l       E           TYP  RCUT    TYP  RCUT                                 
     0    -23.9615318     23  1.200                                             
     0     -9.5240782     23  1.200                                             
     1     -9.0304911     23  1.520                                             
     1      8.1634956     23  1.520                                             
     2     -9.5240782      7  1.500                                             
  local pseudopotential read in
  partial core-charges read in
  partial kinetic energy density read in
  kinetic energy density of atom read in
  atomic valenz-charges read in
  non local Contribution for L=           0  read in
    real space projection operators read in
  non local Contribution for L=           0  read in
    real space projection operators read in
  non local Contribution for L=           1  read in
    real space projection operators read in
  non local Contribution for L=           1  read in
    real space projection operators read in
    PAW grid and wavefunctions read in
 
   number of l-projection  operators is LMAX  =           4
   number of lm-projection operators is LMMAX =           8
 
 POTCAR:    PAW_PBE Mg 13Apr2007                  
   VRHFIN =Mg: s2p0                                                             
   LEXCH  = PE                                                                  
   EATOM  =    23.0369 eV,    1.6932 Ry                                         
                                                                                
   TITEL  = PAW_PBE Mg 13Apr2007                                                
   LULTRA =        F    use ultrasoft PP ?                                      
   IUNSCR =        1    unscreen: 0-lin 1-nonlin 2-no                           
   RPACOR =    1.500    partial core radius                                     
   POMASS =   24.305; ZVAL   =    2.000    mass and valenz                      
   RCORE  =    2.000    outmost cutoff radius                                   
   RWIGS  =    2.880; RWIGS  =    1.524    wigner-seitz radius (au A)           
   ENMAX  =  200.000; ENMIN  =  100.000 eV                                      
   RCLOC  =    1.506    cutoff for local pot                                    
   LCOR   =        T    correct aug charges                                     
   LPAW   =        T    paw PP                                                  
   EAUG   =  454.734                                                            
   DEXC   =    0.000                                                            
   RMAX   =    2.045    core radius for proj-oper                               
   RAUG   =    1.300    factor for augmentation sphere                          
   RDEP   =    2.025    radius for radial grids                                 
   RDEPT  =    1.942    core radius for aug-charge                              
                                                                                
   Atomic configuration                                                         
    6 entries                                                                   
     n  l   j            E        occ.                                          
     1  0  0.50     -1259.6230   2.0000                                         
     2  0  0.50       -79.8442   2.0000                                         
     2  1  1.50       -46.6121   6.0000                                         
     3  0  0.50        -4.7055   2.0000                                         
     3  1  0.50        -1.3660   0.0000                                         
     3  2  1.50        -1.3606   0.0000                                         
   Description                                                                  
     l       E           TYP  RCUT    TYP  RCUT                                 
     0     -4.7054661     23  2.000                                             
     0     27.2116520     23  2.000                                             
     1      1.3605826     23  2.000                                             
     1     27.2116520     23  2.000                                             
     2     -1.3605826     23  2.000                                             
  local pseudopotential read in
  partial core-charges read in
  partial kinetic energy density read in
  atomic valenz-charges read in
  non local Contribution for L=           0  read in
    real space projection operators read in
  non local Contribution for L=           0  read in
    real space projection operators read in
  non local Contribution for L=           1  read in
    real space projection operators read in
  non local Contribution for L=           1  read in
    real space projection operators read in
  non local Contribution for L=           2  read in
    real space projection operators read in
    PAW grid and wavefunctions read in
 
   number of l-projection  operators is LMAX  =           5
   number of lm-projection operators is LMMAX =          13
 
 POTCAR:    PAW_PBE Al 04Jan2001                  
   VRHFIN =Al: s2p1                                                             
   LEXCH  = PE                                                                  
   EATOM  =    53.5387 eV,    3.9350 Ry                                         
                                                                                
   TITEL  = PAW_PBE Al 04Jan2001                                                
   LULTRA =        F    use ultrasoft PP ?                                      
   IUNSCR =        1    unscreen: 0-lin 1-nonlin 2-no                           
   RPACOR =    1.500    partial core radius                                     
   POMASS =   26.981; ZVAL   =    3.000    mass and valenz                      
   RCORE  =    1.900    outmost cutoff radius                                   
   RWIGS  =    2.650; RWIGS  =    1.402    wigner-seitz radius (au A)           
   ENMAX  =  240.300; ENMIN  =  180.225 eV                                      
   ICORE  =        2    local potential                                         
   LCOR   =        T    correct aug charges                                     
   LPAW   =        T    paw PP                                                  
   EAUG   =  291.052                                                            
   DEXC   =    0.000                                                            
   RMAX   =    1.939    core radius for proj-oper                               
   RAUG   =    1.300    factor for augmentation sphere                          
   RDEP   =    1.966    radius for radial grids                                 
   RDEPT  =    1.856    core radius for aug-charge                              
                                                                                
   Atomic configuration                                                         
    6 entries                                                                   
     n  l   j            E        occ.                                          
     1  0  0.50     -1511.1048   2.0000                                         
     2  0  0.50      -108.1629   2.0000                                         
     2  1  1.50       -69.6402   6.0000                                         
     3  0  0.50        -7.7528   2.0000                                         
     3  1  1.50        -2.7121   1.0000                                         
     3  2  2.50        -2.7212   0.0000                                         
   Description                                                                  
     l       E           TYP  RCUT    TYP  RCUT                                 
     0     -7.7528455     23  1.900                                             
     0     -3.3096929     23  1.900                                             
     1     -2.7120682     23  1.900                                             
     1     13.6058260     23  1.900                                             
     2     -2.7211652      7  1.900                                             
  local pseudopotential read in
  partial core-charges read in
  partial kinetic energy density read in
  atomic valenz-charges read in
  non local Contribution for L=           0  read in
    real space projection operators read in
  non local Contribution for L=           0  read in
    real space projection operators read in
  non local Contribution for L=           1  read in
    real space projection operators read in
  non local Contribution for L=           1  read in
    real space projection operators read in
    PAW grid and wavefunctions read in
 
   number of l-projection  operators is LMAX  =           4
   number of lm-projection operators is LMMAX =           8
 

 ----------------------------------------------------------------------------- 
|                                                                             |
|  ADVICE TO THIS USER RUNNING 'VASP/VAMP'   (HEAR YOUR MASTER'S VOICE ...):  |
|                                                                             |
|      You have a (more or less) 'large supercell' and for larger cells       |
|      it might be more efficient to use real space projection opertators     |
|      So try LREAL= Auto  in the INCAR   file.                               |
|      Mind: At the moment your POTCAR file does not contain real space       |
|       projectors, and has to be modified,  BUT if you                       |
|      want to do an extremely  accurate calculation you might also keep the  |
|      reciprocal projection scheme          (i.e. LREAL=.FALSE.)             |
|                                                                             |
 ----------------------------------------------------------------------------- 

  PAW_PBE O 08Apr2002                   :
 energy of atom  1       EATOM= -432.3788
 kinetic energy error for atom=    0.0208 (will be added to EATOM!!)
  PAW_PBE Mg 13Apr2007                  :
 energy of atom  2       EATOM=  -23.0369
 kinetic energy error for atom=    0.0000 (will be added to EATOM!!)
  PAW_PBE Al 04Jan2001                  :
 energy of atom  3       EATOM=  -53.5387
 kinetic energy error for atom=    0.0002 (will be added to EATOM!!)
 
 
 POSCAR: Layer                                   
  positions in direct lattice
  velocities in cartesian coordinates
 exchange correlation table for  LEXCH =        8
   RHO(1)=    0.500       N(1)  =     2000
   RHO(2)=  100.500       N(2)  =     4000
 


--------------------------------------------------------------------------------------------------------


 ion  position               nearest neighbor table
   1  0.553  0.447  0.369-  15 2.12  14 2.12  15 2.12  15 2.12  14 2.12  14 2.12
   2  0.500  0.500  0.526-  16 2.12  17 2.12  16 2.12  16 2.12  17 2.12  17 2.12
   3  0.447  0.553  0.682-  19 2.12  18 2.12  19 2.12  19 2.12  18 2.12  18 2.12
   4  0.237  0.763  0.317-  14 2.12  14 2.12  14 2.12  10 2.14  10 2.14  10 2.14
   5  0.868  0.132  0.421-  15 2.12  11 2.12  15 2.12  15 2.12  11 2.12  11 2.12
   6  0.184  0.816  0.474-  11 2.12  16 2.12  11 2.12  11 2.12  16 2.12  16 2.12
   7  0.816  0.184  0.578-  17 2.12  17 2.12  17 2.12  12 2.12  12 2.12  12 2.12
   8  0.132  0.868  0.630-  12 2.12  18 2.12  12 2.12  12 2.12  18 2.12  18 2.12
   9  0.763  0.237  0.734-  19 2.12  19 2.12  19 2.12  13 2.14  13 2.14  13 2.14
  10  0.579  0.421  0.290-   4 2.14   4 2.14   4 2.14  21 2.97  21 2.97  21 2.97  14 3.02  14 3.02
                            14 3.02
  11  0.526  0.474  0.447-   6 2.12   5 2.12   6 2.12   6 2.12   5 2.12   5 2.12  15 3.01  15 3.01
                            16 3.01  16 3.01  15 3.01  16 3.01
  12  0.474  0.526  0.604-   8 2.12   7 2.12   8 2.12   8 2.12   7 2.12   7 2.12  17 3.01  17 3.01
                            18 3.01  18 3.01  18 3.01  17 3.01
  13  0.421  0.579  0.761-   9 2.14   9 2.14   9 2.14  24 2.97  24 2.97  24 2.97  19 3.02  19 3.02
                            19 3.02
  14  0.895  0.105  0.343-   4 2.12   4 2.12   4 2.12   1 2.12   1 2.12   1 2.12  15 3.01  15 3.01
                            15 3.01  10 3.02  10 3.02  10 3.02
  15  0.211  0.789  0.395-   1 2.12   5 2.12   1 2.12   1 2.12   5 2.12   5 2.12  14 3.01  14 3.01
                            14 3.01  11 3.01  11 3.01  11 3.01
  16  0.842  0.158  0.500-   2 2.12   6 2.12   2 2.12   2 2.12   6 2.12   6 2.12  17 3.01  17 3.01
                            11 3.01  11 3.01  17 3.01  11 3.01
  17  0.158  0.842  0.552-   7 2.12   2 2.12   7 2.12   7 2.12   2 2.12   2 2.12  12 3.01  12 3.01
                            12 3.01  16 3.01  16 3.01  16 3.01
  18  0.789  0.211  0.656-   3 2.12   8 2.12   3 2.12   3 2.12   8 2.12   8 2.12  19 3.01  19 3.01
                            19 3.01  12 3.01  12 3.01  12 3.01
  19  0.105  0.895  0.708-   9 2.12   9 2.12   9 2.12   3 2.12   3 2.12   3 2.12  18 3.01  18 3.01
                            18 3.01  13 3.02  13 3.02  13 3.02
  20  1.000  0.000  0.026-  23 2.80  25 2.80  23 2.80  23 2.80  25 2.80  25 2.80
  21  0.930  0.070  0.239-  10 2.97  10 2.97  10 2.97
  22  0.635  0.365  0.120-  23 2.83  23 2.83  23 2.83
  23  0.317  0.683  0.073-  20 2.80  20 2.80  20 2.80  22 2.83  22 2.83  22 2.83
  24  0.070  0.930  0.812-  13 2.97  13 2.97  13 2.97
  25  0.682  0.318  0.979-  20 2.80  20 2.80  20 2.80  26 2.83  26 2.83  26 2.83
  26  0.365  0.635  0.932-  25 2.83  25 2.83  25 2.83
 
  LATTYP: Found a base centered monoclinic cell.
 ALAT       =     5.1835214829
 B/A-ratio  =     0.5778353023
 C/A-ratio  =     9.2393419978
 COS(beta)  =    -0.1555768219
  
  Lattice vectors:
  
 A1 = (  -2.5925900058,   1.4952752266,  -0.0518951648)
 A2 = (   0.0013482762,   2.9928857368,  -0.0518951490)
 A3 = (   4.7735158528,  -8.2679694689, -46.9311121001)


Analysis of symmetry for initial positions (statically):
=====================================================================
 Subroutine PRICEL returns:
 Original cell was already a primitive cell.
 

 Routine SETGRP: Setting up the symmetry group for a 
 base centered monoclinic supercell.


 Subroutine GETGRP returns: Found  2 space group operations
 (whereof  2 operations were pure point group operations)
 out of a pool of  4 trial point group operations.


The static configuration has the point symmetry C_1h.


Analysis of symmetry for dynamics (positions and initial velocities):
=====================================================================
 Subroutine PRICEL returns:
 Original cell was already a primitive cell.
 

 Routine SETGRP: Setting up the symmetry group for a 
 base centered monoclinic supercell.


 Subroutine GETGRP returns: Found  2 space group operations
 (whereof  2 operations were pure point group operations)
 out of a pool of  4 trial point group operations.


The dynamic configuration has the point symmetry C_1h.


Analysis of constrained symmetry for selective dynamics:
=====================================================================
 Subroutine PRICEL returns:
 Original cell was already a primitive cell.
 

 Routine SETGRP: Setting up the symmetry group for a 
 base centered monoclinic supercell.


 Subroutine GETGRP returns: Found  2 space group operations
 (whereof  2 operations were pure point group operations)
 out of a pool of  4 trial point group operations.


The constrained configuration has the point symmetry C_1h.
 
 
 KPOINTS: K-Spacing Value to Generate K-Mesh: 0.02

Automatic generation of k-mesh.
Space group operators:
 irot       det(A)        alpha          n_x          n_y          n_z        tau_x        tau_y        tau_z
    1     1.000000     0.000000     1.000000     0.000000     0.000000     0.000000     0.000000     0.000000
    2    -1.000000   180.000000     0.866025     0.500000     0.000000     0.000000     0.000000     0.000000
 
 Subroutine IBZKPT returns following result:
 ===========================================
 
 Found     49 irreducible k-points:
 
 Following reciprocal coordinates:
            Coordinates               Weight
  0.000000  0.000000  0.000000      1.000000
  0.076923  0.000000  0.000000      4.000000
  0.153846 -0.000000  0.000000      4.000000
  0.230769  0.000000  0.000000      4.000000
  0.307692  0.000000  0.000000      4.000000
  0.384615  0.000000  0.000000      4.000000
  0.461538  0.000000  0.000000      4.000000
  0.076923  0.076923  0.000000      2.000000
  0.153846  0.076923  0.000000      4.000000
  0.230769  0.076923  0.000000      4.000000
  0.307692  0.076923 -0.000000      4.000000
  0.384615  0.076923  0.000000      4.000000
  0.461538  0.076923  0.000000      4.000000
 -0.461538  0.076923  0.000000      4.000000
 -0.384615  0.076923  0.000000      4.000000
 -0.307692  0.076923  0.000000      4.000000
 -0.230769  0.076923 -0.000000      4.000000
 -0.153846  0.076923  0.000000      4.000000
 -0.076923  0.076923  0.000000      2.000000
  0.153846  0.153846  0.000000      2.000000
  0.230769  0.153846  0.000000      4.000000
  0.307692  0.153846  0.000000      4.000000
  0.384615  0.153846  0.000000      4.000000
  0.461538  0.153846  0.000000      4.000000
 -0.461538  0.153846  0.000000      4.000000
 -0.384615  0.153846 -0.000000      4.000000
 -0.307692  0.153846  0.000000      4.000000
 -0.230769  0.153846  0.000000      4.000000
 -0.153846  0.153846  0.000000      2.000000
  0.230769  0.230769  0.000000      2.000000
  0.307692  0.230769 -0.000000      4.000000
  0.384615  0.230769  0.000000      4.000000
  0.461538  0.230769  0.000000      4.000000
 -0.461538  0.230769  0.000000      4.000000
 -0.384615  0.230769  0.000000      4.000000
 -0.307692  0.230769  0.000000      4.000000
 -0.230769  0.230769 -0.000000      2.000000
  0.307692  0.307692  0.000000      2.000000
  0.384615  0.307692  0.000000      4.000000
  0.461538  0.307692  0.000000      4.000000
 -0.461538  0.307692 -0.000000      4.000000
 -0.384615  0.307692  0.000000      4.000000
 -0.307692  0.307692  0.000000      2.000000
  0.384615  0.384615  0.000000      2.000000
  0.461538  0.384615  0.000000      4.000000
 -0.461538  0.384615  0.000000      4.000000
 -0.384615  0.384615  0.000000      2.000000
  0.461538  0.461538  0.000000      2.000000
 -0.461538  0.461538 -0.000000      2.000000
 
 Following cartesian coordinates:
            Coordinates               Weight
  0.000000  0.000000  0.000000      1.000000
  0.029665 -0.000018 -0.000258      4.000000
  0.059330 -0.000036 -0.000515      4.000000
  0.088996 -0.000053 -0.000773      4.000000
  0.118661 -0.000071 -0.001031      4.000000
  0.148326 -0.000089 -0.001288      4.000000
  0.177991 -0.000107 -0.001546      4.000000
  0.044482  0.025682  0.000000      2.000000
  0.074148  0.025664 -0.000258      4.000000
  0.103813  0.025646 -0.000515      4.000000
  0.133478  0.025628 -0.000773      4.000000
  0.163143  0.025611 -0.001031      4.000000
  0.192809  0.025593 -0.001288      4.000000
 -0.163174  0.025807  0.001803      4.000000
 -0.133509  0.025789  0.001546      4.000000
 -0.103844  0.025771  0.001288      4.000000
 -0.074179  0.025753  0.001031      4.000000
 -0.044513  0.025735  0.000773      4.000000
 -0.014848  0.025718  0.000515      2.000000
  0.088965  0.051364  0.000000      2.000000
  0.118630  0.051346 -0.000258      4.000000
  0.148295  0.051328 -0.000515      4.000000
  0.177961  0.051310 -0.000773      4.000000
  0.207626  0.051293 -0.001031      4.000000
 -0.148357  0.051507  0.002061      4.000000
 -0.118692  0.051489  0.001803      4.000000
 -0.089027  0.051471  0.001546      4.000000
 -0.059361  0.051453  0.001288      4.000000
 -0.029696  0.051435  0.001031      2.000000
  0.133447  0.077046  0.000000      2.000000
  0.163112  0.077028 -0.000258      4.000000
  0.192778  0.077010 -0.000515      4.000000
  0.222443  0.076992 -0.000773      4.000000
 -0.133540  0.077206  0.002319      4.000000
 -0.103875  0.077188  0.002061      4.000000
 -0.074209  0.077171  0.001803      4.000000
 -0.044544  0.077153  0.001546      2.000000
  0.177930  0.102728  0.000000      2.000000
  0.207595  0.102710 -0.000258      4.000000
  0.237260  0.102692 -0.000515      4.000000
 -0.118723  0.102906  0.002576      4.000000
 -0.089057  0.102888  0.002319      4.000000
 -0.059392  0.102870  0.002061      2.000000
  0.222412  0.128410  0.000000      2.000000
  0.252077  0.128392 -0.000258      4.000000
 -0.103906  0.128606  0.002834      4.000000
 -0.074240  0.128588  0.002576      2.000000
  0.266894  0.154092  0.000000      2.000000
 -0.089088  0.154306  0.003092      2.000000
 


--------------------------------------------------------------------------------------------------------




 Dimension of arrays:
   k-points           NKPTS =     49   k-points in BZ     NKDIM =     49   number of bands    NBANDS=     62
   number of dos      NEDOS =    301   number of ions     NIONS =     26
   non local maximal  LDIM  =      5   non local SUM 2l+1 LMDIM =     13
   total plane-waves  NPLWV = 207360
   max r-space proj   IRMAX =      1   max aug-charges    IRDMAX= 192856
   dimension x,y,z NGX =    24 NGY =   24 NGZ =  360
   dimension x,y,z NGXF=    48 NGYF=   48 NGZF=  720
   support grid    NGXF=    96 NGYF=   96 NGZF= 1440
   ions per type =               9  10   7
 NGX,Y,Z   is equivalent  to a cutoff of  13.33, 13.33, 12.69 a.u.
 NGXF,Y,Z  is equivalent  to a cutoff of  26.66, 26.66, 25.39 a.u.


 I would recommend the setting:
   dimension x,y,z NGX =    22 NGY =   22 NGZ =  351
 SYSTEM =  unknown system                          
 POSCAR =  Layer                                   

 Startparameter for this run:
   NWRITE =      2    write-flag & timer
   PREC   = accura    normal or accurate (medium, high low for compatibility)
   ISTART =      0    job   : 0-new  1-cont  2-samecut
   ICHARG =      2    charge: 1-file 2-atom 10-const
   ISPIN  =      1    spin polarized calculation?
   LNONCOLLINEAR =      F non collinear calculations
   LSORBIT =      F    spin-orbit coupling
   INIWAV =      1    electr: 0-lowe 1-rand  2-diag
   LASPH  =      F    aspherical Exc in radial PAW
   METAGGA=      F    non-selfconsistent MetaGGA calc.

 Electronic Relaxation 1
   ENCUT  =  520.0 eV  38.22 Ry    6.18 a.u.   5.57  5.57 87.66*2*pi/ulx,y,z
   ENINI  =  520.0     initial cutoff
   ENAUG  =  605.4 eV  augmentation charge cutoff
   NELM   =    100;   NELMIN=  6; NELMDL=  0     # of ELM steps 
   EDIFF  = 0.1E-04   stopping-criterion for ELM
   LREAL  =      F    real-space projection
   NLSPLINE    = F    spline interpolate recip. space projectors
   LCOMPAT=      F    compatible to vasp.4.4
   GGA_COMPAT  = T    GGA compatible to vasp.4.4-vasp.4.6
   LMAXPAW     = -100 max onsite density
   LMAXMIX     =    2 max onsite mixed and CHGCAR
   VOSKOWN=      0    Vosko Wilk Nusair interpolation
   ROPT   =    0.00000   0.00000   0.00000
 Ionic relaxation
   EDIFFG = -.2E-01   stopping-criterion for IOM
   NSW    =    500    number of steps for IOM
   NBLOCK =      1;   KBLOCK =    500    inner block; outer block 
   IBRION =      2    ionic relax: 0-MD 1-quasi-New 2-CG
   NFREE  =      1    steps in history (QN), initial steepest desc. (CG)
   ISIF   =      2    stress and relaxation
   IWAVPR =     11    prediction:  0-non 1-charg 2-wave 3-comb
   ISYM   =      2    0-nonsym 1-usesym 2-fastsym
   LCORR  =      T    Harris-Foulkes like correction to forces

   POTIM  = 0.5000    time-step for ionic-motion
   TEIN   =    0.0    initial temperature
   TEBEG  =    0.0;   TEEND  =   0.0 temperature during run
   SMASS  =  -3.00    Nose mass-parameter (am)
   estimated Nose-frequenzy (Omega)   =  0.10E-29 period in steps =****** mass=  -0.205E-27a.u.
   SCALEE = 1.0000    scale energy and forces
   NPACO  =    256;   APACO  = 16.0  distance and # of slots for P.C.
   PSTRESS=    0.0 pullay stress

  Mass of Ions in am
   POMASS =  16.00 24.30 26.98
  Ionic Valenz
   ZVAL   =   6.00  2.00  3.00
  Atomic Wigner-Seitz radii
   RWIGS  =  -1.00 -1.00 -1.00
  virtual crystal weights 
   VCA    =   1.00  1.00  1.00
   NELECT =      95.0000    total number of electrons
   NUPDOWN=      -1.0000    fix difference up-down

 DOS related values:
   EMIN   =  10.00;   EMAX   =-10.00  energy-range for DOS
   EFERMI =   0.00
   ISMEAR =     0;   SIGMA  =   0.05  broadening in eV -4-tet -1-fermi 0-gaus

 Electronic relaxation 2 (details)
   IALGO  =     38    algorithm
   LDIAG  =      T    sub-space diagonalisation (order eigenvalues)
   LSUBROT=      F    optimize rotation matrix (better conditioning)
   TURBO    =      0    0=normal 1=particle mesh
   IRESTART =      0    0=no restart 2=restart with 2 vectors
   NREBOOT  =      0    no. of reboots
   NMIN     =      0    reboot dimension
   EREF     =   0.00    reference energy to select bands
   IMIX   =      4    mixing-type and parameters
     AMIX     =   0.40;   BMIX     =  1.00
     AMIX_MAG =   1.60;   BMIX_MAG =  1.00
     AMIN     =   0.01
     WC   =   100.;   INIMIX=   1;  MIXPRE=   1;  MAXMIX= -45

 Intra band minimization:
   WEIMIN = 0.0010     energy-eigenvalue tresh-hold
   EBREAK =  0.40E-07  absolut break condition
   DEPER  =   0.30     relativ break condition  

   TIME   =   0.40     timestep for ELM

  volume/ion in A,a.u.               =      14.07        94.93
  Fermi-wavevector in a.u.,A,eV,Ry     =   1.044548  1.973909 14.845040  1.091080
  Thomas-Fermi vector in A             =   2.179305
 
 Write flags
   LWAVE  =      F    write WAVECAR
   LCHARG =      T    write CHGCAR
   LVTOT  =      F    write LOCPOT, total local potential
   LVHAR  =      F    write LOCPOT, Hartree potential only
   LELF   =      F    write electronic localiz. function (ELF)
   LORBIT =      0    0 simple, 1 ext, 2 COOP (PROOUT)


 Dipole corrections
   LMONO  =      F    monopole corrections only (constant potential shift)
   LDIPOL =      F    correct potential (dipole corrections)
   IDIPOL =      0    1-x, 2-y, 3-z, 4-all directions 
   EPSILON=  1.0000000 bulk dielectric constant

 Exchange correlation treatment:
   GGA     =    --    GGA type
   LEXCH   =     8    internal setting for exchange type
   VOSKOWN=      0    Vosko Wilk Nusair interpolation
   LHFCALC =     F    Hartree Fock is set to
   LHFONE  =     F    Hartree Fock one center treatment
   AEXX    =    0.0000 exact exchange contribution

 Linear response parameters
   LEPSILON=     F    determine dielectric tensor
   LRPA    =     F    only Hartree local field effects (RPA)
   LNABLA  =     F    use nabla operator in PAW spheres
   LVEL    =     F    velocity operator in full k-point grid
   LINTERFAST=   F  fast interpolation
   KINTER  =     0    interpolate to denser k-point grid
   CSHIFT  =0.1000    complex shift for real part using Kramers Kronig
   OMEGAMAX=  -1.0    maximum frequency
   DEG_THRESHOLD= 0.2000000E-02 threshold for treating states as degnerate
   RTIME   =    0.100 relaxation time in fs

 Orbital magnetization related:
   ORBITALMAG=     F  switch on orbital magnetization
   LCHIMAG   =     F  perturbation theory with respect to B field
   DQ        =  0.001000  dq finite difference perturbation B field



--------------------------------------------------------------------------------------------------------


 conjugate gradient relaxation of ions
   using selective dynamics as specified on POSCAR
 charge density and potential will be updated during run
 non-spin polarized calculation
 Variant of blocked Davidson
 Davidson routine will perform the subspace rotation
 perform sub-space diagonalisation
    after iterative eigenvector-optimisation
 modified Broyden-mixing scheme, WC =      100.0
 initial mixing is a Kerker type mixing with AMIX =  0.4000 and BMIX =      1.0000
 Hartree-type preconditioning will be used
 using additional bands           14
 reciprocal scheme for non local part
 use partial core corrections
 calculate Harris-corrections to forces 
   (improved forces if not selfconsistent)
 use gradient corrections 
 use of overlap-Matrix (Vanderbilt PP)
 Gauss-broadening in eV      SIGMA  =   0.05


--------------------------------------------------------------------------------------------------------


  energy-cutoff  :      520.00
  volume of cell :      365.73
      direct lattice vectors                 reciprocal lattice vectors
     2.592590006 -1.495275227  0.051895165     0.385648018 -0.000231807 -0.003349303
     0.001348276  2.992885737 -0.051895149     0.192623258  0.334096986  0.003349303
     0.408967606 -0.708352458 47.138692728    -0.000212502  0.000368064  0.021221370

  length of vectors
     2.993336608  2.993335925 47.145788463     0.385662631  0.385662719  0.021225625


 
 k-points in units of 2pi/SCALE and weight: K-Spacing Value to Generate K-Mesh: 0.02
   0.00000000  0.00000000  0.00000000       0.006
   0.02966523 -0.00001783 -0.00025764       0.024
   0.05933046 -0.00003566 -0.00051528       0.024
   0.08899570 -0.00005349 -0.00077292       0.024
   0.11866093 -0.00007133 -0.00103055       0.024
   0.14832616 -0.00008916 -0.00128819       0.024
   0.17799139 -0.00010699 -0.00154583       0.024
   0.04448241  0.02568194  0.00000000       0.012
   0.07414764  0.02566411 -0.00025764       0.024
   0.10381287  0.02564627 -0.00051528       0.024
   0.13347810  0.02562844 -0.00077292       0.024
   0.16314333  0.02561061 -0.00103055       0.024
   0.19280857  0.02559278 -0.00128819       0.024
  -0.16317422  0.02580676  0.00180347       0.024
  -0.13350899  0.02578892  0.00154583       0.024
  -0.10384375  0.02577109  0.00128819       0.024
  -0.07417852  0.02575326  0.00103055       0.024
  -0.04451329  0.02573543  0.00077292       0.024
  -0.01484806  0.02571760  0.00051528       0.012
   0.08896481  0.05136387  0.00000000       0.012
   0.11863004  0.05134604 -0.00025764       0.024
   0.14829528  0.05132821 -0.00051528       0.024
   0.17796051  0.05131038 -0.00077292       0.024
   0.20762574  0.05129255 -0.00103055       0.024
  -0.14835705  0.05150652  0.00206111       0.024
  -0.11869181  0.05148869  0.00180347       0.024
  -0.08902658  0.05147086  0.00154583       0.024
  -0.05936135  0.05145303  0.00128819       0.024
  -0.02969612  0.05143520  0.00103055       0.012
   0.13344722  0.07704581  0.00000000       0.012
   0.16311245  0.07702798 -0.00025764       0.024
   0.19277768  0.07701015 -0.00051528       0.024
   0.22244291  0.07699232 -0.00077292       0.024
  -0.13353987  0.07720629  0.00231875       0.024
  -0.10387464  0.07718846  0.00206111       0.024
  -0.07420941  0.07717063  0.00180347       0.024
  -0.04454418  0.07715280  0.00154583       0.012
   0.17792962  0.10272775  0.00000000       0.012
   0.20759486  0.10270992 -0.00025764       0.024
   0.23726009  0.10269208 -0.00051528       0.024
  -0.11872270  0.10290606  0.00257639       0.024
  -0.08905747  0.10288823  0.00231875       0.024
  -0.05939223  0.10287040  0.00206111       0.012
   0.22241203  0.12840968  0.00000000       0.012
   0.25207726  0.12839185 -0.00025764       0.024
  -0.10390552  0.12860583  0.00283403       0.024
  -0.07424029  0.12858800  0.00257639       0.012
   0.26689444  0.15409162  0.00000000       0.012
  -0.08908835  0.15430560  0.00309166       0.012
 
 k-points in reciprocal lattice and weights: K-Spacing Value to Generate K-Mesh: 0.02
   0.00000000  0.00000000  0.00000000       0.006
   0.07692308  0.00000000  0.00000000       0.024
   0.15384615 -0.00000000  0.00000000       0.024
   0.23076923  0.00000000  0.00000000       0.024
   0.30769231  0.00000000  0.00000000       0.024
   0.38461538  0.00000000  0.00000000       0.024
   0.46153846  0.00000000  0.00000000       0.024
   0.07692308  0.07692308  0.00000000       0.012
   0.15384615  0.07692308  0.00000000       0.024
   0.23076923  0.07692308  0.00000000       0.024
   0.30769231  0.07692308 -0.00000000       0.024
   0.38461538  0.07692308  0.00000000       0.024
   0.46153846  0.07692308  0.00000000       0.024
  -0.46153846  0.07692308  0.00000000       0.024
  -0.38461538  0.07692308  0.00000000       0.024
  -0.30769231  0.07692308  0.00000000       0.024
  -0.23076923  0.07692308 -0.00000000       0.024
  -0.15384615  0.07692308  0.00000000       0.024
  -0.07692308  0.07692308  0.00000000       0.012
   0.15384615  0.15384615  0.00000000       0.012
   0.23076923  0.15384615  0.00000000       0.024
   0.30769231  0.15384615  0.00000000       0.024
   0.38461538  0.15384615  0.00000000       0.024
   0.46153846  0.15384615  0.00000000       0.024
  -0.46153846  0.15384615  0.00000000       0.024
  -0.38461538  0.15384615 -0.00000000       0.024
  -0.30769231  0.15384615  0.00000000       0.024
  -0.23076923  0.15384615  0.00000000       0.024
  -0.15384615  0.15384615  0.00000000       0.012
   0.23076923  0.23076923  0.00000000       0.012
   0.30769231  0.23076923 -0.00000000       0.024
   0.38461538  0.23076923  0.00000000       0.024
   0.46153846  0.23076923  0.00000000       0.024
  -0.46153846  0.23076923  0.00000000       0.024
  -0.38461538  0.23076923  0.00000000       0.024
  -0.30769231  0.23076923  0.00000000       0.024
  -0.23076923  0.23076923 -0.00000000       0.012
   0.30769231  0.30769231  0.00000000       0.012
   0.38461538  0.30769231  0.00000000       0.024
   0.46153846  0.30769231  0.00000000       0.024
  -0.46153846  0.30769231 -0.00000000       0.024
  -0.38461538  0.30769231  0.00000000       0.024
  -0.30769231  0.30769231  0.00000000       0.012
   0.38461538  0.38461538  0.00000000       0.012
   0.46153846  0.38461538  0.00000000       0.024
  -0.46153846  0.38461538  0.00000000       0.024
  -0.38461538  0.38461538  0.00000000       0.012
   0.46153846  0.46153846  0.00000000       0.012
  -0.46153846  0.46153846 -0.00000000       0.012
 
 position of ions in fractional coordinates (direct lattice) 
   0.55272396  0.44727604  0.36913264
   0.50002736  0.49997264  0.52574764
   0.44731492  0.55268508  0.68240859
   0.23696077  0.76303923  0.31705317
   0.86847968  0.13152032  0.42132445
   0.18424549  0.81575451  0.47354629
   0.81580638  0.18419362  0.57796098
   0.13156724  0.86843276  0.63019781
   0.76307822  0.23692178  0.73448748
   0.57929635  0.42070365  0.29034988
   0.52636188  0.47363812  0.44743567
   0.47368119  0.52631881  0.60409534
   0.42074839  0.57925161  0.76117464
   0.89486059  0.10513941  0.34301584
   0.21060274  0.78939726  0.39521554
   0.84213161  0.15786839  0.49965894
   0.15790615  0.84209385  0.55188064
   0.78944186  0.21055814  0.65631095
   0.10519127  0.89480873  0.70849014
   0.99990497  0.00009503  0.02590394
   0.93003756  0.06996244  0.23913361
   0.63450378  0.36549622  0.12011231
   0.31742515  0.68257485  0.07258293
   0.07001221  0.92998779  0.81237562
   0.68238464  0.31761536  0.97922464
   0.36530565  0.63469435  0.93169529
 
 position of ions in cartesian coordinates  (Angst):
   1.58455296  0.25069562 17.40590257
   1.51205378  0.37626785 24.78305943
   1.43953238  0.50187856 32.16238065
   0.74503539  1.70478227 14.91817091
   2.42409711 -1.20343706 19.89892856
   0.67243796  1.83052466 22.28958073
   2.35166713 -1.07798469 27.27710283
   0.60000130  1.95598860 29.66846128
   2.27904999 -0.95220815 34.65008479
   1.62118884  0.18724043 13.69494390
   1.54826585  0.31354672 21.09426850
   1.47582618  0.43901587 28.47353313
   1.40290484  0.56531930 35.87255190
   2.46043074 -1.26636873 16.21030121
   0.70870123  1.76771485 18.59990713
   2.38785917 -1.14067113 23.58877941
   0.63622258  1.89325152 25.97942607
   2.31539289 -1.01515589 30.96768159
   0.56367381  2.01890964 33.35632169
   2.60293762 -1.51319782  1.27296336
   2.50909830 -1.35066340 11.31707944
   1.69462299  0.06004879  5.67589728
   0.85355763  1.51681629  3.40251471
   0.51500214  2.10321141 38.24969639
   2.17004300 -0.76340256 46.17829941
   1.32897672  0.69336652 43.90491814
 


--------------------------------------------------------------------------------------------------------


 k-point  1 :   0.0000 0.0000 0.0000  plane waves:    9985
 k-point  2 :   0.0769 0.0000 0.0000  plane waves:    9980
 k-point  3 :   0.1538-0.0000 0.0000  plane waves:    9946
 k-point  4 :   0.2308 0.0000 0.0000  plane waves:    9907
 k-point  5 :   0.3077 0.0000 0.0000  plane waves:    9848
 k-point  6 :   0.3846 0.0000 0.0000  plane waves:    9779
 k-point  7 :   0.4615 0.0000 0.0000  plane waves:    9805
 k-point  8 :   0.0769 0.0769 0.0000  plane waves:    9957
 k-point  9 :   0.1538 0.0769 0.0000  plane waves:    9927
 k-point 10 :   0.2308 0.0769 0.0000  plane waves:    9878
 k-point 11 :   0.3077 0.0769-0.0000  plane waves:    9845
 k-point 12 :   0.3846 0.0769 0.0000  plane waves:    9794
 k-point 13 :   0.4615 0.0769 0.0000  plane waves:    9762
 k-point 14 :  -0.4615 0.0769 0.0000  plane waves:    9795
 k-point 15 :  -0.3846 0.0769 0.0000  plane waves:    9842
 k-point 16 :  -0.3077 0.0769 0.0000  plane waves:    9871
 k-point 17 :  -0.2308 0.0769-0.0000  plane waves:    9922
 k-point 18 :  -0.1538 0.0769 0.0000  plane waves:    9959
 k-point 19 :  -0.0769 0.0769 0.0000  plane waves:    9980
 k-point 20 :   0.1538 0.1538 0.0000  plane waves:    9879
 k-point 21 :   0.2308 0.1538 0.0000  plane waves:    9845
 k-point 22 :   0.3077 0.1538 0.0000  plane waves:    9830
 k-point 23 :   0.3846 0.1538 0.0000  plane waves:    9787
 k-point 24 :   0.4615 0.1538 0.0000  plane waves:    9788
 k-point 25 :  -0.4615 0.1538 0.0000  plane waves:    9834
 k-point 26 :  -0.3846 0.1538-0.0000  plane waves:    9848
 k-point 27 :  -0.3077 0.1538 0.0000  plane waves:    9881
 k-point 28 :  -0.2308 0.1538 0.0000  plane waves:    9929
 k-point 29 :  -0.1538 0.1538 0.0000  plane waves:    9946
 k-point 30 :   0.2308 0.2308 0.0000  plane waves:    9850
 k-point 31 :   0.3077 0.2308-0.0000  plane waves:    9799
 k-point 32 :   0.3846 0.2308 0.0000  plane waves:    9823
 k-point 33 :   0.4615 0.2308 0.0000  plane waves:    9795
 k-point 34 :  -0.4615 0.2308 0.0000  plane waves:    9839
 k-point 35 :  -0.3846 0.2308 0.0000  plane waves:    9850
 k-point 36 :  -0.3077 0.2308 0.0000  plane waves:    9870
 k-point 37 :  -0.2308 0.2308-0.0000  plane waves:    9901
 k-point 38 :   0.3077 0.3077 0.0000  plane waves:    9838
 k-point 39 :   0.3846 0.3077 0.0000  plane waves:    9837
 k-point 40 :   0.4615 0.3077 0.0000  plane waves:    9797
 k-point 41 :  -0.4615 0.3077-0.0000  plane waves:    9829
 k-point 42 :  -0.3846 0.3077 0.0000  plane waves:    9841
 k-point 43 :  -0.3077 0.3077 0.0000  plane waves:    9851
 k-point 44 :   0.3846 0.3846 0.0000  plane waves:    9832
 k-point 45 :   0.4615 0.3846 0.0000  plane waves:    9781
 k-point 46 :  -0.4615 0.3846 0.0000  plane waves:    9798
 k-point 47 :  -0.3846 0.3846 0.0000  plane waves:    9799
 k-point 48 :   0.4615 0.4615 0.0000  plane waves:    9764
 k-point 49 :  -0.4615 0.4615-0.0000  plane waves:    9809

 maximum and minimum number of plane-waves per node :      2531     2412

 maximum number of plane-waves:      9985
 maximum index in each direction: 
   IXMAX=    6   IYMAX=    5   IZMAX=   87
   IXMIN=   -6   IYMIN=   -6   IZMIN=  -87

 WARNING: aliasing errors must be expected set NGX to  26 to avoid them
 NGY is ok and might be reduce to  24
 NGZ is ok and might be reduce to 350
 aliasing errors are usually negligible using standard VASP settings
 and one can safely disregard these warnings

 parallel 3D FFT for wavefunctions:
    minimum data exchange during FFTs selected (reduces bandwidth)
 parallel 3D FFT for charge:
    minimum data exchange during FFTs selected (reduces bandwidth)


 total amount of memory used by VASP on root node   218062. kBytes
========================================================================

   base      :      30000. kBytes
   nonl-proj :      38977. kBytes
   fftplans  :      62074. kBytes
   grid      :      24883. kBytes
   one-center:         56. kBytes
   wavefun   :      62072. kBytes
 
     INWAV:  cpu time    0.00: real time    0.00
 Broyden mixing: mesh for mixing (old mesh)
   NGX = 11   NGY = 11   NGZ =175
  (NGX  = 48   NGY  = 48   NGZ  =720)
  gives a total of  21175 points

 initial charge density was supplied:
 charge density of overlapping atoms calculated
 number of electron      95.0000000 magnetization 
 keeping initial charge density in first step


--------------------------------------------------------------------------------------------------------


 Maximum index for augmentation-charges        23489 (set IRDMAX)


--------------------------------------------------------------------------------------------------------


 First call to EWALD:  gamma=   0.248
 Maximum number of real-space cells 7x 7x 1
 Maximum number of reciprocal cells 1x 1x15

 FEWALD executed in parallel
    FEWALD:  cpu time    0.00: real time    0.00


----------------------------------------- Iteration    1(   1)  ---------------------------------------


    POTLOK:  cpu time    0.11: real time    0.11
    SETDIJ:  cpu time    0.10: real time    0.10
     EDDAV:  cpu time   10.47: real time   10.48
       DOS:  cpu time    0.00: real time    0.00
    --------------------------------------------
      LOOP:  cpu time   10.69: real time   10.70

 eigenvalue-minimisations  :  6100
 total energy-change (2. order) : 0.5130383E+03  (-0.4071288E+04)
 number of electron      95.0000000 magnetization 
 augmentation part       95.0000000 magnetization 

 Free energy of the ion-electron system (eV)
  ---------------------------------------------------
  alpha Z        PSCENC =       110.55676247
  Ewald energy   TEWEN  =     29395.31139930
  -Hartree energ DENC   =    -34005.97218515
  -exchange      EXHF   =         0.00000000
  -V(xc)+E(xc)   XCENC  =      -419.44207323
  PAW double counting   =      4235.41334458    -3509.29226066
  entropy T*S    EENTRO =        -0.00664660
  eigenvalues    EBANDS =       210.11023448
  atomic energy  EATOM  =      4496.35971583
  ---------------------------------------------------
  free energy    TOTEN  =       513.03829101 eV

  energy without entropy =      513.04493762  energy(sigma->0) =      513.04161431


--------------------------------------------------------------------------------------------------------




----------------------------------------- Iteration    1(   2)  ---------------------------------------


     EDDAV:  cpu time   12.48: real time   12.49
       DOS:  cpu time    0.00: real time    0.00
    --------------------------------------------
      LOOP:  cpu time   12.49: real time   12.50

 eigenvalue-minimisations  :  7888
 total energy-change (2. order) :-0.5928594E+03  (-0.5596040E+03)
 number of electron      95.0000000 magnetization 
 augmentation part       95.0000000 magnetization 

 Free energy of the ion-electron system (eV)
  ---------------------------------------------------
  alpha Z        PSCENC =       110.55676247
  Ewald energy   TEWEN  =     29395.31139930
  -Hartree energ DENC   =    -34005.97218515
  -exchange      EXHF   =         0.00000000
  -V(xc)+E(xc)   XCENC  =      -419.44207323
  PAW double counting   =      4235.41334458    -3509.29226066
  entropy T*S    EENTRO =        -0.00604827
  eigenvalues    EBANDS =      -382.74972803
  atomic energy  EATOM  =      4496.35971583
  ---------------------------------------------------
  free energy    TOTEN  =       -79.82107317 eV

  energy without entropy =      -79.81502490  energy(sigma->0) =      -79.81804903


--------------------------------------------------------------------------------------------------------




----------------------------------------- Iteration    1(   3)  ---------------------------------------


     EDDAV:  cpu time   11.61: real time   11.62
       DOS:  cpu time    0.00: real time    0.00
    --------------------------------------------
      LOOP:  cpu time   11.62: real time   11.62

 eigenvalue-minimisations  :  7128
 total energy-change (2. order) :-0.6652924E+02  (-0.6610434E+02)
 number of electron      95.0000000 magnetization 
 augmentation part       95.0000000 magnetization 

 Free energy of the ion-electron system (eV)
  ---------------------------------------------------
  alpha Z        PSCENC =       110.55676247
  Ewald energy   TEWEN  =     29395.31139930
  -Hartree energ DENC   =    -34005.97218515
  -exchange      EXHF   =         0.00000000
  -V(xc)+E(xc)   XCENC  =      -419.44207323
  PAW double counting   =      4235.41334458    -3509.29226066
  entropy T*S    EENTRO =        -0.00744946
  eigenvalues    EBANDS =      -449.27756748
  atomic energy  EATOM  =      4496.35971583
  ---------------------------------------------------
  free energy    TOTEN  =      -146.35031381 eV

  energy without entropy =     -146.34286435  energy(sigma->0) =     -146.34658908


--------------------------------------------------------------------------------------------------------




----------------------------------------- Iteration    1(   4)  ---------------------------------------


     EDDAV:  cpu time   11.74: real time   11.75
       DOS:  cpu time    0.00: real time    0.00
    --------------------------------------------
      LOOP:  cpu time   11.74: real time   11.75

 eigenvalue-minimisations  :  7256
 total energy-change (2. order) :-0.1341735E+01  (-0.1338920E+01)
 number of electron      95.0000000 magnetization 
 augmentation part       95.0000000 magnetization 

 Free energy of the ion-electron system (eV)
  ---------------------------------------------------
  alpha Z        PSCENC =       110.55676247
  Ewald energy   TEWEN  =     29395.31139930
  -Hartree energ DENC   =    -34005.97218515
  -exchange      EXHF   =         0.00000000
  -V(xc)+E(xc)   XCENC  =      -419.44207323
  PAW double counting   =      4235.41334458    -3509.29226066
  entropy T*S    EENTRO =        -0.00755555
  eigenvalues    EBANDS =      -450.61919590
  atomic energy  EATOM  =      4496.35971583
  ---------------------------------------------------
  free energy    TOTEN  =      -147.69204832 eV

  energy without entropy =     -147.68449277  energy(sigma->0) =     -147.68827055


--------------------------------------------------------------------------------------------------------




----------------------------------------- Iteration    1(   5)  ---------------------------------------


     EDDAV:  cpu time   12.09: real time   12.10
       DOS:  cpu time    0.00: real time    0.00
    CHARGE:  cpu time    0.78: real time    0.78
    MIXING:  cpu time    0.00: real time    0.00
    --------------------------------------------
      LOOP:  cpu time   12.88: real time   12.89

 eigenvalue-minimisations  :  7644
 total energy-change (2. order) :-0.3291971E-01  (-0.3289754E-01)
 number of electron      95.0000001 magnetization 
 augmentation part        6.9530047 magnetization 

 Broyden mixing:
  rms(total) = 0.22079E+01    rms(broyden)= 0.22074E+01
  rms(prec ) = 0.22594E+01
  weight for this iteration     100.00

 Free energy of the ion-electron system (eV)
  ---------------------------------------------------
  alpha Z        PSCENC =       110.55676247
  Ewald energy   TEWEN  =     29395.31139930
  -Hartree energ DENC   =    -34005.97218515
  -exchange      EXHF   =         0.00000000
  -V(xc)+E(xc)   XCENC  =      -419.44207323
  PAW double counting   =      4235.41334458    -3509.29226066
  entropy T*S    EENTRO =        -0.00755898
  eigenvalues    EBANDS =      -450.65211218
  atomic energy  EATOM  =      4496.35971583
  ---------------------------------------------------
  free energy    TOTEN  =      -147.72496803 eV

  energy without entropy =     -147.71740905  energy(sigma->0) =     -147.72118854


--------------------------------------------------------------------------------------------------------




----------------------------------------- Iteration    1(   6)  ---------------------------------------


    POTLOK:  cpu time    0.12: real time    0.12
    SETDIJ:  cpu time    0.11: real time    0.11
     EDDAV:  cpu time   11.12: real time   11.13
       DOS:  cpu time    0.00: real time    0.00
    CHARGE:  cpu time    0.77: real time    0.77
    MIXING:  cpu time    0.00: real time    0.00
    --------------------------------------------
      LOOP:  cpu time   12.12: real time   12.13

 eigenvalue-minimisations  :  6956
 total energy-change (2. order) : 0.1500562E+02  (-0.8197007E+01)
 number of electron      95.0000001 magnetization 
 augmentation part        5.6529409 magnetization 

 Broyden mixing:
  rms(total) = 0.73287E+00    rms(broyden)= 0.73193E+00
  rms(prec ) = 0.73952E+00
  weight for this iteration     100.00

 eigenvalues of (default mixing * dielectric matrix)
  average eigenvalue GAMMA=   0.8538
  0.8538

 Free energy of the ion-electron system (eV)
  ---------------------------------------------------
  alpha Z        PSCENC =       110.55676247
  Ewald energy   TEWEN  =     29395.31139930
  -Hartree energ DENC   =    -34183.20854454
  -exchange      EXHF   =         0.00000000
  -V(xc)+E(xc)   XCENC  =      -407.28400005
  PAW double counting   =      5034.82424931    -4311.88583228
  entropy T*S    EENTRO =        -0.00483202
  eigenvalues    EBANDS =      -267.38826807
  atomic energy  EATOM  =      4496.35971583
  ---------------------------------------------------
  free energy    TOTEN  =      -132.71935005 eV

  energy without entropy =     -132.71451803  energy(sigma->0) =     -132.71693404


--------------------------------------------------------------------------------------------------------




----------------------------------------- Iteration    1(   7)  ---------------------------------------


    POTLOK:  cpu time    0.11: real time    0.11
    SETDIJ:  cpu time    0.10: real time    0.10
     EDDAV:  cpu time   10.74: real time   10.75
       DOS:  cpu time    0.00: real time    0.00
    CHARGE:  cpu time    0.78: real time    0.78
    MIXING:  cpu time    0.01: real time    0.01
    --------------------------------------------
      LOOP:  cpu time   11.74: real time   11.75

 eigenvalue-minimisations  :  6732
 total energy-change (2. order) : 0.1332296E+00  (-0.1866663E+00)
 number of electron      95.0000001 magnetization 
 augmentation part        5.6720588 magnetization 

 Broyden mixing:
  rms(total) = 0.45700E+00    rms(broyden)= 0.45698E+00
  rms(prec ) = 0.46192E+00
  weight for this iteration     100.00

 eigenvalues of (default mixing * dielectric matrix)
  average eigenvalue GAMMA=   1.5917
  0.9967  2.1868

 Free energy of the ion-electron system (eV)
  ---------------------------------------------------
  alpha Z        PSCENC =       110.55676247
  Ewald energy   TEWEN  =     29395.31139930
  -Hartree energ DENC   =    -34186.01806865
  -exchange      EXHF   =         0.00000000
  -V(xc)+E(xc)   XCENC  =      -406.72781826
  PAW double counting   =      5333.20217847    -4609.89849305
  entropy T*S    EENTRO =        -0.00473800
  eigenvalues    EBANDS =      -265.36705860
  atomic energy  EATOM  =      4496.35971583
  ---------------------------------------------------
  free energy    TOTEN  =      -132.58612050 eV

  energy without entropy =     -132.58138250  energy(sigma->0) =     -132.58375150


--------------------------------------------------------------------------------------------------------




----------------------------------------- Iteration    1(   8)  ---------------------------------------


    POTLOK:  cpu time    0.11: real time    0.11
    SETDIJ:  cpu time    0.10: real time    0.10
     EDDAV:  cpu time   11.02: real time   11.03
       DOS:  cpu time    0.00: real time    0.00
    CHARGE:  cpu time    0.76: real time    0.76
    MIXING:  cpu time    0.00: real time    0.00
    --------------------------------------------
      LOOP:  cpu time   12.01: real time   12.02

 eigenvalue-minimisations  :  6980
 total energy-change (2. order) : 0.1278003E+00  (-0.6170348E-01)
 number of electron      95.0000001 magnetization 
 augmentation part        5.7260987 magnetization 

 Broyden mixing:
  rms(total) = 0.10187E+00    rms(broyden)= 0.10183E+00
  rms(prec ) = 0.11574E+00
  weight for this iteration     100.00

 eigenvalues of (default mixing * dielectric matrix)
  average eigenvalue GAMMA=   1.3577
  2.4035  0.9430  0.7265

 Free energy of the ion-electron system (eV)
  ---------------------------------------------------
  alpha Z        PSCENC =       110.55676247
  Ewald energy   TEWEN  =     29395.31139930
  -Hartree energ DENC   =    -34195.23133420
  -exchange      EXHF   =         0.00000000
  -V(xc)+E(xc)   XCENC  =      -405.31765801
  PAW double counting   =      5804.42473938    -5080.86098473
  entropy T*S    EENTRO =        -0.00351611
  eigenvalues    EBANDS =      -257.69744414
  atomic energy  EATOM  =      4496.35971583
  ---------------------------------------------------
  free energy    TOTEN  =      -132.45832021 eV

  energy without entropy =     -132.45480410  energy(sigma->0) =     -132.45656215


--------------------------------------------------------------------------------------------------------




----------------------------------------- Iteration    1(   9)  ---------------------------------------


    POTLOK:  cpu time    0.11: real time    0.11
    SETDIJ:  cpu time    0.10: real time    0.10
     EDDAV:  cpu time   10.87: real time   10.88
       DOS:  cpu time    0.00: real time    0.00
    CHARGE:  cpu time    0.77: real time    0.77
    MIXING:  cpu time    0.00: real time    0.00
    --------------------------------------------
      LOOP:  cpu time   11.86: real time   11.87

 eigenvalue-minimisations  :  6982
 total energy-change (2. order) : 0.1697345E-01  (-0.8818562E-02)
 number of electron      95.0000001 magnetization 
 augmentation part        5.7015031 magnetization 

 Broyden mixing:
  rms(total) = 0.60406E-01    rms(broyden)= 0.60404E-01
  rms(prec ) = 0.66905E-01
  weight for this iteration     100.00

 eigenvalues of (default mixing * dielectric matrix)
  average eigenvalue GAMMA=   1.3237
  2.4242  1.0007  0.9350  0.9350

 Free energy of the ion-electron system (eV)
  ---------------------------------------------------
  alpha Z        PSCENC =       110.55676247
  Ewald energy   TEWEN  =     29395.31139930
  -Hartree energ DENC   =    -34200.63348463
  -exchange      EXHF   =         0.00000000
  -V(xc)+E(xc)   XCENC  =      -404.87585795
  PAW double counting   =      5846.13584552    -5122.61494614
  entropy T*S    EENTRO =        -0.00772706
  eigenvalues    EBANDS =      -252.67305410
  atomic energy  EATOM  =      4496.35971583
  ---------------------------------------------------
  free energy    TOTEN  =      -132.44134675 eV

  energy without entropy =     -132.43361969  energy(sigma->0) =     -132.43748322


--------------------------------------------------------------------------------------------------------




----------------------------------------- Iteration    1(  10)  ---------------------------------------


    POTLOK:  cpu time    0.11: real time    0.11
    SETDIJ:  cpu time    0.10: real time    0.10
     EDDAV:  cpu time   11.39: real time   11.40
       DOS:  cpu time    0.00: real time    0.00
    CHARGE:  cpu time    0.77: real time    0.77
    MIXING:  cpu time    0.00: real time    0.00
    --------------------------------------------
      LOOP:  cpu time   12.37: real time   12.39

 eigenvalue-minimisations  :  6976
 total energy-change (2. order) : 0.2573785E-02  (-0.3975832E-02)
 number of electron      95.0000001 magnetization 
 augmentation part        5.6933936 magnetization 

 Broyden mixing:
  rms(total) = 0.33900E-01    rms(broyden)= 0.33893E-01
  rms(prec ) = 0.40000E-01
  weight for this iteration     100.00

 eigenvalues of (default mixing * dielectric matrix)
  average eigenvalue GAMMA=   1.2896
  2.5310  1.7658  0.8886  0.8439  0.4187

 Free energy of the ion-electron system (eV)
  ---------------------------------------------------
  alpha Z        PSCENC =       110.55676247
  Ewald energy   TEWEN  =     29395.31139930
  -Hartree energ DENC   =    -34201.93090356
  -exchange      EXHF   =         0.00000000
  -V(xc)+E(xc)   XCENC  =      -404.77208621
  PAW double counting   =      5841.36522661    -5117.85990759
  entropy T*S    EENTRO =        -0.00625941
  eigenvalues    EBANDS =      -251.46272041
  atomic energy  EATOM  =      4496.35971583
  ---------------------------------------------------
  free energy    TOTEN  =      -132.43877297 eV

  energy without entropy =     -132.43251356  energy(sigma->0) =     -132.43564326


--------------------------------------------------------------------------------------------------------




----------------------------------------- Iteration    1(  11)  ---------------------------------------


    POTLOK:  cpu time    0.11: real time    0.11
    SETDIJ:  cpu time    0.10: real time    0.10
     EDDAV:  cpu time   11.77: real time   11.78
       DOS:  cpu time    0.00: real time    0.00
    CHARGE:  cpu time    0.78: real time    0.78
    MIXING:  cpu time    0.00: real time    0.00
    --------------------------------------------
      LOOP:  cpu time   12.76: real time   12.77

 eigenvalue-minimisations  :  7226
 total energy-change (2. order) :-0.4209273E-02  (-0.2166483E-02)
 number of electron      95.0000001 magnetization 
 augmentation part        5.6839536 magnetization 

 Broyden mixing:
  rms(total) = 0.25064E-01    rms(broyden)= 0.25053E-01
  rms(prec ) = 0.27262E-01
  weight for this iteration     100.00

 eigenvalues of (default mixing * dielectric matrix)
  average eigenvalue GAMMA=   1.2759
  2.5909  2.0123  0.9718  0.8197  0.8197  0.4410

 Free energy of the ion-electron system (eV)
  ---------------------------------------------------
  alpha Z        PSCENC =       110.55676247
  Ewald energy   TEWEN  =     29395.31139930
  -Hartree energ DENC   =    -34204.75248423
  -exchange      EXHF   =         0.00000000
  -V(xc)+E(xc)   XCENC  =      -404.59539833
  PAW double counting   =      5813.82537183    -5090.34037551
  entropy T*S    EENTRO =        -0.00685038
  eigenvalues    EBANDS =      -248.80112322
  atomic energy  EATOM  =      4496.35971583
  ---------------------------------------------------
  free energy    TOTEN  =      -132.44298224 eV

  energy without entropy =     -132.43613186  energy(sigma->0) =     -132.43955705


--------------------------------------------------------------------------------------------------------




----------------------------------------- Iteration    1(  12)  ---------------------------------------


    POTLOK:  cpu time    0.11: real time    0.11
    SETDIJ:  cpu time    0.10: real time    0.10
     EDDAV:  cpu time   12.61: real time   12.62
       DOS:  cpu time    0.00: real time    0.00
    CHARGE:  cpu time    0.77: real time    0.77
    MIXING:  cpu time    0.01: real time    0.01
    --------------------------------------------
      LOOP:  cpu time   13.60: real time   13.61

 eigenvalue-minimisations  :  7914
 total energy-change (2. order) :-0.8514128E-04  (-0.3499371E-03)
 number of electron      95.0000001 magnetization 
 augmentation part        5.6857482 magnetization 

 Broyden mixing:
  rms(total) = 0.16257E-01    rms(broyden)= 0.16257E-01
  rms(prec ) = 0.21878E-01
  weight for this iteration     100.00

 eigenvalues of (default mixing * dielectric matrix)
  average eigenvalue GAMMA=   1.3368
  2.8346  2.3699  0.9898  0.9898  0.9749  0.7950  0.4038

 Free energy of the ion-electron system (eV)
  ---------------------------------------------------
  alpha Z        PSCENC =       110.55676247
  Ewald energy   TEWEN  =     29395.31139930
  -Hartree energ DENC   =    -34205.27315626
  -exchange      EXHF   =         0.00000000
  -V(xc)+E(xc)   XCENC  =      -404.58078722
  PAW double counting   =      5803.28941985    -5079.80662181
  entropy T*S    EENTRO =        -0.00649734
  eigenvalues    EBANDS =      -248.29330219
  atomic energy  EATOM  =      4496.35971583
  ---------------------------------------------------
  free energy    TOTEN  =      -132.44306738 eV

  energy without entropy =     -132.43657004  energy(sigma->0) =     -132.43981871


--------------------------------------------------------------------------------------------------------




----------------------------------------- Iteration    1(  13)  ---------------------------------------


    POTLOK:  cpu time    0.11: real time    0.11
    SETDIJ:  cpu time    0.10: real time    0.10
     EDDAV:  cpu time   11.67: real time   11.68
       DOS:  cpu time    0.00: real time    0.00
    CHARGE:  cpu time    0.77: real time    0.77
    MIXING:  cpu time    0.00: real time    0.00
    --------------------------------------------
      LOOP:  cpu time   12.66: real time   12.67

 eigenvalue-minimisations  :  7182
 total energy-change (2. order) :-0.1709023E-04  (-0.4276026E-03)
 number of electron      95.0000001 magnetization 
 augmentation part        5.6867973 magnetization 

 Broyden mixing:
  rms(total) = 0.73234E-02    rms(broyden)= 0.73186E-02
  rms(prec ) = 0.14567E-01
  weight for this iteration     100.00

 eigenvalues of (default mixing * dielectric matrix)
  average eigenvalue GAMMA=   1.2341
  2.8816  2.4285  0.9652  0.9652  0.9571  0.7553  0.4046  0.5156

 Free energy of the ion-electron system (eV)
  ---------------------------------------------------
  alpha Z        PSCENC =       110.55676247
  Ewald energy   TEWEN  =     29395.31139930
  -Hartree energ DENC   =    -34205.99565597
  -exchange      EXHF   =         0.00000000
  -V(xc)+E(xc)   XCENC  =      -404.57225372
  PAW double counting   =      5793.08655757    -5069.60503502
  entropy T*S    EENTRO =        -0.00665376
  eigenvalues    EBANDS =      -247.57792117
  atomic energy  EATOM  =      4496.35971583
  ---------------------------------------------------
  free energy    TOTEN  =      -132.44308447 eV

  energy without entropy =     -132.43643072  energy(sigma->0) =     -132.43975760


--------------------------------------------------------------------------------------------------------




----------------------------------------- Iteration    1(  14)  ---------------------------------------


    POTLOK:  cpu time    0.11: real time    0.11
    SETDIJ:  cpu time    0.10: real time    0.10
     EDDAV:  cpu time   11.31: real time   11.32
       DOS:  cpu time    0.00: real time    0.00
    CHARGE:  cpu time    0.77: real time    0.77
    MIXING:  cpu time    0.00: real time    0.00
    --------------------------------------------
      LOOP:  cpu time   12.30: real time   12.31

 eigenvalue-minimisations  :  6876
 total energy-change (2. order) : 0.8291572E-04  (-0.1091042E-03)
 number of electron      95.0000001 magnetization 
 augmentation part        5.6870345 magnetization 

 Broyden mixing:
  rms(total) = 0.46475E-02    rms(broyden)= 0.46471E-02
  rms(prec ) = 0.10162E-01
  weight for this iteration     100.00

 eigenvalues of (default mixing * dielectric matrix)
  average eigenvalue GAMMA=   1.1917
  2.9231  2.4898  0.9266  0.9105  0.9105  0.8496  0.8496  0.4007  0.4644

 Free energy of the ion-electron system (eV)
  ---------------------------------------------------
  alpha Z        PSCENC =       110.55676247
  Ewald energy   TEWEN  =     29395.31139930
  -Hartree energ DENC   =    -34206.37124908
  -exchange      EXHF   =         0.00000000
  -V(xc)+E(xc)   XCENC  =      -404.57350287
  PAW double counting   =      5788.57845600    -5065.09619570
  entropy T*S    EENTRO =        -0.00684884
  eigenvalues    EBANDS =      -247.20153868
  atomic energy  EATOM  =      4496.35971583
  ---------------------------------------------------
  free energy    TOTEN  =      -132.44300156 eV

  energy without entropy =     -132.43615272  energy(sigma->0) =     -132.43957714


--------------------------------------------------------------------------------------------------------




----------------------------------------- Iteration    1(  15)  ---------------------------------------


    POTLOK:  cpu time    0.11: real time    0.11
    SETDIJ:  cpu time    0.11: real time    0.11
     EDDAV:  cpu time   11.29: real time   11.30
       DOS:  cpu time    0.00: real time    0.00
    CHARGE:  cpu time    0.79: real time    0.79
    MIXING:  cpu time    0.01: real time    0.01
    --------------------------------------------
      LOOP:  cpu time   12.30: real time   12.31

 eigenvalue-minimisations  :  6866
 total energy-change (2. order) : 0.1840463E-03  (-0.3895065E-04)
 number of electron      95.0000001 magnetization 
 augmentation part        5.6882353 magnetization 

 Broyden mixing:
  rms(total) = 0.26340E-02    rms(broyden)= 0.26332E-02
  rms(prec ) = 0.72640E-02
  weight for this iteration     100.00

 eigenvalues of (default mixing * dielectric matrix)
  average eigenvalue GAMMA=   1.2766
  3.2438  2.5631  1.6218  0.9407  0.9407  0.8953  0.8953  0.8623  0.4065  0.3964

 Free energy of the ion-electron system (eV)
  ---------------------------------------------------
  alpha Z        PSCENC =       110.55676247
  Ewald energy   TEWEN  =     29395.31139930
  -Hartree energ DENC   =    -34206.85624231
  -exchange      EXHF   =         0.00000000
  -V(xc)+E(xc)   XCENC  =      -404.58452195
  PAW double counting   =      5785.25971660    -5061.77371679
  entropy T*S    EENTRO =        -0.00699123
  eigenvalues    EBANDS =      -246.70893944
  atomic energy  EATOM  =      4496.35971583
  ---------------------------------------------------
  free energy    TOTEN  =      -132.44281751 eV

  energy without entropy =     -132.43582628  energy(sigma->0) =     -132.43932190


--------------------------------------------------------------------------------------------------------




----------------------------------------- Iteration    1(  16)  ---------------------------------------


    POTLOK:  cpu time    0.11: real time    0.11
    SETDIJ:  cpu time    0.10: real time    0.10
     EDDAV:  cpu time   12.16: real time   12.17
       DOS:  cpu time    0.00: real time    0.00
    CHARGE:  cpu time    0.78: real time    0.78
    MIXING:  cpu time    0.01: real time    0.01
    --------------------------------------------
      LOOP:  cpu time   13.17: real time   13.18

 eigenvalue-minimisations  :  7562
 total energy-change (2. order) : 0.4259923E-03  (-0.4949168E-04)
 number of electron      95.0000001 magnetization 
 augmentation part        5.6884787 magnetization 

 Broyden mixing:
  rms(total) = 0.34308E-02    rms(broyden)= 0.34304E-02
  rms(prec ) = 0.59246E-02
  weight for this iteration     100.00

 eigenvalues of (default mixing * dielectric matrix)
  average eigenvalue GAMMA=   1.3207
  3.3331  2.6084  2.1844  0.9706  0.9706  0.9487  0.9487  0.9688  0.7809  0.4027
  0.4112

 Free energy of the ion-electron system (eV)
  ---------------------------------------------------
  alpha Z        PSCENC =       110.55676247
  Ewald energy   TEWEN  =     29395.31139930
  -Hartree energ DENC   =    -34208.14834077
  -exchange      EXHF   =         0.00000000
  -V(xc)+E(xc)   XCENC  =      -404.58657800
  PAW double counting   =      5782.76745421    -5059.27928879
  entropy T*S    EENTRO =        -0.00713474
  eigenvalues    EBANDS =      -245.41638102
  atomic energy  EATOM  =      4496.35971583
  ---------------------------------------------------
  free energy    TOTEN  =      -132.44239152 eV

  energy without entropy =     -132.43525678  energy(sigma->0) =     -132.43882415


--------------------------------------------------------------------------------------------------------




----------------------------------------- Iteration    1(  17)  ---------------------------------------


    POTLOK:  cpu time    0.11: real time    0.11
    SETDIJ:  cpu time    0.10: real time    0.10
     EDDAV:  cpu time   12.54: real time   12.56
       DOS:  cpu time    0.00: real time    0.00
    CHARGE:  cpu time    0.77: real time    0.77
    MIXING:  cpu time    0.01: real time    0.01
    --------------------------------------------
      LOOP:  cpu time   13.54: real time   13.55

 eigenvalue-minimisations  :  7880
 total energy-change (2. order) : 0.3466977E-03  (-0.3572349E-04)
 number of electron      95.0000001 magnetization 
 augmentation part        5.6882773 magnetization 

 Broyden mixing:
  rms(total) = 0.21589E-02    rms(broyden)= 0.21586E-02
  rms(prec ) = 0.49615E-02
  weight for this iteration     100.00

 eigenvalues of (default mixing * dielectric matrix)
  average eigenvalue GAMMA=   1.3643
  3.8103  2.6429  2.3940  1.2319  0.9907  0.9907  0.9628  0.9628  0.7859  0.7859
  0.4013  0.4127

 Free energy of the ion-electron system (eV)
  ---------------------------------------------------
  alpha Z        PSCENC =       110.55676247
  Ewald energy   TEWEN  =     29395.31139930
  -Hartree energ DENC   =    -34209.06577135
  -exchange      EXHF   =         0.00000000
  -V(xc)+E(xc)   XCENC  =      -404.58291717
  PAW double counting   =      5784.80673214    -5061.31900464
  entropy T*S    EENTRO =        -0.00710719
  eigenvalues    EBANDS =      -244.50185422
  atomic energy  EATOM  =      4496.35971583
  ---------------------------------------------------
  free energy    TOTEN  =      -132.44204482 eV

  energy without entropy =     -132.43493763  energy(sigma->0) =     -132.43849123


--------------------------------------------------------------------------------------------------------




----------------------------------------- Iteration    1(  18)  ---------------------------------------


    POTLOK:  cpu time    0.11: real time    0.11
    SETDIJ:  cpu time    0.10: real time    0.10
     EDDAV:  cpu time   14.13: real time   14.14
       DOS:  cpu time    0.00: real time    0.00
    CHARGE:  cpu time    0.77: real time    0.77
    MIXING:  cpu time    0.01: real time    0.01
    --------------------------------------------
      LOOP:  cpu time   15.13: real time   15.14

 eigenvalue-minimisations  :  9168
 total energy-change (2. order) : 0.4122259E-03  (-0.2643474E-04)
 number of electron      95.0000001 magnetization 
 augmentation part        5.6877575 magnetization 

 Broyden mixing:
  rms(total) = 0.13523E-02    rms(broyden)= 0.13517E-02
  rms(prec ) = 0.35082E-02
  weight for this iteration     100.00

 eigenvalues of (default mixing * dielectric matrix)
  average eigenvalue GAMMA=   1.4997
  5.0539  2.9797  2.5173  1.7516  0.9519  0.9519  0.9808  0.9808  0.9143  0.8007
  0.8007  0.4023  0.4105

 Free energy of the ion-electron system (eV)
  ---------------------------------------------------
  alpha Z        PSCENC =       110.55676247
  Ewald energy   TEWEN  =     29395.31139930
  -Hartree energ DENC   =    -34210.29020365
  -exchange      EXHF   =         0.00000000
  -V(xc)+E(xc)   XCENC  =      -404.57818735
  PAW double counting   =      5785.69210695    -5062.20519752
  entropy T*S    EENTRO =        -0.00714766
  eigenvalues    EBANDS =      -243.28088097
  atomic energy  EATOM  =      4496.35971583
  ---------------------------------------------------
  free energy    TOTEN  =      -132.44163260 eV

  energy without entropy =     -132.43448494  energy(sigma->0) =     -132.43805877


--------------------------------------------------------------------------------------------------------




----------------------------------------- Iteration    1(  19)  ---------------------------------------


    POTLOK:  cpu time    0.11: real time    0.11
    SETDIJ:  cpu time    0.10: real time    0.10
     EDDAV:  cpu time   13.14: real time   13.15
       DOS:  cpu time    0.00: real time    0.00
    CHARGE:  cpu time    0.77: real time    0.77
    MIXING:  cpu time    0.01: real time    0.01
    --------------------------------------------
      LOOP:  cpu time   14.14: real time   14.15

 eigenvalue-minimisations  :  8360
 total energy-change (2. order) : 0.3677002E-03  (-0.3894988E-04)
 number of electron      95.0000001 magnetization 
 augmentation part        5.6873273 magnetization 

 Broyden mixing:
  rms(total) = 0.17465E-02    rms(broyden)= 0.17457E-02
  rms(prec ) = 0.27543E-02
  weight for this iteration     100.00

 eigenvalues of (default mixing * dielectric matrix)
  average eigenvalue GAMMA=   1.5441
  5.7841  3.0922  2.5482  1.8238  1.0052  1.0052  1.1121  1.0647  1.0647  0.7880
  0.7880  0.7292  0.4105  0.4021

 Free energy of the ion-electron system (eV)
  ---------------------------------------------------
  alpha Z        PSCENC =       110.55676247
  Ewald energy   TEWEN  =     29395.31139930
  -Hartree energ DENC   =    -34211.73670558
  -exchange      EXHF   =         0.00000000
  -V(xc)+E(xc)   XCENC  =      -404.57734490
  PAW double counting   =      5787.13272970    -5063.64635502
  entropy T*S    EENTRO =        -0.00713974
  eigenvalues    EBANDS =      -241.83432695
  atomic energy  EATOM  =      4496.35971583
  ---------------------------------------------------
  free energy    TOTEN  =      -132.44126490 eV

  energy without entropy =     -132.43412515  energy(sigma->0) =     -132.43769502


--------------------------------------------------------------------------------------------------------




----------------------------------------- Iteration    1(  20)  ---------------------------------------


    POTLOK:  cpu time    0.11: real time    0.11
    SETDIJ:  cpu time    0.10: real time    0.10
     EDDAV:  cpu time   12.40: real time   12.41
       DOS:  cpu time    0.00: real time    0.00
    CHARGE:  cpu time    0.78: real time    0.78
    MIXING:  cpu time    0.01: real time    0.01
    --------------------------------------------
      LOOP:  cpu time   13.40: real time   13.41

 eigenvalue-minimisations  :  7842
 total energy-change (2. order) : 0.6958407E-04  (-0.6065355E-04)
 number of electron      95.0000001 magnetization 
 augmentation part        5.6874028 magnetization 

 Broyden mixing:
  rms(total) = 0.17748E-02    rms(broyden)= 0.17743E-02
  rms(prec ) = 0.22957E-02
  weight for this iteration     100.00

 eigenvalues of (default mixing * dielectric matrix)
  average eigenvalue GAMMA=   1.4915
  5.9939  3.1170  2.5580  1.8760  1.0194  1.0194  1.1294  1.1294  1.0568  0.8006
  0.8006  0.7217  0.4106  0.4019  0.3370

 Free energy of the ion-electron system (eV)
  ---------------------------------------------------
  alpha Z        PSCENC =       110.55676247
  Ewald energy   TEWEN  =     29395.31139930
  -Hartree energ DENC   =    -34212.42032626
  -exchange      EXHF   =         0.00000000
  -V(xc)+E(xc)   XCENC  =      -404.58072892
  PAW double counting   =      5787.05576170    -5063.56905100
  entropy T*S    EENTRO =        -0.00714477
  eigenvalues    EBANDS =      -241.14758367
  atomic energy  EATOM  =      4496.35971583
  ---------------------------------------------------
  free energy    TOTEN  =      -132.44119531 eV

  energy without entropy =     -132.43405054  energy(sigma->0) =     -132.43762293


--------------------------------------------------------------------------------------------------------




----------------------------------------- Iteration    1(  21)  ---------------------------------------


    POTLOK:  cpu time    0.11: real time    0.11
    SETDIJ:  cpu time    0.10: real time    0.10
     EDDAV:  cpu time   11.73: real time   11.74
       DOS:  cpu time    0.00: real time    0.00
    CHARGE:  cpu time    0.77: real time    0.77
    MIXING:  cpu time    0.01: real time    0.01
    --------------------------------------------
      LOOP:  cpu time   12.72: real time   12.73

 eigenvalue-minimisations  :  7272
 total energy-change (2. order) : 0.2223810E-05  (-0.3769006E-04)
 number of electron      95.0000001 magnetization 
 augmentation part        5.6877403 magnetization 

 Broyden mixing:
  rms(total) = 0.17154E-02    rms(broyden)= 0.17147E-02
  rms(prec ) = 0.18208E-02
  weight for this iteration     100.00

 eigenvalues of (default mixing * dielectric matrix)
  average eigenvalue GAMMA=   1.5565
  6.4706  3.0478  2.5019  2.0238  1.3777  1.3777  1.0540  1.0540  0.9503  0.9503
  0.9257  0.9257  0.7159  0.7159  0.4021  0.4105

 Free energy of the ion-electron system (eV)
  ---------------------------------------------------
  alpha Z        PSCENC =       110.55676247
  Ewald energy   TEWEN  =     29395.31139930
  -Hartree energ DENC   =    -34212.75376072
  -exchange      EXHF   =         0.00000000
  -V(xc)+E(xc)   XCENC  =      -404.58382621
  PAW double counting   =      5786.14484088    -5062.65792552
  entropy T*S    EENTRO =        -0.00717469
  eigenvalues    EBANDS =      -240.81122442
  atomic energy  EATOM  =      4496.35971583
  ---------------------------------------------------
  free energy    TOTEN  =      -132.44119309 eV

  energy without entropy =     -132.43401840  energy(sigma->0) =     -132.43760574


[...]
     57       8.8011      0.00000
     58       9.0069      0.00000
     59       9.4769      0.00000
     60       9.6937      0.00000
     61       9.8472      0.00000
     62       9.8952      0.00000

 k-point    47 :      -0.3846    0.3846    0.0000
  band No.  band energies     occupation 
      1     -14.4634      2.00000
      2     -14.4366      2.00000
      3     -14.3869      2.00000
      4     -14.3201      2.00000
      5     -14.2437      2.00000
      6     -14.1643      2.00000
      7     -14.0913      2.00000
      8     -14.0310      2.00000
      9     -13.9887      2.00000
     10      -2.4432      2.00000
     11      -2.3343      2.00000
     12      -2.2176      2.00000
     13      -2.1605      2.00000
     14      -2.1117      2.00000
     15      -2.0103      2.00000
     16      -1.9530      2.00000
     17      -1.8567      2.00000
     18      -1.7605      2.00000
     19      -1.7202      2.00000
     20      -1.4139      2.00000
     21      -1.0255      2.00000
     22      -0.7794      2.00000
     23      -0.4293      2.00000
     24      -0.2147      2.00000
     25      -0.0701      2.00000
     26       0.2376      2.00000
     27       0.4441      2.00000
     28       0.4745      2.00000
     29       0.4802      2.00000
     30       0.5116      2.00000
     31       0.5716      2.00000
     32       0.5778      2.00000
     33       0.6665      2.00000
     34       0.6742      2.00000
     35       0.7683      2.00000
     36       0.8433      2.00000
     37       0.8749      2.00000
     38       0.9740      2.00000
     39       1.0299      2.00000
     40       1.0560      2.00000
     41       1.1130      2.00000
     42       1.3803      2.00000
     43       2.6478      2.00000
     44       3.2821      2.00000
     45       3.7310      2.00000
     46       4.6889      2.00000
     47       4.7947      2.00000
     48       4.8005      2.00000
     49       5.3406      0.00000
     50       5.4151      0.00000
     51       5.4596      0.00000
     52       6.2618      0.00000
     53       7.9736      0.00000
     54       8.4622      0.00000
     55       9.0886      0.00000
     56       9.1406      0.00000
     57       9.5172      0.00000
     58       9.7483      0.00000
     59       9.8566      0.00000
     60       9.9184      0.00000
     61       9.9536      0.00000
     62       9.9896      0.00000

 k-point    48 :       0.4615    0.4615    0.0000
  band No.  band energies     occupation 
      1     -14.2204      2.00000
      2     -14.2117      2.00000
      3     -14.1909      2.00000
      4     -14.1611      2.00000
      5     -14.1256      2.00000
      6     -14.0865      2.00000
      7     -14.0494      2.00000
      8     -14.0171      2.00000
      9     -13.9926      2.00000
     10      -2.7321      2.00000
     11      -2.6210      2.00000
     12      -2.4445      2.00000
     13      -2.2402      2.00000
     14      -2.2280      2.00000
     15      -2.1454      2.00000
     16      -2.0789      2.00000
     17      -2.0135      2.00000
     18      -1.9783      2.00000
     19      -0.3194      2.00000
     20      -0.2982      2.00000
     21      -0.1559      2.00000
     22      -0.0895      2.00000
     23       0.0526      2.00000
     24       0.0575      2.00000
     25       0.0705      2.00000
     26       0.1959      2.00000
     27       0.2265      2.00000
     28       0.2505      2.00000
     29       0.3212      2.00000
     30       0.3717      2.00000
     31       0.4909      2.00000
     32       0.5028      2.00000
     33       0.6404      2.00000
     34       0.6991      2.00000
     35       0.7808      2.00000
     36       0.8174      2.00000
     37       0.8334      2.00000
     38       0.9086      2.00000
     39       0.9274      2.00000
     40       0.9749      2.00000
     41       1.8518      2.00000
     42       2.1889      2.00000
     43       2.5125      2.00000
     44       2.5138      2.00000
     45       2.7431      2.00000
     46       2.7443      2.00000
     47       3.5226      2.00000
     48       3.8620      2.00000
     49       5.6872      0.00000
     50       5.9353      0.00000
     51       6.4074      0.00000
     52       6.4136      0.00000
     53       7.2192      0.00000
     54       7.7116      0.00000
     55       7.9173      0.00000
     56       7.9188      0.00000
     57       8.0642      0.00000
     58       8.8148      0.00000
     59       9.7283      0.00000
     60       9.8951      0.00000
     61       9.9569      0.00000
     62      10.0024      0.00000

 k-point    49 :      -0.4615    0.4615   -0.0000
  band No.  band energies     occupation 
      1     -14.2691      2.00000
      2     -14.2567      2.00000
      3     -14.2298      2.00000
      4     -14.1923      2.00000
      5     -14.1486      2.00000
      6     -14.1018      2.00000
      7     -14.0580      2.00000
      8     -14.0207      2.00000
      9     -13.9930      2.00000
     10      -2.7522      2.00000
     11      -2.6406      2.00000
     12      -2.4631      2.00000
     13      -2.2646      2.00000
     14      -2.2552      2.00000
     15      -2.1726      2.00000
     16      -2.0964      2.00000
     17      -2.0273      2.00000
     18      -1.9905      2.00000
     19      -0.8239      2.00000
     20      -0.4969      2.00000
     21      -0.3536      2.00000
     22      -0.1264      2.00000
     23      -0.0302      2.00000
     24       0.0589      2.00000
     25       0.1127      2.00000
     26       0.2854      2.00000
     27       0.3471      2.00000
     28       0.4045      2.00000
     29       0.4418      2.00000
     30       0.5083      2.00000
     31       0.5973      2.00000
     32       0.6764      2.00000
     33       0.6995      2.00000
     34       0.7977      2.00000
     35       0.8066      2.00000
     36       0.9061      2.00000
     37       0.9358      2.00000
     38       0.9885      2.00000
     39       1.0458      2.00000
     40       1.1555      2.00000
     41       1.5781      2.00000
     42       1.7950      2.00000
     43       1.7963      2.00000
     44       2.5720      2.00000
     45       3.0313      2.00000
     46       3.3455      2.00000
     47       3.3468      2.00000
     48       4.4040      2.00000
     49       4.9987      1.99999
     50       6.0750      0.00000
     51       6.0834      0.00000
     52       6.4704      0.00000
     53       6.7526      0.00000
     54       8.0970      0.00000
     55       8.1160      0.00000
     56       8.2654      0.00000
     57       9.3562      0.00000
     58       9.5293      0.00000
     59       9.6924      0.00000
     60       9.7715      0.00000
     61      10.0001      0.00000
     62      10.2498      0.00000


--------------------------------------------------------------------------------------------------------


 soft charge-density along one line, spin component           1
         0         1         2         3         4         5         6         7         8         9
 total charge-density along one line
 
 pseudopotential strength for first ion, spin component:           1
 12.330   0.000 -15.014   0.000  -0.000   0.000  -0.000   0.000   0.000   0.000   0.000   0.000   0.000   0.000  -0.000   0.000
-15.014   0.000  18.303   0.000   0.000   0.000   0.000   0.000  -0.000   0.000  -0.000   0.000  -0.000   0.000   0.000   0.000
 -0.000   0.000   0.000   0.000  -8.510   0.000  -0.000   0.000  -0.000   0.000  10.227   0.000   0.000   0.000   0.000   0.000
 -0.000   0.000   0.000   0.000  -0.000   0.000  -8.511   0.000   0.000   0.000   0.000   0.000  10.229   0.000  -0.000   0.000
  0.000   0.000  -0.000   0.000  -0.000   0.000   0.000   0.000  -8.510   0.000   0.000   0.000  -0.000   0.000  10.228   0.000
  0.000   0.000  -0.000   0.000  10.227   0.000   0.000   0.000   0.000   0.000 -12.140   0.000  -0.000   0.000  -0.000   0.000
  0.000   0.000  -0.000   0.000   0.000   0.000  10.229   0.000  -0.000   0.000  -0.000   0.000 -12.142   0.000   0.000   0.000
 -0.000   0.000   0.000   0.000   0.000   0.000  -0.000   0.000  10.228   0.000  -0.000   0.000   0.000   0.000 -12.140   0.000
 total augmentation occupancy for first ion, spin component:           1
  2.608   0.366   0.000   0.000  -0.000  -0.000  -0.000   0.000
  0.366   0.069   0.000   0.000  -0.000  -0.000  -0.000   0.000
  0.000   0.000   2.166   0.000  -0.000   0.262   0.000   0.000
  0.000   0.000   0.000   2.165  -0.000   0.000   0.263  -0.000
 -0.000  -0.000  -0.000  -0.000   2.166   0.000  -0.000   0.262
 -0.000  -0.000   0.262   0.000   0.000   0.034   0.000   0.000
 -0.000  -0.000   0.000   0.263  -0.000   0.000   0.034  -0.000
  0.000   0.000   0.000  -0.000   0.262   0.000  -0.000   0.034


------------------------ aborting loop because EDIFF is reached ----------------------------------------


    CHARGE:  cpu time    0.77: real time    0.77
    FORLOC:  cpu time    0.04: real time    0.04
    FORNL :  cpu time    6.90: real time    6.91
    STRESS:  cpu time    7.59: real time    7.59
    FORCOR:  cpu time    0.15: real time    0.15
    FORHAR:  cpu time    0.06: real time    0.06
    MIXING:  cpu time    0.00: real time    0.00
    OFIELD:  cpu time    0.00: real time    0.00

  FORCE on cell =-STRESS in cart. coord.  units (eV):
  Direction    XX          YY          ZZ          XY          YZ          ZX
  --------------------------------------------------------------------------------------
  Alpha Z   110.55676   110.55676   110.55676
  Ewald   31867.20473 31854.49128-34324.93389    11.01040 -1147.59166   662.56240
  Hartree 33350.99536 33338.01169-32475.58824    11.24412 -1141.86794   659.25800
  E(xc)    -389.11683  -389.12319  -389.88501     0.00549    -0.01871     0.01081
  Local  -66344.73800-66319.03025 65673.88447   -22.26333  2289.48829 -1321.83703
  n-local   -25.86908   -32.94765   -26.65322    -2.09122     1.69231     2.73153
  augment    53.63879    53.64178    53.35763    -0.00262    -0.00804     0.00465
  Kinetic  1389.41440  1365.33854  1378.29766    -7.00127     0.74337     1.35330
  Fock        0.00000     0.00000     0.00000     0.00000     0.00000     0.00000
  -------------------------------------------------------------------------------------
  Total      -3.53382    -3.44109    -0.96384    -0.08031     0.05986    -0.03456
  in kB     -15.48075   -15.07451    -4.22231    -0.35181     0.26224    -0.15141
  external pressure =      -11.59 kB  Pullay stress =        0.00 kB


 VOLUME and BASIS-vectors are now :
 -----------------------------------------------------------------------------
  energy-cutoff  :      520.00
  volume of cell :      365.73
      direct lattice vectors                 reciprocal lattice vectors
     2.592590006 -1.495275227  0.051895165     0.385648018 -0.000231807 -0.003349303
     0.001348276  2.992885737 -0.051895149     0.192623258  0.334096986  0.003349303
     0.408967606 -0.708352458 47.138692728    -0.000212502  0.000368064  0.021221370

  length of vectors
     2.993336608  2.993335925 47.145788463     0.385662631  0.385662719  0.021225625


 FORCES acting on ions
    electron-ion (+dipol)            ewald-force                    non-local-force                 convergence-correction
 -----------------------------------------------------------------------------------------------
   -.128E+02 0.221E+02 0.127E+04   0.128E+02 -.221E+02 -.127E+04   -.158E-03 0.274E-03 0.272E-01   0.205E-03 -.356E-03 -.187E-01
   0.152E-02 -.263E-02 -.156E+00   -.277E-02 0.480E-02 0.283E+00   -.647E-04 0.112E-03 0.702E-02   0.136E-02 -.235E-02 -.136E+00
   0.128E+02 -.221E+02 -.128E+04   -.128E+02 0.221E+02 0.128E+04   0.149E-03 -.258E-03 -.259E-01   0.475E-03 -.822E-03 -.483E-01
   -.170E+02 0.294E+02 0.170E+04   0.170E+02 -.294E+02 -.170E+04   -.697E-02 0.121E-01 0.723E+00   -.104E-03 0.180E-03 0.130E-01
   -.851E+01 0.147E+02 0.850E+03   0.851E+01 -.147E+02 -.850E+03   0.358E-04 -.620E-04 -.104E-02   0.591E-03 -.102E-02 -.577E-01
   -.425E+01 0.737E+01 0.425E+03   0.425E+01 -.737E+01 -.425E+03   -.157E-04 0.271E-04 0.189E-02   0.114E-02 -.197E-02 -.113E+00
   0.426E+01 -.738E+01 -.425E+03   -.426E+01 0.738E+01 0.425E+03   -.986E-04 0.171E-03 0.103E-01   0.121E-02 -.210E-02 -.123E+00
   0.851E+01 -.147E+02 -.850E+03   -.852E+01 0.147E+02 0.850E+03   -.413E-04 0.715E-04 0.366E-02   0.864E-03 -.150E-02 -.903E-01
   0.170E+02 -.294E+02 -.170E+04   -.170E+02 0.294E+02 0.170E+04   0.720E-02 -.125E-01 -.744E+00   0.166E-03 -.287E-03 -.180E-01
   -.621E+01 0.108E+02 0.619E+03   0.622E+01 -.108E+02 -.619E+03   -.557E-03 0.966E-03 0.211E+00   -.111E-03 0.193E-03 0.111E-01
   -.213E+01 0.368E+01 0.212E+03   0.213E+01 -.368E+01 -.212E+03   -.359E-05 0.622E-05 0.390E-02   0.296E-03 -.513E-03 -.296E-01
   0.213E+01 -.369E+01 -.213E+03   -.213E+01 0.369E+01 0.213E+03   -.735E-04 0.127E-03 0.225E-02   0.371E-03 -.642E-03 -.370E-01
   0.622E+01 -.108E+02 -.619E+03   -.622E+01 0.108E+02 0.619E+03   0.637E-03 -.110E-02 -.220E+00   0.967E-05 -.167E-04 -.951E-03
   -.497E+01 0.861E+01 0.496E+03   0.497E+01 -.861E+01 -.496E+03   0.584E-03 -.101E-02 -.287E-01   -.162E-04 0.281E-04 0.160E-02
   -.355E+01 0.614E+01 0.354E+03   0.355E+01 -.614E+01 -.354E+03   0.146E-03 -.253E-03 -.117E-02   0.117E-03 -.202E-03 -.117E-01
   -.709E+00 0.123E+01 0.708E+02   0.708E+00 -.123E+01 -.707E+02   -.635E-04 0.110E-03 0.634E-02   0.440E-03 -.763E-03 -.440E-01
   0.710E+00 -.123E+01 -.709E+02   -.710E+00 0.123E+01 0.709E+02   -.942E-04 0.163E-03 0.828E-02   0.468E-03 -.811E-03 -.468E-01
   0.355E+01 -.615E+01 -.354E+03   -.355E+01 0.615E+01 0.354E+03   -.897E-04 0.155E-03 -.280E-02   0.221E-03 -.382E-03 -.220E-01
   0.497E+01 -.861E+01 -.496E+03   -.497E+01 0.861E+01 0.496E+03   -.426E-03 0.738E-03 0.155E-01   0.836E-04 -.145E-03 -.835E-02
   -.762E-02 0.132E-01 0.762E+00   0.796E-02 -.138E-01 -.795E+00   -.134E-05 0.232E-05 -.500E-04   -.337E-03 0.584E-03 0.337E-01
   -.791E+01 0.137E+02 0.790E+03   0.788E+01 -.137E+02 -.787E+03   0.329E-01 -.569E-01 -.330E+01   -.410E-03 0.711E-03 0.410E-01
   -.207E+01 0.359E+01 0.207E+03   0.209E+01 -.362E+01 -.208E+03   -.162E-01 0.280E-01 0.152E+01   -.520E-03 0.901E-03 0.520E-01
   -.101E+01 0.175E+01 0.101E+03   0.101E+01 -.175E+01 -.101E+03   -.335E-03 0.580E-03 -.101E-01   -.451E-03 0.782E-03 0.451E-01
   0.792E+01 -.137E+02 -.791E+03   -.789E+01 0.137E+02 0.787E+03   -.329E-01 0.570E-01 0.330E+01   -.708E-04 0.123E-03 0.708E-02
   0.997E+00 -.173E+01 -.997E+02   -.997E+00 0.173E+01 0.996E+02   0.337E-03 -.583E-03 0.101E-01   -.215E-03 0.372E-03 0.214E-01
   0.206E+01 -.356E+01 -.205E+03   -.207E+01 0.359E+01 0.207E+03   0.162E-01 -.280E-01 -.152E+01   -.128E-03 0.222E-03 0.128E-01
 -----------------------------------------------------------------------------------------------
   -.569E-02 0.985E-02 0.566E+00   -.600E-13 0.155E-13 0.000E+00   0.232E-04 -.401E-04 0.271E-02   0.565E-02 -.979E-02 -.567E+00
 
 
 POSITION                                       TOTAL-FORCE (eV/Angst)
 -----------------------------------------------------------------------------------
      1.58456      0.25068     17.40545        -0.000012      0.000021      0.007294
      1.51204      0.37629     24.78394         0.000036     -0.000062     -0.002115
      1.43954      0.50187     32.16179        -0.000051      0.000088     -0.001850
      0.74504      1.70477     14.91790         0.000057     -0.000098      0.002786
      2.42410     -1.20344     19.89920         0.000057     -0.000099      0.000212
      0.67244      1.83053     22.28979         0.000071     -0.000122     -0.003240
      2.35165     -1.07796     27.27798        -0.000034      0.000060      0.000771
      0.60000      1.95599     29.66840        -0.000071      0.000122      0.000028
      2.27905     -0.95221     34.64929        -0.000059      0.000103     -0.003486
      1.62119      0.18723     13.69493         0.000038     -0.000066      0.004501
      1.54827      0.31354     21.09417        -0.000020      0.000035      0.003752
      1.47583      0.43901     28.47306         0.000007     -0.000012     -0.003493
      1.40290      0.56533     35.87272        -0.000082      0.000142      0.000165
      2.46042     -1.26635     16.21155         0.000053     -0.000092      0.001006
      0.70870      1.76772     18.60048         0.000021     -0.000036      0.004930
      2.38787     -1.14068     23.58826        -0.000008      0.000013      0.000926
      0.63623      1.89323     25.97845        -0.000050      0.000086      0.003843
      2.31539     -1.01516     30.96730         0.000017     -0.000030     -0.007879
      0.56367      2.01892     33.35666         0.000033     -0.000058     -0.008238
      2.60294     -1.51320      1.27296         0.000001     -0.000001     -0.000116
      2.50911     -1.35068     11.31682         0.000152     -0.000263     -0.005918
      1.69462      0.06006      5.67610        -0.000065      0.000113      0.003139
      0.85356      1.51681      3.40251         0.000011     -0.000019      0.000293
      0.51499      2.10322     38.25003        -0.000154      0.000267      0.005996
      2.17004     -0.76340     46.17831        -0.000010      0.000017     -0.000378
      1.32898      0.69336     43.90473         0.000063     -0.000108     -0.002929
 -----------------------------------------------------------------------------------
    total drift:                               -0.000010      0.000018      0.001459


--------------------------------------------------------------------------------------------------------



  FREE ENERGIE OF THE ION-ELECTRON SYSTEM (eV)
  ---------------------------------------------------
  free  energy   TOTEN  =      -132.44123970 eV

  energy  without entropy=     -132.43405044  energy(sigma->0) =     -132.43764507
 
 d Force = 0.7246766E-04[ 0.399E-05, 0.141E-03]  d Energy = 0.5812070E-04 0.143E-04
 d Force =-0.1460611E+01[-0.146E+01,-0.146E+01]  d Ewald  =-0.1460611E+01 0.191E-08


--------------------------------------------------------------------------------------------------------


    POTLOK:  cpu time    0.21: real time    0.21


--------------------------------------------------------------------------------------------------------


 Steepest descent step on ions:
 trial-energy change:   -0.000058  1 .order   -0.000072   -0.000141   -0.000004
  (g-gl).g = 0.141E-03      g.g   = 0.141E-03  gl.gl    = 0.000E+00
 g(Force)  = 0.141E-03   g(Stress)= 0.000E+00 ortho     = 0.000E+00
 gamma     =   0.00000
 trial     =   1.00000
 opt step  =   1.02915  (harmonic =   1.02915) maximal distance =0.00128244
 next E    =  -132.441254   (d E  =  -0.00007)


--------------------------------------------------------------------------------------------------------


  
 reached required accuracy - stopping structural energy minimisation
     LOOP+:  cpu time   86.14: real time   86.20
    4ORBIT:  cpu time    0.00: real time    0.00

 total amount of memory used by VASP on root node   218062. kBytes
========================================================================

   base      :      30000. kBytes
   nonl-proj :      38977. kBytes
   fftplans  :      62074. kBytes
   grid      :      24883. kBytes
   one-center:         56. kBytes
   wavefun   :      62072. kBytes
 
  
  
 General timing and accounting informations for this job:
 ========================================================
  
                  Total CPU time used (sec):      410.984
                            User time (sec):      408.796
                          System time (sec):        2.188
                         Elapsed time (sec):      411.310
  
                   Maximum memory used (kb):      327096.
                   Average memory used (kb):           0.
  
                          Minor page faults:       158081
                          Major page faults:            0
                 Voluntary context switches:           71
