       N       E                     dE             d eps       ncg     rms          rms(c)
DAV:   1     0.508287281028E+03    0.50829E+03   -0.45501E+04  2940   0.128E+03
DAV:   2    -0.104664192898E+03   -0.61295E+03   -0.57858E+03  3770   0.247E+02
DAV:   3    -0.160261229860E+03   -0.55597E+02   -0.55288E+02  3570   0.796E+01
DAV:   4    -0.160920618542E+03   -0.65939E+00   -0.65852E+00  3490   0.950E+00
DAV:   5    -0.160930425045E+03   -0.98065E-02   -0.98047E-02  3540   0.115E+00    0.232E+01
DAV:   6    -0.143998850144E+03    0.16932E+02   -0.88912E+01  3360   0.284E+01    0.766E+00
DAV:   7    -0.143865849936E+03    0.13300E+00   -0.18893E+00  3360   0.478E+00    0.476E+00
DAV:   8    -0.143790630950E+03    0.75219E-01   -0.76808E-01  3510   0.343E+00    0.895E-01
DAV:   9    -0.143729410713E+03    0.61220E-01   -0.25512E-01  3530   0.110E+00    0.433E-01
DAV:  10    -0.143728472524E+03    0.93819E-03   -0.34662E-02  3490   0.620E-01    0.257E-01
DAV:  11    -0.143728947288E+03   -0.47476E-03   -0.32062E-03  3380   0.191E-01    0.176E-01
DAV:  12    -0.143729037669E+03   -0.90381E-04   -0.14390E-03  3840   0.189E-01    0.637E-02
DAV:  13    -0.143729079804E+03   -0.42135E-04   -0.42537E-04  3430   0.864E-02    0.195E-02
DAV:  14    -0.143729064262E+03    0.15542E-04   -0.96643E-05  3240   0.380E-02    0.112E-02
DAV:  15    -0.143729055828E+03    0.84343E-05   -0.18984E-05  2310   0.233E-02
   1 F= -.14372906E+03 E0= -.14372487E+03  d E =-.143729E+03
       N       E                     dE             d eps       ncg     rms          rms(c)
DAV:   1    -0.145883976306E+03   -0.21549E+01   -0.76296E+01  3240   0.373E+01    0.622E+00
DAV:   2    -0.145339326564E+03    0.54465E+00   -0.84920E-01  3420   0.362E+00    0.357E+00
DAV:   3    -0.145042742785E+03    0.29658E+00   -0.36290E-01  3580   0.275E+00    0.358E-01
DAV:   4    -0.145042468210E+03    0.27458E-03   -0.56730E-02  3480   0.884E-01    0.291E-01
DAV:   5    -0.145041400896E+03    0.10673E-02   -0.33482E-03  3470   0.239E-01    0.184E-01
DAV:   6    -0.145040177778E+03    0.12231E-02   -0.23602E-03  3490   0.207E-01    0.715E-02
DAV:   7    -0.145039529815E+03    0.64796E-03   -0.62921E-04  3650   0.172E-01    0.346E-02
DAV:   8    -0.145039033270E+03    0.49655E-03   -0.45144E-04  3860   0.164E-01    0.266E-02
DAV:   9    -0.145038823588E+03    0.20968E-03   -0.20415E-04  3490   0.941E-02    0.187E-02
DAV:  10    -0.145038463032E+03    0.36056E-03   -0.44684E-04  3860   0.213E-01    0.267E-02
DAV:  11    -0.145038399244E+03    0.63788E-04   -0.32852E-04  3460   0.870E-02    0.192E-02
DAV:  12    -0.145038289421E+03    0.10982E-03   -0.14180E-04  3570   0.991E-02    0.224E-02
DAV:  13    -0.145038198420E+03    0.91000E-04   -0.53482E-05  3600   0.124E-01    0.188E-02
DAV:  14    -0.145038101369E+03    0.97052E-04   -0.19197E-04  4850   0.208E-01    0.104E-02
DAV:  15    -0.145038070192E+03    0.31177E-04   -0.16719E-04  3790   0.149E-01    0.150E-02
DAV:  16    -0.145038061426E+03    0.87659E-05   -0.10778E-04  3160   0.802E-02    0.117E-02
DAV:  17    -0.145038058122E+03    0.33040E-05   -0.30609E-05  2860   0.400E-02
   2 F= -.14503806E+03 E0= -.14503576E+03  d E =-.130900E+01
       N       E                     dE             d eps       ncg     rms          rms(c)
DAV:   1    -0.145466273892E+03   -0.42821E+00   -0.22894E+01  3290   0.204E+01    0.343E+00
DAV:   2    -0.145288681650E+03    0.17759E+00   -0.27728E-01  3390   0.203E+00    0.192E+00
DAV:   3    -0.145204211832E+03    0.84470E-01   -0.96432E-02  3620   0.141E+00    0.273E-01
DAV:   4    -0.145202857856E+03    0.13540E-02   -0.17951E-02  3430   0.494E-01    0.143E-01
DAV:   5    -0.145202513332E+03    0.34452E-03   -0.13128E-03  3450   0.142E-01    0.818E-02
DAV:   6    -0.145202280504E+03    0.23283E-03   -0.35335E-04  3490   0.829E-02    0.368E-02
DAV:   7    -0.145202134498E+03    0.14601E-03   -0.11877E-04  3700   0.684E-02    0.194E-02
DAV:   8    -0.145202044726E+03    0.89772E-04   -0.88812E-05  3320   0.600E-02    0.125E-02
DAV:   9    -0.145201995837E+03    0.48889E-04   -0.43826E-05  3240   0.436E-02    0.985E-03
DAV:  10    -0.145201865440E+03    0.13040E-03   -0.90664E-05  3880   0.127E-01    0.109E-02
DAV:  11    -0.145201844252E+03    0.21188E-04   -0.85504E-05  3300   0.527E-02    0.111E-02
DAV:  12    -0.145201824698E+03    0.19554E-04   -0.35639E-05  3020   0.356E-02    0.774E-03
DAV:  13    -0.145201787929E+03    0.36770E-04   -0.19103E-05  2840   0.886E-02    0.121E-02
DAV:  14    -0.145201768607E+03    0.19321E-04   -0.33775E-05  3170   0.704E-02    0.113E-02
DAV:  15    -0.145201756075E+03    0.12532E-04   -0.63752E-05  3570   0.835E-02    0.613E-03
DAV:  16    -0.145201752735E+03    0.33405E-05   -0.32444E-05  2950   0.491E-02
   3 F= -.14520175E+03 E0= -.14520007E+03  d E =-.147270E+01
       N       E                     dE             d eps       ncg     rms          rms(c)
DAV:   1    -0.145205163442E+03   -0.34074E-02   -0.15706E-01  3310   0.168E+00    0.284E-01
DAV:   2    -0.145203905571E+03    0.12579E-02   -0.20011E-03  3380   0.168E-01    0.158E-01
DAV:   3    -0.145203348483E+03    0.55709E-03   -0.71948E-04  3610   0.114E-01    0.257E-02
DAV:   4    -0.145203336839E+03    0.11645E-04   -0.13506E-04  3420   0.421E-02    0.997E-03
DAV:   5    -0.145203335558E+03    0.12803E-05   -0.11819E-05  2110   0.139E-02    0.518E-03
DAV:   6    -0.145203334314E+03    0.12446E-05   -0.20863E-06  2010   0.648E-03
   4 F= -.14520333E+03 E0= -.14520164E+03  d E =-.147428E+01
       N       E                     dE             d eps       ncg     rms          rms(c)
DAV:   1    -0.145456174777E+03   -0.25284E+00   -0.24314E+00  3060   0.556E+00    0.839E-01
DAV:   2    -0.145439574295E+03    0.16600E-01   -0.14101E-01  3380   0.140E+00    0.401E-01
DAV:   3    -0.145438029885E+03    0.15444E-02   -0.11699E-02  3470   0.444E-01    0.229E-01
DAV:   4    -0.145437165040E+03    0.86484E-03   -0.56330E-03  3490   0.322E-01    0.106E-01
DAV:   5    -0.145436882327E+03    0.28271E-03   -0.10948E-03  3640   0.158E-01    0.638E-02
DAV:   6    -0.145436791894E+03    0.90433E-04   -0.88509E-04  3560   0.134E-01    0.391E-02
DAV:   7    -0.145436730405E+03    0.61489E-04   -0.12397E-04  3750   0.724E-02    0.239E-02
DAV:   8    -0.145436692264E+03    0.38141E-04   -0.12965E-04  3630   0.758E-02    0.120E-02
DAV:   9    -0.145436665301E+03    0.26963E-04   -0.25921E-05  3000   0.575E-02    0.812E-03
DAV:  10    -0.145436658391E+03    0.69099E-05   -0.32091E-05  3160   0.307E-02
   5 F= -.14543666E+03 E0= -.14543477E+03  d E =-.233324E+00
       N       E                     dE             d eps       ncg     rms          rms(c)
DAV:   1    -0.145629354902E+03   -0.19269E+00   -0.70403E+00  3070   0.941E+00    0.145E+00
DAV:   2    -0.145573651760E+03    0.55703E-01   -0.42223E-01  3340   0.237E+00    0.694E-01
DAV:   3    -0.145568965233E+03    0.46865E-02   -0.39412E-02  3450   0.753E-01    0.381E-01
DAV:   4    -0.145566599529E+03    0.23657E-02   -0.15139E-02  3490   0.510E-01    0.183E-01
DAV:   5    -0.145565854173E+03    0.74536E-03   -0.30144E-03  3660   0.242E-01    0.106E-01
DAV:   6    -0.145565602539E+03    0.25163E-03   -0.19506E-03  3490   0.185E-01    0.648E-02
DAV:   7    -0.145565443054E+03    0.15948E-03   -0.29555E-04  3830   0.109E-01    0.354E-02
DAV:   8    -0.145565339111E+03    0.10394E-03   -0.37584E-04  4000   0.132E-01    0.249E-02
DAV:   9    -0.145565281472E+03    0.57639E-04   -0.99438E-05  3620   0.716E-02    0.164E-02
DAV:  10    -0.145565248686E+03    0.32786E-04   -0.58509E-05  3330   0.488E-02    0.804E-03
DAV:  11    -0.145565223735E+03    0.24951E-04   -0.17324E-05  2830   0.561E-02    0.888E-03
DAV:  12    -0.145565214661E+03    0.90734E-05   -0.35286E-05  3160   0.436E-02
   6 F= -.14556521E+03 E0= -.14556322E+03  d E =-.361880E+00
       N       E                     dE             d eps       ncg     rms          rms(c)
DAV:   1    -0.145904011959E+03   -0.33879E+00   -0.24740E+01  3030   0.203E+01    0.366E+00
DAV:   2    -0.145694255904E+03    0.20976E+00   -0.16755E+00  3380   0.477E+00    0.714E-01
DAV:   3    -0.145689694899E+03    0.45610E-02   -0.55469E-02  3420   0.101E+00    0.345E-01
DAV:   4    -0.145687515707E+03    0.21792E-02   -0.17232E-02  3540   0.563E-01    0.201E-01
DAV:   5    -0.145686881148E+03    0.63456E-03   -0.22164E-03  3540   0.254E-01    0.108E-01
DAV:   6    -0.145686558250E+03    0.32290E-03   -0.22430E-03  3670   0.260E-01    0.647E-02
DAV:   7    -0.145686391328E+03    0.16692E-03   -0.57238E-04  3670   0.139E-01    0.363E-02
DAV:   8    -0.145686204157E+03    0.18717E-03   -0.35184E-04  3740   0.156E-01    0.274E-02
DAV:   9    -0.145686041696E+03    0.16246E-03   -0.12382E-04  4300   0.130E-01    0.231E-02
DAV:  10    -0.145685854940E+03    0.18676E-03   -0.99364E-05  4290   0.151E-01    0.114E-02
DAV:  11    -0.145685420729E+03    0.43421E-03   -0.47027E-04  4760   0.486E-01    0.318E-02
DAV:  12    -0.145685325899E+03    0.94830E-04   -0.64167E-04  3610   0.231E-01    0.201E-02
DAV:  13    -0.145685321144E+03    0.47550E-05   -0.55776E-04  3440   0.120E-01    0.254E-02
DAV:  14    -0.145685305915E+03    0.15229E-04   -0.49105E-05  3400   0.603E-02    0.269E-02
DAV:  15    -0.145685255308E+03    0.50607E-04   -0.62933E-05  3900   0.989E-02    0.135E-02
DAV:  16    -0.145685238421E+03    0.16886E-04   -0.11858E-04  3880   0.845E-02    0.134E-02
DAV:  17    -0.145685237515E+03    0.90668E-06   -0.48329E-05  3030   0.281E-02
   7 F= -.14568524E+03 E0= -.14568321E+03  d E =-.120023E+00
       N       E                     dE             d eps       ncg     rms          rms(c)
DAV:   1    -0.145685698336E+03   -0.45991E-03   -0.36606E-02  3160   0.796E-01    0.139E-01
DAV:   2    -0.145685392331E+03    0.30600E-03   -0.23900E-03  3410   0.183E-01    0.281E-02
DAV:   3    -0.145685381809E+03    0.10522E-04   -0.84816E-05  3430   0.388E-02    0.130E-02
DAV:   4    -0.145685378908E+03    0.29016E-05   -0.21044E-05  2490   0.214E-02    0.708E-03
DAV:   5    -0.145685378735E+03    0.17334E-06   -0.25894E-06  1980   0.112E-02    0.387E-03
DAV:   6    -0.145685378201E+03    0.53312E-06   -0.29690E-06  2000   0.133E-02
   8 F= -.14568538E+03 E0= -.14568334E+03  d E =-.120164E+00
       N       E                     dE             d eps       ncg     rms          rms(c)
DAV:   1    -0.145730282125E+03   -0.44903E-01   -0.10658E+01  2940   0.133E+01    0.745E-01
DAV:   2    -0.145749957641E+03   -0.19676E-01   -0.29993E-01  3480   0.201E+00    0.456E-01
DAV:   3    -0.145745896078E+03    0.40616E-02   -0.51144E-03  3550   0.391E-01    0.284E-01
DAV:   4    -0.145743541067E+03    0.23550E-02   -0.11919E-02  3470   0.523E-01    0.116E-01
DAV:   5    -0.145743210925E+03    0.33014E-03   -0.20609E-03  3500   0.203E-01    0.824E-02
DAV:   6    -0.145742854975E+03    0.35595E-03   -0.17427E-03  3540   0.176E-01    0.461E-02
DAV:   7    -0.145742669445E+03    0.18553E-03   -0.19003E-04  3710   0.889E-02    0.386E-02
DAV:   8    -0.145742396766E+03    0.27268E-03   -0.23608E-04  4160   0.129E-01    0.169E-02
DAV:   9    -0.145741870543E+03    0.52622E-03   -0.29188E-04  4980   0.271E-01    0.354E-02
DAV:  10    -0.145741506858E+03    0.36368E-03   -0.27920E-04  3790   0.216E-01    0.209E-02
DAV:  11    -0.145741106596E+03    0.40026E-03   -0.68621E-04  4280   0.430E-01    0.535E-02
DAV:  12    -0.145740988788E+03    0.11781E-03   -0.65936E-04  3700   0.249E-01    0.438E-02
DAV:  13    -0.145740973426E+03    0.15362E-04   -0.68006E-04  3480   0.142E-01    0.191E-02
DAV:  14    -0.145740964190E+03    0.92361E-05   -0.10461E-04  3300   0.473E-02    0.115E-02
DAV:  15    -0.145740943719E+03    0.20471E-04   -0.27276E-05  2940   0.615E-02    0.993E-03
DAV:  16    -0.145740931875E+03    0.11844E-04   -0.33605E-05  3240   0.614E-02    0.141E-02
DAV:  17    -0.145740931140E+03    0.73532E-06   -0.70045E-05  3170   0.515E-02
   9 F= -.14574093E+03 E0= -.14573897E+03  d E =-.555529E-01
       N       E                     dE             d eps       ncg     rms          rms(c)
DAV:   1    -0.145745276546E+03   -0.43447E-02   -0.24761E+00  3010   0.636E+00    0.364E-01
DAV:   2    -0.145749465220E+03   -0.41887E-02   -0.67927E-02  3470   0.958E-01    0.215E-01
DAV:   3    -0.145748526177E+03    0.93904E-03   -0.12182E-03  3570   0.189E-01    0.135E-01
DAV:   4    -0.145747958783E+03    0.56739E-03   -0.27811E-03  3490   0.256E-01    0.566E-02
DAV:   5    -0.145747885161E+03    0.73622E-04   -0.49404E-04  3460   0.973E-02    0.439E-02
DAV:   6    -0.145747787388E+03    0.97774E-04   -0.48981E-04  3520   0.934E-02    0.247E-02
DAV:   7    -0.145747736942E+03    0.50445E-04   -0.49694E-05  3260   0.446E-02    0.233E-02
DAV:   8    -0.145747656699E+03    0.80244E-04   -0.75990E-05  3630   0.715E-02    0.807E-03
DAV:   9    -0.145747502648E+03    0.15405E-03   -0.78881E-05  4390   0.145E-01    0.173E-02
DAV:  10    -0.145747385524E+03    0.11712E-03   -0.90354E-05  3790   0.135E-01    0.103E-02
DAV:  11    -0.145747285965E+03    0.99559E-04   -0.17611E-04  4230   0.217E-01    0.216E-02
DAV:  12    -0.145747276148E+03    0.98162E-05   -0.20232E-04  3340   0.944E-02    0.166E-02
DAV:  13    -0.145747275353E+03    0.79534E-06   -0.10100E-04  3250   0.447E-02    0.901E-03
DAV:  14    -0.145747273399E+03    0.19540E-05   -0.88219E-06  2110   0.167E-02
  10 F= -.14574727E+03 E0= -.14574563E+03  d E =-.618952E-01
       N       E                     dE             d eps       ncg     rms          rms(c)
DAV:   1    -0.145764400632E+03   -0.17125E-01   -0.21566E+00  2950   0.586E+00    0.307E-01
DAV:   2    -0.145766905357E+03   -0.25047E-02   -0.50797E-02  3470   0.846E-01    0.185E-01
DAV:   3    -0.145766081013E+03    0.82434E-03   -0.16845E-03  3510   0.192E-01    0.112E-01
DAV:   4    -0.145765579618E+03    0.50140E-03   -0.13779E-03  3540   0.207E-01    0.457E-02
DAV:   5    -0.145765387543E+03    0.19207E-03   -0.55914E-04  3460   0.132E-01    0.307E-02
DAV:   6    -0.145765204037E+03    0.18351E-03   -0.20006E-04  3780   0.112E-01    0.186E-02
DAV:   7    -0.145765084875E+03    0.11916E-03   -0.75628E-05  3670   0.795E-02    0.155E-02
DAV:   8    -0.145764774218E+03    0.31066E-03   -0.13597E-04  4490   0.187E-01    0.221E-02
DAV:   9    -0.145764314183E+03    0.46003E-03   -0.23877E-04  4460   0.331E-01    0.225E-02
DAV:  10    -0.145764198093E+03    0.11609E-03   -0.36649E-04  3590   0.165E-01    0.153E-02
DAV:  11    -0.145764001287E+03    0.19681E-03   -0.30144E-04  4870   0.366E-01    0.272E-02
DAV:  12    -0.145763949754E+03    0.51533E-04   -0.38162E-04  3640   0.250E-01    0.205E-02
DAV:  13    -0.145763974374E+03   -0.24620E-04   -0.42705E-04  3370   0.906E-02    0.158E-02
DAV:  14    -0.145763972404E+03    0.19696E-05   -0.39955E-05  3110   0.287E-02
  11 F= -.14576397E+03 E0= -.14576242E+03  d E =-.166990E-01
       N       E                     dE             d eps       ncg     rms          rms(c)
DAV:   1    -0.145766223941E+03   -0.22496E-02   -0.48523E-01  3010   0.280E+00    0.149E-01
DAV:   2    -0.145766795904E+03   -0.57196E-03   -0.11864E-02  3490   0.411E-01    0.884E-02
DAV:   3    -0.145766609316E+03    0.18659E-03   -0.38064E-04  3520   0.931E-02    0.540E-02
DAV:   4    -0.145766496996E+03    0.11232E-03   -0.33175E-04  3540   0.102E-01    0.222E-02
DAV:   5    -0.145766454650E+03    0.42347E-04   -0.13391E-04  3430   0.653E-02    0.155E-02
DAV:   6    -0.145766416426E+03    0.38223E-04   -0.48491E-05  3120   0.537E-02    0.864E-03
DAV:   7    -0.145766388654E+03    0.27772E-04   -0.14029E-05  2250   0.399E-02    0.715E-03
DAV:   8    -0.145766315106E+03    0.73549E-04   -0.32441E-05  3320   0.972E-02    0.910E-03
DAV:   9    -0.145766222327E+03    0.92779E-04   -0.51994E-05  3640   0.143E-01    0.105E-02
DAV:  10    -0.145766179079E+03    0.43248E-04   -0.86290E-05  3790   0.108E-01    0.814E-03
DAV:  11    -0.145766135309E+03    0.43770E-04   -0.58487E-05  3790   0.177E-01    0.119E-02
DAV:  12    -0.145766132776E+03    0.25326E-05   -0.13451E-04  3440   0.110E-01    0.942E-03
DAV:  13    -0.145766139326E+03   -0.65499E-05   -0.96032E-05  3180   0.336E-02
  12 F= -.14576614E+03 E0= -.14576467E+03  d E =-.188659E-01
       N       E                     dE             d eps       ncg     rms          rms(c)
DAV:   1    -0.145775446778E+03   -0.93140E-02   -0.46911E+00  2950   0.860E+00    0.447E-01
DAV:   2    -0.145781647282E+03   -0.62005E-02   -0.11375E-01  3490   0.124E+00    0.186E-01
DAV:   3    -0.145780590267E+03    0.10570E-02   -0.24649E-03  3460   0.247E-01    0.108E-01
DAV:   4    -0.145780105824E+03    0.48444E-03   -0.17699E-03  3520   0.245E-01    0.481E-02
DAV:   5    -0.145779966160E+03    0.13966E-03   -0.80213E-04  3460   0.153E-01    0.345E-02
DAV:   6    -0.145779875617E+03    0.90543E-04   -0.14393E-04  3480   0.840E-02    0.177E-02
DAV:   7    -0.145779758748E+03    0.11687E-03   -0.47461E-05  3580   0.104E-01    0.171E-02
DAV:   8    -0.145779679719E+03    0.79028E-04   -0.41585E-05  3280   0.827E-02    0.122E-02
DAV:   9    -0.145779550494E+03    0.12923E-03   -0.59753E-05  3760   0.149E-01    0.888E-03
DAV:  10    -0.145779365822E+03    0.18467E-03   -0.16353E-04  4480   0.265E-01    0.156E-02
DAV:  11    -0.145779273443E+03    0.92380E-04   -0.21722E-04  3860   0.192E-01    0.100E-02
DAV:  12    -0.145779230585E+03    0.42858E-04   -0.16871E-04  4390   0.168E-01    0.857E-03
DAV:  13    -0.145779235300E+03   -0.47145E-05   -0.18411E-04  3310   0.697E-02    0.103E-02
DAV:  14    -0.145779231152E+03    0.41479E-05   -0.28404E-05  2830   0.259E-02
  13 F= -.14577923E+03 E0= -.14577782E+03  d E =-.130918E-01
       N       E                     dE             d eps       ncg     rms          rms(c)
DAV:   1    -0.145780071417E+03   -0.83612E-03   -0.20261E+00  2960   0.568E+00    0.292E-01
DAV:   2    -0.145782654171E+03   -0.25828E-02   -0.47483E-02  3470   0.812E-01    0.120E-01
DAV:   3    -0.145782224895E+03    0.42928E-03   -0.10549E-03  3440   0.160E-01    0.692E-02
DAV:   4    -0.145782027044E+03    0.19785E-03   -0.70464E-04  3530   0.154E-01    0.307E-02
DAV:   5    -0.145781968560E+03    0.58484E-04   -0.33157E-04  3450   0.970E-02    0.218E-02
DAV:   6    -0.145781941331E+03    0.27230E-04   -0.55073E-05  3310   0.443E-02    0.139E-02
DAV:   7    -0.145781883081E+03    0.58249E-04   -0.32999E-05  3240   0.665E-02    0.113E-02
DAV:   8    -0.145781851771E+03    0.31311E-04   -0.12195E-05  2460   0.473E-02    0.116E-02
DAV:   9    -0.145781797797E+03    0.53973E-04   -0.46997E-05  3440   0.930E-02    0.839E-03
DAV:  10    -0.145781737012E+03    0.60786E-04   -0.37803E-05  3370   0.108E-01    0.111E-02
DAV:  11    -0.145781667685E+03    0.69327E-04   -0.53584E-05  3640   0.137E-01    0.856E-03
DAV:  12    -0.145781612730E+03    0.54955E-04   -0.12850E-04  4240   0.224E-01    0.859E-03
DAV:  13    -0.145781628524E+03   -0.15794E-04   -0.24077E-04  3220   0.664E-02    0.719E-03
DAV:  14    -0.145781627497E+03    0.10264E-05   -0.26571E-05  2870   0.339E-02
  14 F= -.14578163E+03 E0= -.14578016E+03  d E =-.154882E-01
       N       E                     dE             d eps       ncg     rms          rms(c)
DAV:   1    -0.145787963104E+03   -0.63346E-02   -0.28819E+00  2990   0.697E+00    0.310E-01
DAV:   2    -0.145793196155E+03   -0.52331E-02   -0.71062E-02  3460   0.999E-01    0.162E-01
DAV:   3    -0.145792684124E+03    0.51203E-03   -0.15185E-03  3500   0.161E-01    0.107E-01
DAV:   4    -0.145792397131E+03    0.28699E-03   -0.97213E-04  3450   0.153E-01    0.475E-02
DAV:   5    -0.145792309420E+03    0.87711E-04   -0.41521E-04  3590   0.107E-01    0.320E-02
DAV:   6    -0.145792289003E+03    0.20418E-04   -0.17686E-04  3490   0.678E-02    0.187E-02
DAV:   7    -0.145792273147E+03    0.15855E-04   -0.33513E-05  3110   0.356E-02    0.118E-02
DAV:   8    -0.145792254007E+03    0.19140E-04   -0.77974E-06  2530   0.472E-02    0.874E-03
DAV:   9    -0.145792241177E+03    0.12830E-04   -0.21536E-05  2820   0.435E-02    0.450E-03
DAV:  10    -0.145792236007E+03    0.51705E-05   -0.14169E-05  2260   0.313E-02
  15 F= -.14579224E+03 E0= -.14579042E+03  d E =-.106085E-01
       N       E                     dE             d eps       ncg     rms          rms(c)
DAV:   1    -0.145782527859E+03    0.97133E-02   -0.10327E+01  2950   0.133E+01    0.608E-01
DAV:   2    -0.145801706738E+03   -0.19179E-01   -0.26239E-01  3460   0.194E+00    0.309E-01
DAV:   3    -0.145799884588E+03    0.18222E-02   -0.64070E-03  3490   0.328E-01    0.208E-01
DAV:   4    -0.145798863125E+03    0.10215E-02   -0.34898E-03  3450   0.281E-01    0.987E-02
DAV:   5    -0.145798468199E+03    0.39493E-03   -0.14919E-03  3590   0.220E-01    0.648E-02
DAV:   6    -0.145798399628E+03    0.68571E-04   -0.72544E-04  3500   0.137E-01    0.417E-02
DAV:   7    -0.145798345533E+03    0.54095E-04   -0.19785E-04  3520   0.771E-02    0.241E-02
DAV:   8    -0.145798279772E+03    0.65761E-04   -0.30603E-05  3120   0.891E-02    0.177E-02
DAV:   9    -0.145798222941E+03    0.56832E-04   -0.68163E-05  3830   0.924E-02    0.881E-03
DAV:  10    -0.145798198688E+03    0.24253E-04   -0.48434E-05  3190   0.649E-02    0.798E-03
DAV:  11    -0.145798185110E+03    0.13578E-04   -0.16734E-05  2500   0.512E-02    0.738E-03
DAV:  12    -0.145798173361E+03    0.11749E-04   -0.11533E-05  2450   0.593E-02    0.519E-03
DAV:  13    -0.145798169964E+03    0.33976E-05   -0.34395E-05  2970   0.420E-02
  16 F= -.14579817E+03 E0= -.14579529E+03  d E =-.165425E-01
       N       E                     dE             d eps       ncg     rms          rms(c)
DAV:   1    -0.145796918734E+03    0.12546E-02   -0.55492E+00  2970   0.968E+00    0.416E-01
DAV:   2    -0.145806302786E+03   -0.93841E-02   -0.13291E-01  3420   0.139E+00    0.191E-01
DAV:   3    -0.145805374121E+03    0.92867E-03   -0.34224E-03  3480   0.246E-01    0.110E-01
DAV:   4    -0.145804994214E+03    0.37991E-03   -0.11675E-03  3500   0.180E-01    0.613E-02
DAV:   5    -0.145804783339E+03    0.21088E-03   -0.53725E-04  3680   0.157E-01    0.246E-02
DAV:   6    -0.145804716496E+03    0.66843E-04   -0.24685E-04  4010   0.127E-01    0.189E-02
DAV:   7    -0.145804693204E+03    0.23292E-04   -0.11686E-04  3410   0.667E-02    0.180E-02
DAV:   8    -0.145804678516E+03    0.14688E-04   -0.17910E-05  2430   0.257E-02    0.123E-02
DAV:   9    -0.145804650237E+03    0.28279E-04   -0.42723E-05  3250   0.574E-02    0.951E-03
DAV:  10    -0.145804645581E+03    0.46559E-05   -0.14914E-05  2390   0.252E-02
  17 F= -.14580465E+03 E0= -.14580148E+03  d E =-.647562E-02
       N       E                     dE             d eps       ncg     rms          rms(c)
DAV:   1    -0.145804148425E+03    0.50181E-03   -0.53360E-01  2970   0.300E+00    0.130E-01
DAV:   2    -0.145805024493E+03   -0.87607E-03   -0.12851E-02  3420   0.432E-01    0.586E-02
DAV:   3    -0.145804930170E+03    0.94322E-04   -0.31409E-04  3470   0.749E-02    0.348E-02
DAV:   4    -0.145804883232E+03    0.46938E-04   -0.11326E-04  3480   0.611E-02    0.194E-02
DAV:   5    -0.145804853249E+03    0.29983E-04   -0.62831E-05  3300   0.597E-02    0.799E-03
DAV:   6    -0.145804840510E+03    0.12739E-04   -0.28585E-05  2890   0.505E-02    0.576E-03
DAV:   7    -0.145804835981E+03    0.45296E-05   -0.21678E-05  2600   0.305E-02
  18 F= -.14580484E+03 E0= -.14580163E+03  d E =-.666602E-02
       N       E                     dE             d eps       ncg     rms          rms(c)
DAV:   1    -0.145804969701E+03   -0.12919E-03   -0.42092E+00  2940   0.842E+00    0.441E-01
DAV:   2    -0.145811179415E+03   -0.62097E-02   -0.10529E-01  3490   0.124E+00    0.166E-01
DAV:   3    -0.145810487611E+03    0.69180E-03   -0.19829E-03  3460   0.201E-01    0.100E-01
DAV:   4    -0.145810171866E+03    0.31574E-03   -0.13239E-03  3520   0.180E-01    0.434E-02
DAV:   5    -0.145810095373E+03    0.76493E-04   -0.48870E-04  3470   0.992E-02    0.335E-02
DAV:   6    -0.145810059682E+03    0.35692E-04   -0.12462E-04  3450   0.563E-02    0.176E-02
DAV:   7    -0.145810021642E+03    0.38039E-04   -0.24864E-05  2810   0.390E-02    0.114E-02
DAV:   8    -0.145809972831E+03    0.48812E-04   -0.24140E-05  2940   0.626E-02    0.123E-02
DAV:   9    -0.145809937848E+03    0.34983E-04   -0.31042E-05  3100   0.535E-02    0.923E-03
DAV:  10    -0.145809894299E+03    0.43548E-04   -0.31327E-05  3200   0.763E-02    0.594E-03
DAV:  11    -0.145809851988E+03    0.42311E-04   -0.45496E-05  3410   0.111E-01    0.126E-02
DAV:  12    -0.145809842304E+03    0.96841E-05   -0.76460E-05  3290   0.595E-02
  19 F= -.14580984E+03 E0= -.14580662E+03  d E =-.500632E-02
       N       E                     dE             d eps       ncg     rms          rms(c)
DAV:   1    -0.145809828338E+03    0.23651E-04   -0.48626E-02  3080   0.906E-01    0.464E-02
DAV:   2    -0.145809900381E+03   -0.72043E-04   -0.12015E-03  3480   0.133E-01    0.192E-02
DAV:   3    -0.145809889582E+03    0.10798E-04   -0.19554E-05  2390   0.228E-02    0.114E-02
DAV:   4    -0.145809884158E+03    0.54245E-05   -0.19815E-05  2440   0.265E-02    0.474E-03
DAV:   5    -0.145809883106E+03    0.10518E-05   -0.10152E-05  2020   0.150E-02    0.439E-03
DAV:   6    -0.145809882313E+03    0.79311E-06   -0.19510E-06  1940   0.763E-03
  20 F= -.14580988E+03 E0= -.14580667E+03  d E =-.504633E-02
       N       E                     dE             d eps       ncg     rms          rms(c)
DAV:   1    -0.145811670880E+03   -0.17878E-02   -0.10627E+00  2960   0.416E+00    0.176E-01
DAV:   2    -0.145813412020E+03   -0.17411E-02   -0.23647E-02  3480   0.593E-01    0.861E-02
DAV:   3    -0.145813237475E+03    0.17454E-03   -0.49977E-04  3530   0.117E-01    0.579E-02
DAV:   4    -0.145813131131E+03    0.10634E-03   -0.39700E-04  3460   0.102E-01    0.252E-02
DAV:   5    -0.145813104157E+03    0.26974E-04   -0.10952E-04  3530   0.652E-02    0.208E-02
DAV:   6    -0.145813088588E+03    0.15569E-04   -0.66487E-05  3200   0.472E-02    0.953E-03
DAV:   7    -0.145813071807E+03    0.16781E-04   -0.21099E-05  2650   0.405E-02    0.755E-03
DAV:   8    -0.145813061869E+03    0.99376E-05   -0.14373E-05  2210   0.262E-02
  21 F= -.14581306E+03 E0= -.14580997E+03  d E =-.317956E-02
       N       E                     dE             d eps       ncg     rms          rms(c)
DAV:   1    -0.145811647923E+03    0.14239E-02   -0.14848E+00  2940   0.493E+00    0.208E-01
DAV:   2    -0.145814051187E+03   -0.24033E-02   -0.33322E-02  3480   0.710E-01    0.102E-01
DAV:   3    -0.145813775345E+03    0.27584E-03   -0.74913E-04  3540   0.144E-01    0.693E-02
DAV:   4    -0.145813559091E+03    0.21625E-03   -0.53667E-04  3480   0.125E-01    0.309E-02
DAV:   5    -0.145813465184E+03    0.93908E-04   -0.15158E-04  3680   0.961E-02    0.261E-02
DAV:   6    -0.145813385035E+03    0.80149E-04   -0.14113E-04  4020   0.980E-02    0.123E-02
DAV:   7    -0.145813307617E+03    0.77418E-04   -0.50699E-05  3430   0.868E-02    0.150E-02
DAV:   8    -0.145813224947E+03    0.82669E-04   -0.29825E-05  3020   0.786E-02    0.968E-03
DAV:   9    -0.145812995353E+03    0.22959E-03   -0.14641E-04  4490   0.265E-01    0.992E-03
DAV:  10    -0.145812914734E+03    0.80619E-04   -0.18758E-04  3560   0.172E-01    0.106E-02
DAV:  11    -0.145812873314E+03    0.41421E-04   -0.14694E-04  4100   0.171E-01    0.538E-03
DAV:  12    -0.145812879425E+03   -0.61110E-05   -0.16725E-04  3410   0.862E-02    0.636E-03
DAV:  13    -0.145812882575E+03   -0.31508E-05   -0.51406E-05  3070   0.271E-02
  22 F= -.14581288E+03 E0= -.14581004E+03  d E =-.300026E-02
       N       E                     dE             d eps       ncg     rms          rms(c)
DAV:   1    -0.145813075370E+03   -0.19595E-03   -0.32637E-01  3000   0.229E+00    0.940E-02
DAV:   2    -0.145813599389E+03   -0.52402E-03   -0.71324E-03  3470   0.326E-01    0.484E-02
DAV:   3    -0.145813545020E+03    0.54369E-04   -0.16831E-04  3520   0.680E-02    0.325E-02
DAV:   4    -0.145813508154E+03    0.36866E-04   -0.12102E-04  3340   0.573E-02    0.151E-02
DAV:   5    -0.145813494161E+03    0.13993E-04   -0.34536E-05  3290   0.397E-02    0.116E-02
DAV:   6    -0.145813485011E+03    0.91505E-05   -0.23748E-05  2640   0.332E-02
  23 F= -.14581349E+03 E0= -.14581055E+03  d E =-.360270E-02
       N       E                     dE             d eps       ncg     rms          rms(c)
DAV:   1    -0.145814262083E+03   -0.76792E-03   -0.47746E-01  2940   0.281E+00    0.102E-01
DAV:   2    -0.145815200891E+03   -0.93881E-03   -0.10637E-02  3450   0.389E-01    0.560E-02
DAV:   3    -0.145815129779E+03    0.71112E-04   -0.98611E-05  3510   0.506E-02    0.372E-02
DAV:   4    -0.145815070899E+03    0.58880E-04   -0.14871E-04  3500   0.817E-02    0.110E-02
DAV:   5    -0.145815064790E+03    0.61089E-05   -0.85018E-05  3310   0.427E-02    0.119E-02
DAV:   6    -0.145815061206E+03    0.35844E-05   -0.97505E-06  2040   0.131E-02
  24 F= -.14581506E+03 E0= -.14581227E+03  d E =-.157620E-02
       N       E                     dE             d eps       ncg     rms          rms(c)
DAV:   1    -0.145810329685E+03    0.47351E-02   -0.42892E+00  2940   0.843E+00    0.307E-01
DAV:   2    -0.145818887357E+03   -0.85577E-02   -0.95661E-02  3450   0.117E+00    0.167E-01
DAV:   3    -0.145818282714E+03    0.60464E-03   -0.82548E-04  3530   0.151E-01    0.109E-01
DAV:   4    -0.145817851202E+03    0.43151E-03   -0.14261E-03  3550   0.244E-01    0.309E-02
DAV:   5    -0.145817853543E+03   -0.23408E-05   -0.72470E-04  3390   0.113E-01    0.367E-02
DAV:   6    -0.145817836689E+03    0.16853E-04   -0.49197E-05  3130   0.277E-02    0.298E-02
DAV:   7    -0.145817810597E+03    0.26092E-04   -0.18908E-05  2240   0.207E-02    0.236E-02
DAV:   8    -0.145817718674E+03    0.91923E-04   -0.14291E-04  3380   0.860E-02    0.255E-02
DAV:   9    -0.145817684058E+03    0.34616E-04   -0.77744E-05  3500   0.641E-02    0.212E-02
DAV:  10    -0.145817664812E+03    0.19247E-04   -0.14226E-04  3300   0.724E-02    0.248E-02
DAV:  11    -0.145817590680E+03    0.74132E-04   -0.78404E-05  3840   0.971E-02    0.108E-02
DAV:  12    -0.145817515092E+03    0.75589E-04   -0.71104E-05  3980   0.157E-01    0.188E-02
DAV:  13    -0.145817424318E+03    0.90774E-04   -0.17809E-04  4660   0.302E-01    0.199E-02
DAV:  14    -0.145817423865E+03    0.45269E-06   -0.26544E-04  3450   0.106E-01    0.986E-03
DAV:  15    -0.145817426761E+03   -0.28960E-05   -0.68064E-05  3080   0.418E-02
  25 F= -.14581743E+03 E0= -.14581497E+03  d E =-.394175E-02
       N       E                     dE             d eps       ncg     rms          rms(c)
DAV:   1    -0.145819175406E+03   -0.17515E-02   -0.33857E-01  3070   0.238E+00    0.783E-02
DAV:   2    -0.145819806351E+03   -0.63095E-03   -0.76456E-03  3500   0.340E-01    0.470E-02
DAV:   3    -0.145819746320E+03    0.60032E-04   -0.12663E-04  3550   0.570E-02    0.328E-02
DAV:   4    -0.145819705984E+03    0.40336E-04   -0.91090E-05  3400   0.516E-02    0.155E-02
DAV:   5    -0.145819688397E+03    0.17587E-04   -0.44492E-05  3400   0.432E-02    0.831E-03
DAV:   6    -0.145819683230E+03    0.51671E-05   -0.29118E-05  2910   0.346E-02
  26 F= -.14581968E+03 E0= -.14581727E+03  d E =-.225647E-02
       N       E                     dE             d eps       ncg     rms          rms(c)
DAV:   1    -0.145817898088E+03    0.17903E-02   -0.28865E+00  3000   0.695E+00    0.231E-01
DAV:   2    -0.145823260858E+03   -0.53628E-02   -0.64696E-02  3490   0.990E-01    0.138E-01
DAV:   3    -0.145822747912E+03    0.51295E-03   -0.10393E-03  3560   0.163E-01    0.958E-02
DAV:   4    -0.145822404769E+03    0.34314E-03   -0.82711E-04  3450   0.157E-01    0.440E-02
DAV:   5    -0.145822287495E+03    0.11727E-03   -0.42373E-04  3620   0.120E-01    0.260E-02
DAV:   6    -0.145822256916E+03    0.30580E-04   -0.22736E-04  3410   0.838E-02    0.171E-02
DAV:   7    -0.145822226824E+03    0.30091E-04   -0.48509E-05  3460   0.526E-02    0.162E-02
DAV:   8    -0.145822207008E+03    0.19817E-04   -0.20256E-05  2600   0.358E-02    0.118E-02
DAV:   9    -0.145822180384E+03    0.26623E-04   -0.33187E-05  3160   0.526E-02    0.465E-03
DAV:  10    -0.145822172400E+03    0.79840E-05   -0.18677E-05  2530   0.298E-02
  27 F= -.14582217E+03 E0= -.14581985E+03  d E =-.474564E-02
       N       E                     dE             d eps       ncg     rms          rms(c)
DAV:   1    -0.145823395206E+03   -0.12148E-02   -0.16728E-01  3000   0.169E+00    0.640E-02
DAV:   2    -0.145823704590E+03   -0.30938E-03   -0.39894E-03  3450   0.244E-01    0.345E-02
DAV:   3    -0.145823677789E+03    0.26802E-04   -0.10323E-04  3510   0.436E-02    0.236E-02
DAV:   4    -0.145823665314E+03    0.12475E-04   -0.39773E-05  3160   0.321E-02    0.129E-02
DAV:   5    -0.145823657839E+03    0.74743E-05   -0.14761E-05  2250   0.279E-02    0.583E-03
DAV:   6    -0.145823655810E+03    0.20297E-05   -0.93065E-06  2140   0.207E-02
  28 F= -.14582366E+03 E0= -.14582136E+03  d E =-.148341E-02
       N       E                     dE             d eps       ncg     rms          rms(c)
DAV:   1    -0.145823890854E+03   -0.23301E-03   -0.15075E+00  2970   0.507E+00    0.201E-01
DAV:   2    -0.145826700219E+03   -0.28094E-02   -0.36499E-02  3450   0.739E-01    0.100E-01
DAV:   3    -0.145826476925E+03    0.22329E-03   -0.90559E-04  3520   0.125E-01    0.702E-02
DAV:   4    -0.145826360760E+03    0.11616E-03   -0.36400E-04  3470   0.925E-02    0.376E-02
DAV:   5    -0.145826299164E+03    0.61597E-04   -0.16494E-04  3520   0.845E-02    0.214E-02
DAV:   6    -0.145826287059E+03    0.12105E-04   -0.92101E-05  3360   0.544E-02    0.155E-02
DAV:   7    -0.145826275242E+03    0.11817E-04   -0.43741E-05  3260   0.441E-02    0.939E-03
DAV:   8    -0.145826271917E+03    0.33257E-05   -0.18192E-05  2400   0.238E-02
  29 F= -.14582627E+03 E0= -.14582407E+03  d E =-.409952E-02
       N       E                     dE             d eps       ncg     rms          rms(c)
DAV:   1    -0.145826015727E+03    0.25952E-03   -0.33488E-01  2960   0.239E+00    0.953E-02
DAV:   2    -0.145826627973E+03   -0.61225E-03   -0.80530E-03  3450   0.350E-01    0.460E-02
DAV:   3    -0.145826576821E+03    0.51152E-04   -0.21623E-04  3540   0.623E-02    0.327E-02
DAV:   4    -0.145826546586E+03    0.30235E-04   -0.72369E-05  3440   0.437E-02    0.182E-02
DAV:   5    -0.145826525592E+03    0.20994E-04   -0.40277E-05  3310   0.479E-02    0.107E-02
DAV:   6    -0.145826521098E+03    0.44947E-05   -0.26372E-05  2810   0.304E-02
  30 F= -.14582652E+03 E0= -.14582436E+03  d E =-.434870E-02
       N       E                     dE             d eps       ncg     rms          rms(c)
DAV:   1    -0.145828336087E+03   -0.18105E-02   -0.33909E-01  3120   0.241E+00    0.892E-02
DAV:   2    -0.145828940978E+03   -0.60489E-03   -0.78567E-03  3500   0.346E-01    0.493E-02
DAV:   3    -0.145828885655E+03    0.55323E-04   -0.15291E-04  3560   0.518E-02    0.350E-02
DAV:   4    -0.145828857241E+03    0.28414E-04   -0.12819E-04  3400   0.494E-02    0.163E-02
DAV:   5    -0.145828849777E+03    0.74634E-05   -0.33115E-05  3110   0.268E-02    0.119E-02
DAV:   6    -0.145828844769E+03    0.50083E-05   -0.13671E-05  2260   0.271E-02
  31 F= -.14582884E+03 E0= -.14582673E+03  d E =-.232367E-02
       N       E                     dE             d eps       ncg     rms          rms(c)
DAV:   1    -0.145827793667E+03    0.10561E-02   -0.23272E+00  3110   0.631E+00    0.235E-01
DAV:   2    -0.145831946424E+03   -0.41528E-02   -0.53879E-02  3480   0.905E-01    0.127E-01
DAV:   3    -0.145831585589E+03    0.36083E-03   -0.10261E-03  3550   0.136E-01    0.895E-02
DAV:   4    -0.145831402553E+03    0.18304E-03   -0.83230E-04  3550   0.128E-01    0.418E-02
DAV:   5    -0.145831357713E+03    0.44840E-04   -0.21887E-04  3570   0.698E-02    0.306E-02
DAV:   6    -0.145831328874E+03    0.28840E-04   -0.11893E-04  3690   0.687E-02    0.133E-02
DAV:   7    -0.145831317809E+03    0.11065E-04   -0.51036E-05  3150   0.380E-02    0.124E-02
DAV:   8    -0.145831305551E+03    0.12258E-04   -0.68726E-06  2100   0.205E-02    0.880E-03
DAV:   9    -0.145831270812E+03    0.34739E-04   -0.17572E-05  2580   0.576E-02    0.716E-03
DAV:  10    -0.145831246342E+03    0.24470E-04   -0.20845E-05  2840   0.569E-02    0.116E-02
DAV:  11    -0.145831200628E+03    0.45714E-04   -0.53098E-05  3840   0.139E-01    0.614E-03
DAV:  12    -0.145831190940E+03    0.96877E-05   -0.80957E-05  3620   0.980E-02
  32 F= -.14583119E+03 E0= -.14582920E+03  d E =-.466984E-02
       N       E                     dE             d eps       ncg     rms          rms(c)
DAV:   1    -0.145831416276E+03   -0.21565E-03   -0.13049E+00  3050   0.468E+00    0.151E-01
DAV:   2    -0.145833839749E+03   -0.24235E-02   -0.28100E-02  3450   0.642E-01    0.867E-02
DAV:   3    -0.145833615665E+03    0.22408E-03   -0.34950E-04  3580   0.104E-01    0.577E-02
DAV:   4    -0.145833433772E+03    0.18189E-03   -0.30761E-04  3550   0.112E-01    0.234E-02
DAV:   5    -0.145833386281E+03    0.47490E-04   -0.22194E-04  3490   0.862E-02    0.132E-02
DAV:   6    -0.145833363394E+03    0.22888E-04   -0.70310E-05  3360   0.511E-02    0.104E-02
DAV:   7    -0.145833341325E+03    0.22069E-04   -0.13388E-05  2420   0.327E-02    0.767E-03
DAV:   8    -0.145833320561E+03    0.20765E-04   -0.10235E-05  2410   0.367E-02    0.535E-03
DAV:   9    -0.145833300707E+03    0.19854E-04   -0.17085E-05  2700   0.475E-02    0.435E-03
DAV:  10    -0.145833287383E+03    0.13324E-04   -0.18941E-05  2630   0.473E-02    0.382E-03
DAV:  11    -0.145833274458E+03    0.12925E-04   -0.11875E-05  2490   0.607E-02    0.330E-03
DAV:  12    -0.145833273157E+03    0.13014E-05   -0.30361E-05  2990   0.308E-02
  33 F= -.14583327E+03 E0= -.14583134E+03  d E =-.208222E-02
       N       E                     dE             d eps       ncg     rms          rms(c)
DAV:   1    -0.145833275272E+03   -0.81419E-06   -0.11741E-01  3040   0.141E+00    0.459E-02
DAV:   2    -0.145833497035E+03   -0.22176E-03   -0.25583E-03  3440   0.193E-01    0.259E-02
DAV:   3    -0.145833476728E+03    0.20307E-04   -0.23281E-05  2800   0.280E-02    0.173E-02
DAV:   4    -0.145833458783E+03    0.17945E-04   -0.34491E-05  3120   0.392E-02    0.617E-03
DAV:   5    -0.145833454897E+03    0.38856E-05   -0.23055E-05  2540   0.251E-02    0.428E-03
DAV:   6    -0.145833452071E+03    0.28256E-05   -0.41403E-06  2010   0.122E-02
  34 F= -.14583345E+03 E0= -.14583153E+03  d E =-.226113E-02
       N       E                     dE             d eps       ncg     rms          rms(c)
DAV:   1    -0.145832556325E+03    0.89857E-03   -0.46711E-01  2990   0.281E+00    0.910E-02
DAV:   2    -0.145833418067E+03   -0.86174E-03   -0.10072E-02  3460   0.386E-01    0.516E-02
DAV:   3    -0.145833332043E+03    0.86023E-04   -0.12028E-04  3600   0.626E-02    0.344E-02
DAV:   4    -0.145833255778E+03    0.76265E-04   -0.11120E-04  3480   0.704E-02    0.144E-02
DAV:   5    -0.145833228541E+03    0.27237E-04   -0.81250E-05  3470   0.554E-02    0.769E-03
DAV:   6    -0.145833207083E+03    0.21459E-04   -0.25915E-05  2790   0.432E-02    0.675E-03
DAV:   7    -0.145833191337E+03    0.15746E-04   -0.11066E-05  2370   0.318E-02    0.608E-03
DAV:   8    -0.145833172463E+03    0.18874E-04   -0.97776E-06  2370   0.394E-02    0.359E-03
DAV:   9    -0.145833151680E+03    0.20783E-04   -0.11750E-05  2560   0.541E-02    0.445E-03
DAV:  10    -0.145833140373E+03    0.11307E-04   -0.23374E-05  3020   0.500E-02    0.383E-03
DAV:  11    -0.145833126881E+03    0.13492E-04   -0.54306E-06  2440   0.701E-02    0.288E-03
DAV:  12    -0.145833125521E+03    0.13597E-05   -0.31539E-05  3020   0.388E-02
  35 F= -.14583313E+03 E0= -.14583123E+03  d E =-.193458E-02
       N       E                     dE             d eps       ncg     rms          rms(c)
DAV:   1    -0.145833054881E+03    0.72000E-04   -0.27113E-01  3070   0.214E+00    0.699E-02
DAV:   2    -0.145833549184E+03   -0.49430E-03   -0.57976E-03  3460   0.295E-01    0.394E-02
DAV:   3    -0.145833500392E+03    0.48792E-04   -0.78274E-05  3570   0.498E-02    0.263E-02
DAV:   4    -0.145833459960E+03    0.40432E-04   -0.63035E-05  3380   0.520E-02    0.109E-02
DAV:   5    -0.145833448552E+03    0.11408E-04   -0.46956E-05  3380   0.420E-02    0.643E-03
DAV:   6    -0.145833444036E+03    0.45159E-05   -0.17183E-05  2360   0.259E-02
  36 F= -.14583344E+03 E0= -.14583153E+03  d E =-.225310E-02
       N       E                     dE             d eps       ncg     rms          rms(c)
DAV:   1    -0.145833823969E+03   -0.37542E-03   -0.75276E-01  2950   0.360E+00    0.121E-01
DAV:   2    -0.145835266216E+03   -0.14422E-02   -0.16996E-02  3470   0.505E-01    0.683E-02
DAV:   3    -0.145835152878E+03    0.11334E-03   -0.19940E-04  3570   0.708E-02    0.470E-02
DAV:   4    -0.145835076492E+03    0.76387E-04   -0.23738E-04  3500   0.822E-02    0.178E-02
DAV:   5    -0.145835071387E+03    0.51041E-05   -0.94494E-05  3460   0.460E-02    0.147E-02
DAV:   6    -0.145835067483E+03    0.39045E-05   -0.24696E-05  2530   0.256E-02
  37 F= -.14583507E+03 E0= -.14583318E+03  d E =-.162345E-02
       N       E                     dE             d eps       ncg     rms          rms(c)
DAV:   1    -0.145834445634E+03    0.62575E-03   -0.58953E-01  2950   0.319E+00    0.108E-01
DAV:   2    -0.145835575156E+03   -0.11295E-02   -0.13311E-02  3470   0.448E-01    0.607E-02
DAV:   3    -0.145835486540E+03    0.88616E-04   -0.16771E-04  3580   0.658E-02    0.416E-02
DAV:   4    -0.145835427458E+03    0.59082E-04   -0.17105E-04  3480   0.692E-02    0.166E-02
DAV:   5    -0.145835420719E+03    0.67384E-05   -0.67395E-05  3410   0.424E-02    0.123E-02
DAV:   6    -0.145835417223E+03    0.34960E-05   -0.26518E-05  2660   0.293E-02
  38 F= -.14583542E+03 E0= -.14583354E+03  d E =-.197319E-02
       N       E                     dE             d eps       ncg     rms          rms(c)
DAV:   1    -0.145836192339E+03   -0.77162E-03   -0.25044E-01  2960   0.208E+00    0.143E-01
DAV:   2    -0.145836318970E+03   -0.12663E-03   -0.67588E-03  3510   0.323E-01    0.508E-02
DAV:   3    -0.145836252535E+03    0.66436E-04   -0.27056E-04  3550   0.754E-02    0.293E-02
DAV:   4    -0.145836223701E+03    0.28834E-04   -0.10722E-04  3460   0.459E-02    0.139E-02
DAV:   5    -0.145836212322E+03    0.11380E-04   -0.12040E-05  2340   0.273E-02    0.862E-03
DAV:   6    -0.145836200568E+03    0.11753E-04   -0.21193E-05  2800   0.382E-02    0.474E-03
DAV:   7    -0.145836197465E+03    0.31035E-05   -0.15006E-05  2290   0.174E-02
  39 F= -.14583620E+03 E0= -.14583433E+03  d E =-.780242E-03
       N       E                     dE             d eps       ncg     rms          rms(c)
DAV:   1    -0.145836208555E+03   -0.79862E-05   -0.92747E-03  3150   0.401E-01    0.275E-02
DAV:   2    -0.145836209207E+03   -0.65227E-06   -0.24779E-04  3510   0.650E-02    0.982E-03
DAV:   3    -0.145836201773E+03    0.74335E-05   -0.15275E-05  2220   0.222E-02    0.590E-03
DAV:   4    -0.145836194877E+03    0.68968E-05   -0.33572E-06  2130   0.161E-02    0.354E-03
DAV:   5    -0.145836184803E+03    0.10074E-04   -0.21620E-06  2220   0.270E-02    0.276E-03
DAV:   6    -0.145836165820E+03    0.18983E-04   -0.72269E-06  2480   0.618E-02    0.317E-03
DAV:   7    -0.145836149297E+03    0.16523E-04   -0.26073E-05  3120   0.829E-02    0.390E-03
DAV:   8    -0.145836143113E+03    0.61844E-05   -0.25463E-05  3010   0.657E-02
  40 F= -.14583614E+03 E0= -.14583427E+03  d E =-.725889E-03
       N       E                     dE             d eps       ncg     rms          rms(c)
DAV:   1    -0.145836174614E+03   -0.25317E-04   -0.22361E-01  3040   0.196E+00    0.665E-02
DAV:   2    -0.145836596238E+03   -0.42162E-03   -0.52204E-03  3460   0.279E-01    0.395E-02
DAV:   3    -0.145836554323E+03    0.41915E-04   -0.70164E-05  3550   0.444E-02    0.275E-02
DAV:   4    -0.145836518828E+03    0.35495E-04   -0.77876E-05  3340   0.508E-02    0.111E-02
DAV:   5    -0.145836511987E+03    0.68414E-05   -0.36134E-05  3210   0.342E-02    0.854E-03
DAV:   6    -0.145836509602E+03    0.23848E-05   -0.15128E-05  2030   0.199E-02
  41 F= -.14583651E+03 E0= -.14583464E+03  d E =-.366489E-03
       N       E                     dE             d eps       ncg     rms          rms(c)
DAV:   1    -0.145836497083E+03    0.14904E-04   -0.66782E-03  3100   0.340E-01    0.119E-02
DAV:   2    -0.145836506925E+03   -0.98423E-05   -0.16467E-04  3500   0.532E-02    0.817E-03
DAV:   3    -0.145836503995E+03    0.29297E-05   -0.59288E-06  2060   0.134E-02    0.609E-03
DAV:   4    -0.145836500839E+03    0.31568E-05   -0.21933E-06  2120   0.108E-02    0.341E-03
DAV:   5    -0.145836497365E+03    0.34736E-05   -0.31050E-06  2240   0.176E-02    0.224E-03
DAV:   6    -0.145836496552E+03    0.81282E-06   -0.34729E-06  1920   0.106E-02
  42 F= -.14583650E+03 E0= -.14583463E+03  d E =-.353440E-03
       N       E                     dE             d eps       ncg     rms          rms(c)
DAV:   1    -0.145836573525E+03   -0.76160E-04   -0.13816E-01  3010   0.151E+00    0.718E-02
DAV:   2    -0.145836784979E+03   -0.21145E-03   -0.33445E-03  3530   0.225E-01    0.324E-02
DAV:   3    -0.145836754084E+03    0.30895E-04   -0.70086E-05  3520   0.456E-02    0.202E-02
DAV:   4    -0.145836729090E+03    0.24994E-04   -0.42649E-05  3220   0.452E-02    0.889E-03
DAV:   5    -0.145836717860E+03    0.11230E-04   -0.24670E-05  2660   0.360E-02    0.645E-03
DAV:   6    -0.145836713939E+03    0.39202E-05   -0.14914E-05  2100   0.208E-02
  43 F= -.14583671E+03 E0= -.14583484E+03  d E =-.217387E-03
       N       E                     dE             d eps       ncg     rms          rms(c)
DAV:   1    -0.145836703225E+03    0.14634E-04   -0.12257E-03  3270   0.146E-01    0.735E-03
DAV:   2    -0.145836699104E+03    0.41214E-05   -0.32200E-05  3000   0.317E-02    0.495E-03
DAV:   3    -0.145836694892E+03    0.42119E-05   -0.57937E-06  2010   0.172E-02    0.409E-03
DAV:   4    -0.145836688749E+03    0.61430E-05   -0.73266E-07  2080   0.163E-02    0.308E-03
DAV:   5    -0.145836665499E+03    0.23250E-04   -0.10099E-05  2460   0.712E-02    0.560E-03
DAV:   6    -0.145836665457E+03    0.42419E-07   -0.15452E-05  2380   0.130E-02
  44 F= -.14583667E+03 E0= -.14583479E+03  d E =-.168904E-03
       N       E                     dE             d eps       ncg     rms          rms(c)
DAV:   1    -0.145836669087E+03   -0.35878E-05   -0.58808E-04  3180   0.982E-02    0.679E-03
DAV:   2    -0.145836667474E+03    0.16130E-05   -0.12791E-05  2210   0.166E-02    0.285E-03
DAV:   3    -0.145836665346E+03    0.21279E-05   -0.21671E-06  1980   0.110E-02    0.190E-03
DAV:   4    -0.145836663721E+03    0.16248E-05   -0.89111E-07  2060   0.930E-03    0.175E-03
DAV:   5    -0.145836660445E+03    0.32758E-05   -0.78828E-07  2100   0.173E-02    0.141E-03
DAV:   6    -0.145836652338E+03    0.81074E-05   -0.30737E-06  2320   0.497E-02
  45 F= -.14583665E+03 E0= -.14583478E+03  d E =-.155786E-03
       N       E                     dE             d eps       ncg     rms          rms(c)
DAV:   1    -0.145836708326E+03   -0.47880E-04   -0.74986E-02  2980   0.110E+00    0.396E-02
DAV:   2    -0.145836837113E+03   -0.12879E-03   -0.15801E-03  3480   0.152E-01    0.232E-02
DAV:   3    -0.145836825361E+03    0.11752E-04   -0.19860E-05  2550   0.235E-02    0.161E-02
DAV:   4    -0.145836816406E+03    0.89557E-05   -0.40389E-05  3250   0.353E-02    0.670E-03
DAV:   5    -0.145836815805E+03    0.60058E-06   -0.14918E-05  2020   0.181E-02    0.717E-03
DAV:   6    -0.145836815246E+03    0.55897E-06   -0.31767E-06  1860   0.772E-03
  46 F= -.14583682E+03 E0= -.14583495E+03  d E =-.162908E-03
       N       E                     dE             d eps       ncg     rms          rms(c)
DAV:   1    -0.145836809447E+03    0.63578E-05   -0.13366E-02  2990   0.462E-01    0.189E-02
DAV:   2    -0.145836832339E+03   -0.22892E-04   -0.30256E-04  3480   0.683E-02    0.979E-03
DAV:   3    -0.145836829865E+03    0.24736E-05   -0.62843E-06  2090   0.144E-02    0.709E-03
DAV:   4    -0.145836827119E+03    0.27460E-05   -0.60929E-06  2150   0.174E-02    0.298E-03
DAV:   5    -0.145836826391E+03    0.72836E-06   -0.45434E-06  2000   0.133E-02    0.394E-03
DAV:   6    -0.145836826152E+03    0.23826E-06   -0.19294E-06  1850   0.610E-03
  47 F= -.14583683E+03 E0= -.14583496E+03  d E =-.173814E-03
       N       E                     dE             d eps       ncg     rms          rms(c)
DAV:   1    -0.145837022864E+03   -0.19647E-03   -0.25910E-02  2980   0.665E-01    0.451E-02
DAV:   2    -0.145837032470E+03   -0.96056E-05   -0.75970E-04  3520   0.122E-01    0.192E-02
DAV:   3    -0.145837014785E+03    0.17685E-04   -0.57529E-05  3380   0.436E-02    0.129E-02
DAV:   4    -0.145836996004E+03    0.18781E-04   -0.14122E-05  2270   0.337E-02    0.650E-03
DAV:   5    -0.145836981007E+03    0.14997E-04   -0.89925E-06  2360   0.379E-02    0.510E-03
DAV:   6    -0.145836967620E+03    0.13387E-04   -0.10384E-05  2540   0.443E-02    0.355E-03
DAV:   7    -0.145836950399E+03    0.17221E-04   -0.62833E-06  2370   0.610E-02    0.385E-03
DAV:   8    -0.145836932583E+03    0.17815E-04   -0.18447E-05  2860   0.754E-02    0.296E-03
DAV:   9    -0.145836916319E+03    0.16264E-04   -0.24303E-05  2970   0.101E-01    0.542E-03
DAV:  10    -0.145836916699E+03   -0.37950E-06   -0.57626E-05  3080   0.469E-02
  48 F= -.14583692E+03 E0= -.14583506E+03  d E =-.905462E-04
       N       E                     dE             d eps       ncg     rms          rms(c)
DAV:   1    -0.145836965946E+03   -0.49627E-04   -0.29833E-03  3200   0.226E-01    0.155E-02
DAV:   2    -0.145836962103E+03    0.38435E-05   -0.83996E-05  3380   0.467E-02    0.723E-03
DAV:   3    -0.145836958928E+03    0.31751E-05   -0.14603E-05  2180   0.232E-02    0.513E-03
DAV:   4    -0.145836956130E+03    0.27974E-05   -0.30808E-06  2070   0.123E-02    0.313E-03
DAV:   5    -0.145836951613E+03    0.45175E-05   -0.26442E-06  2250   0.220E-02    0.190E-03
DAV:   6    -0.145836949550E+03    0.20624E-05   -0.51746E-06  2230   0.203E-02
  49 F= -.14583695E+03 E0= -.14583509E+03  d E =-.123398E-03
