 vasp.5.4.4.18Apr17-6-g9f103f2a35 (build Nov 15 2019 10:10:58) complex          
  
 executed on             LinuxIFC date 2024.07.27  14:33:20
 running on   20 total cores
 distrk:  each k-point on   20 cores,    1 groups
 distr:  one band on NCORES_PER_BAND=   4 cores,    5 groups


--------------------------------------------------------------------------------------------------------


 INCAR:
 POTCAR:    PAW_PBE O 08Apr2002                   
 POTCAR:    PAW_PBE Mg 13Apr2007                  
 POTCAR:    PAW_PBE Al 04Jan2001                  
 POTCAR:    PAW_PBE O 08Apr2002                   
   VRHFIN =O: s2p4                                                              
   LEXCH  = PE                                                                  
   EATOM  =   432.3788 eV,   31.7789 Ry                                         
                                                                                
   TITEL  = PAW_PBE O 08Apr2002                                                 
   LULTRA =        F    use ultrasoft PP ?                                      
   IUNSCR =        1    unscreen: 0-lin 1-nonlin 2-no                           
   RPACOR =    1.200    partial core radius                                     
   POMASS =   16.000; ZVAL   =    6.000    mass and valenz                      
   RCORE  =    1.520    outmost cutoff radius                                   
   RWIGS  =    1.550; RWIGS  =    0.820    wigner-seitz radius (au A)           
   ENMAX  =  400.000; ENMIN  =  300.000 eV                                      
   ICORE  =        2    local potential                                         
   LCOR   =        T    correct aug charges                                     
   LPAW   =        T    paw PP                                                  
   EAUG   =  605.392                                                            
   DEXC   =    0.000                                                            
   RMAX   =    1.553    core radius for proj-oper                               
   RAUG   =    1.300    factor for augmentation sphere                          
   RDEP   =    1.550    radius for radial grids                                 
   RDEPT  =    1.329    core radius for aug-charge                              
                                                                                
   Atomic configuration                                                         
    4 entries                                                                   
     n  l   j            E        occ.                                          
     1  0  0.50      -514.6923   2.0000                                         
     2  0  0.50       -23.9615   2.0000                                         
     2  1  0.50        -9.0305   4.0000                                         
     3  2  1.50        -9.5241   0.0000                                         
   Description                                                                  
     l       E           TYP  RCUT    TYP  RCUT                                 
     0    -23.9615318     23  1.200                                             
     0     -9.5240782     23  1.200                                             
     1     -9.0304911     23  1.520                                             
     1      8.1634956     23  1.520                                             
     2     -9.5240782      7  1.500                                             
  local pseudopotential read in
  partial core-charges read in
  partial kinetic energy density read in
  kinetic energy density of atom read in
  atomic valenz-charges read in
  non local Contribution for L=           0  read in
    real space projection operators read in
  non local Contribution for L=           0  read in
    real space projection operators read in
  non local Contribution for L=           1  read in
    real space projection operators read in
  non local Contribution for L=           1  read in
    real space projection operators read in
    PAW grid and wavefunctions read in
 
   number of l-projection  operators is LMAX  =           4
   number of lm-projection operators is LMMAX =           8
 
 POTCAR:    PAW_PBE Mg 13Apr2007                  
   VRHFIN =Mg: s2p0                                                             
   LEXCH  = PE                                                                  
   EATOM  =    23.0369 eV,    1.6932 Ry                                         
                                                                                
   TITEL  = PAW_PBE Mg 13Apr2007                                                
   LULTRA =        F    use ultrasoft PP ?                                      
   IUNSCR =        1    unscreen: 0-lin 1-nonlin 2-no                           
   RPACOR =    1.500    partial core radius                                     
   POMASS =   24.305; ZVAL   =    2.000    mass and valenz                      
   RCORE  =    2.000    outmost cutoff radius                                   
   RWIGS  =    2.880; RWIGS  =    1.524    wigner-seitz radius (au A)           
   ENMAX  =  200.000; ENMIN  =  100.000 eV                                      
   RCLOC  =    1.506    cutoff for local pot                                    
   LCOR   =        T    correct aug charges                                     
   LPAW   =        T    paw PP                                                  
   EAUG   =  454.734                                                            
   DEXC   =    0.000                                                            
   RMAX   =    2.045    core radius for proj-oper                               
   RAUG   =    1.300    factor for augmentation sphere                          
   RDEP   =    2.025    radius for radial grids                                 
   RDEPT  =    1.942    core radius for aug-charge                              
                                                                                
   Atomic configuration                                                         
    6 entries                                                                   
     n  l   j            E        occ.                                          
     1  0  0.50     -1259.6230   2.0000                                         
     2  0  0.50       -79.8442   2.0000                                         
     2  1  1.50       -46.6121   6.0000                                         
     3  0  0.50        -4.7055   2.0000                                         
     3  1  0.50        -1.3660   0.0000                                         
     3  2  1.50        -1.3606   0.0000                                         
   Description                                                                  
     l       E           TYP  RCUT    TYP  RCUT                                 
     0     -4.7054661     23  2.000                                             
     0     27.2116520     23  2.000                                             
     1      1.3605826     23  2.000                                             
     1     27.2116520     23  2.000                                             
     2     -1.3605826     23  2.000                                             
  local pseudopotential read in
  partial core-charges read in
  partial kinetic energy density read in
  atomic valenz-charges read in
  non local Contribution for L=           0  read in
    real space projection operators read in
  non local Contribution for L=           0  read in
    real space projection operators read in
  non local Contribution for L=           1  read in
    real space projection operators read in
  non local Contribution for L=           1  read in
    real space projection operators read in
  non local Contribution for L=           2  read in
    real space projection operators read in
    PAW grid and wavefunctions read in
 
   number of l-projection  operators is LMAX  =           5
   number of lm-projection operators is LMMAX =          13
 
 POTCAR:    PAW_PBE Al 04Jan2001                  
   VRHFIN =Al: s2p1                                                             
   LEXCH  = PE                                                                  
   EATOM  =    53.5387 eV,    3.9350 Ry                                         
                                                                                
   TITEL  = PAW_PBE Al 04Jan2001                                                
   LULTRA =        F    use ultrasoft PP ?                                      
   IUNSCR =        1    unscreen: 0-lin 1-nonlin 2-no                           
   RPACOR =    1.500    partial core radius                                     
   POMASS =   26.981; ZVAL   =    3.000    mass and valenz                      
   RCORE  =    1.900    outmost cutoff radius                                   
   RWIGS  =    2.650; RWIGS  =    1.402    wigner-seitz radius (au A)           
   ENMAX  =  240.300; ENMIN  =  180.225 eV                                      
   ICORE  =        2    local potential                                         
   LCOR   =        T    correct aug charges                                     
   LPAW   =        T    paw PP                                                  
   EAUG   =  291.052                                                            
   DEXC   =    0.000                                                            
   RMAX   =    1.939    core radius for proj-oper                               
   RAUG   =    1.300    factor for augmentation sphere                          
   RDEP   =    1.966    radius for radial grids                                 
   RDEPT  =    1.856    core radius for aug-charge                              
                                                                                
   Atomic configuration                                                         
    6 entries                                                                   
     n  l   j            E        occ.                                          
     1  0  0.50     -1511.1048   2.0000                                         
     2  0  0.50      -108.1629   2.0000                                         
     2  1  1.50       -69.6402   6.0000                                         
     3  0  0.50        -7.7528   2.0000                                         
     3  1  1.50        -2.7121   1.0000                                         
     3  2  2.50        -2.7212   0.0000                                         
   Description                                                                  
     l       E           TYP  RCUT    TYP  RCUT                                 
     0     -7.7528455     23  1.900                                             
     0     -3.3096929     23  1.900                                             
     1     -2.7120682     23  1.900                                             
     1     13.6058260     23  1.900                                             
     2     -2.7211652      7  1.900                                             
  local pseudopotential read in
  partial core-charges read in
  partial kinetic energy density read in
  atomic valenz-charges read in
  non local Contribution for L=           0  read in
    real space projection operators read in
  non local Contribution for L=           0  read in
    real space projection operators read in
  non local Contribution for L=           1  read in
    real space projection operators read in
  non local Contribution for L=           1  read in
    real space projection operators read in
    PAW grid and wavefunctions read in
 
   number of l-projection  operators is LMAX  =           4
   number of lm-projection operators is LMMAX =           8
 

 ----------------------------------------------------------------------------- 
|                                                                             |
|  ADVICE TO THIS USER RUNNING 'VASP/VAMP'   (HEAR YOUR MASTER'S VOICE ...):  |
|                                                                             |
|      You have a (more or less) 'large supercell' and for larger cells       |
|      it might be more efficient to use real space projection opertators     |
|      So try LREAL= Auto  in the INCAR   file.                               |
|      Mind:          For very  accurate calculation you might also keep the  |
|      reciprocal projection scheme          (i.e. LREAL=.FALSE.)             |
|                                                                             |
 ----------------------------------------------------------------------------- 

  PAW_PBE O 08Apr2002                   :
 energy of atom  1       EATOM= -432.3788
 kinetic energy error for atom=    0.0208 (will be added to EATOM!!)
  PAW_PBE Mg 13Apr2007                  :
 energy of atom  2       EATOM=  -23.0369
 kinetic energy error for atom=    0.0000 (will be added to EATOM!!)
  PAW_PBE Al 04Jan2001                  :
 energy of atom  3       EATOM=  -53.5387
 kinetic energy error for atom=    0.0002 (will be added to EATOM!!)
 
 
 POSCAR: Layer                                   
  positions in direct lattice
  No initial velocities read in
 exchange correlation table for  LEXCH =        8
   RHO(1)=    0.500       N(1)  =     2000
   RHO(2)=  100.500       N(2)  =     4000

 VTST: version 3.2, (02/03/18)

 CHAIN: initializing optimizer
 
 OPT: Using VASP Conjugate-Gradient optimizer
 CHAIN: Read ICHAIN            0
 
 POSCAR: Layer                                   
  positions in direct lattice
  No initial velocities read in
 


--------------------------------------------------------------------------------------------------------


 ion  position               nearest neighbor table
   1  0.000  0.000  0.271-  14 2.13  18 2.13  18 2.13  14 2.13  14 2.13  18 2.13
   2  0.333  0.667  0.327-  11 2.13  14 2.13  14 2.13  11 2.13  11 2.13  14 2.13
   3  0.000  0.000  0.440-  19 2.13  19 2.13  19 2.13  15 2.13  15 2.13  15 2.13
   4  0.333  0.667  0.496-  12 2.13  15 2.13  15 2.13  12 2.13  12 2.13  15 2.13
   5  0.000  0.000  0.608-  16 2.13  20 2.13  20 2.13  16 2.13  16 2.13  20 2.13
   6  0.333  0.667  0.665-  16 2.13  16 2.13  16 2.13  13 2.13  13 2.13  13 2.13
   7  0.000  0.000  0.777-  17 2.13  21 2.13  21 2.13  17 2.13  17 2.13  21 2.13
   8  0.667  0.333  0.383-  11 2.13  19 2.13  19 2.13  11 2.13  11 2.13  19 2.13
   9  0.667  0.333  0.552-  12 2.13  20 2.13  20 2.13  12 2.13  12 2.13  20 2.13
  10  0.667  0.333  0.721-  13 2.13  21 2.13  21 2.13  13 2.13  13 2.13  21 2.13
  11  0.000  0.000  0.355-   2 2.13   8 2.13   2 2.13   8 2.13   8 2.13   2 2.13  14 3.12  19 3.12
                            14 3.12  19 3.12  14 3.12  19 3.12
  12  0.000  0.000  0.524-   4 2.13   9 2.13   4 2.13   9 2.13   9 2.13   4 2.13  15 3.12  20 3.12
                            15 3.12  20 3.12  15 3.12  20 3.12
  13  0.000  0.000  0.693-  10 2.13  10 2.13  10 2.13   6 2.13   6 2.13   6 2.13  21 3.12  21 3.12
                            21 3.12  16 3.12  16 3.12  16 3.12
  14  0.667  0.333  0.299-   1 2.13   2 2.13   2 2.13   1 2.13   1 2.13   2 2.13  11 3.12  18 3.12
                            18 3.12  11 3.12  11 3.12  18 3.12
  15  0.667  0.333  0.468-   4 2.13   4 2.13   4 2.13   3 2.13   3 2.13   3 2.13  12 3.12  12 3.12
                            12 3.12  19 3.12  19 3.12  19 3.12
  16  0.667  0.333  0.637-   5 2.13   6 2.13   6 2.13   5 2.13   5 2.13   6 2.13  20 3.12  20 3.12
                            20 3.12  13 3.12  13 3.12  13 3.12
  17  0.667  0.333  0.805-   7 2.13   7 2.13   7 2.13  21 3.12  21 3.12  21 3.12
  18  0.333  0.667  0.243-   1 2.13   1 2.13   1 2.13  14 3.12  14 3.12  14 3.12
  19  0.333  0.667  0.412-   3 2.13   8 2.13   8 2.13   3 2.13   3 2.13   8 2.13  11 3.12  11 3.12
                            11 3.12  15 3.12  15 3.12  15 3.12
  20  0.333  0.667  0.580-   5 2.13   9 2.13   9 2.13   5 2.13   5 2.13   9 2.13  12 3.12  16 3.12
                            16 3.12  12 3.12  12 3.12  16 3.12
  21  0.333  0.667  0.749-   7 2.13  10 2.13  10 2.13   7 2.13   7 2.13  10 2.13  13 3.12  17 3.12
                            17 3.12  13 3.12  13 3.12  17 3.12
  22  0.000  0.000  0.031-  25 2.81  25 2.81  25 2.81  27 3.32  27 3.32  27 3.32
  23  0.000  0.000  0.175-  24 2.81  24 2.81  24 2.81
  24  0.667  0.333  0.127-  23 2.81  23 2.81  23 2.81  25 2.81  25 2.81  25 2.81
  25  0.333  0.667  0.079-  22 2.81  22 2.81  22 2.81  24 2.81  24 2.81  24 2.81
  26  0.000  0.000  0.873-  28 2.81  28 2.81  28 2.81
  27  0.667  0.333  0.969-  28 2.81  28 2.81  28 2.81  22 3.32  22 3.32  22 3.32
  28  0.333  0.667  0.921-  27 2.81  27 2.81  27 2.81  26 2.81  26 2.81  26 2.81
 
  LATTYP: Found a hexagonal cell.
 ALAT       =     2.9035266265
 C/A-ratio  =    16.0809870223
  
  Lattice vectors:
  
 A1 = (   2.5145280000,  -1.4517630000,   0.0000000000)
 A2 = (   0.0000000000,   2.9035260000,   0.0000000000)
 A3 = (   0.0000000000,   0.0000000000,  46.6915740000)


Analysis of symmetry for initial positions (statically):
=====================================================================
 Subroutine PRICEL returns:
 Original cell was already a primitive cell.
 

 Routine SETGRP: Setting up the symmetry group for a 
 hexagonal supercell.


 Subroutine GETGRP returns: Found  6 space group operations
 (whereof  6 operations were pure point group operations)
 out of a pool of 24 trial point group operations.


The static configuration has the point symmetry C_3v.


Analysis of symmetry for dynamics (positions and initial velocities):
=====================================================================
 Subroutine PRICEL returns:
 Original cell was already a primitive cell.
 

 Routine SETGRP: Setting up the symmetry group for a 
 hexagonal supercell.


 Subroutine GETGRP returns: Found  6 space group operations
 (whereof  6 operations were pure point group operations)
 out of a pool of 24 trial point group operations.


The dynamic configuration has the point symmetry C_3v.


Analysis of constrained symmetry for selective dynamics:
=====================================================================
 Subroutine PRICEL returns:
 Original cell was already a primitive cell.
 

 Routine SETGRP: Setting up the symmetry group for a 
 hexagonal supercell.


 Subroutine GETGRP returns: Found  6 space group operations
 (whereof  6 operations were pure point group operations)
 out of a pool of 24 trial point group operations.


The constrained configuration has the point symmetry C_3v.


 Subroutine INISYM returns: Found  6 space group operations
 (whereof  6 operations are pure point group operations),
 and found     1 'primitive' translations

 
 
 KPOINTS: K-Spacing Value to Generate K-Mesh: 0.02

Automatic generation of k-mesh.
Space group operators:
 irot       det(A)        alpha          n_x          n_y          n_z        tau_x        tau_y        tau_z
    1     1.000000     0.000001     1.000000     0.000000     0.000000     0.000000     0.000000     0.000000
    2     1.000000   120.000000     0.000000     0.000000    -1.000000     0.000000     0.000000     0.000000
    3     1.000000   120.000000     0.000000     0.000000     1.000000     0.000000     0.000000     0.000000
    4    -1.000000   180.000000     0.866025    -0.500000     0.000000     0.000000     0.000000     0.000000
    5    -1.000000   180.000000     0.000000     1.000000     0.000000     0.000000     0.000000     0.000000
    6    -1.000000   180.000000     0.866025     0.500000     0.000000     0.000000     0.000000     0.000000
 
 Subroutine IBZKPT returns following result:
 ===========================================
 
 Found     21 irreducible k-points:
 
 Following reciprocal coordinates:
            Coordinates               Weight
  0.000000  0.000000  0.000000      1.000000
  0.076923  0.000000  0.000000      6.000000
  0.153846  0.000000  0.000000      6.000000
  0.230769  0.000000  0.000000      6.000000
  0.307692  0.000000  0.000000      6.000000
  0.384615  0.000000  0.000000      6.000000
  0.461538  0.000000  0.000000      6.000000
  0.076923  0.076923  0.000000      6.000000
  0.153846  0.076923  0.000000     12.000000
  0.230769  0.076923  0.000000     12.000000
  0.307692  0.076923  0.000000     12.000000
  0.384615  0.076923  0.000000     12.000000
  0.461538  0.076923  0.000000      6.000000
  0.153846  0.153846  0.000000      6.000000
  0.230769  0.153846  0.000000     12.000000
  0.307692  0.153846  0.000000     12.000000
  0.384615  0.153846  0.000000     12.000000
  0.230769  0.230769  0.000000      6.000000
  0.307692  0.230769  0.000000     12.000000
  0.384615  0.230769  0.000000      6.000000
  0.307692  0.307692  0.000000      6.000000
 
 Following cartesian coordinates:
            Coordinates               Weight
  0.000000  0.000000  0.000000      1.000000
  0.030591  0.000000  0.000000      6.000000
  0.061183  0.000000  0.000000      6.000000
  0.091774  0.000000  0.000000      6.000000
  0.122366  0.000000  0.000000      6.000000
  0.152957  0.000000  0.000000      6.000000
  0.183549  0.000000  0.000000      6.000000
  0.045887  0.026493  0.000000      6.000000
  0.076479  0.026493  0.000000     12.000000
  0.107070  0.026493  0.000000     12.000000
  0.137662  0.026493  0.000000     12.000000
  0.168253  0.026493  0.000000     12.000000
  0.198844  0.026493  0.000000      6.000000
  0.091774  0.052986  0.000000      6.000000
  0.122366  0.052986  0.000000     12.000000
  0.152957  0.052986  0.000000     12.000000
  0.183549  0.052986  0.000000     12.000000
  0.137662  0.079479  0.000000      6.000000
  0.168253  0.079479  0.000000     12.000000
  0.198844  0.079479  0.000000      6.000000
  0.183549  0.105972  0.000000      6.000000
 


--------------------------------------------------------------------------------------------------------




 Dimension of arrays:
   k-points           NKPTS =     21   k-points in BZ     NKDIM =     21   number of bands    NBANDS=     70
   number of dos      NEDOS =    301   number of ions     NIONS =     28
   non local maximal  LDIM  =      5   non local SUM 2l+1 LMDIM =     13
   total plane-waves  NPLWV = 201600
   max r-space proj   IRMAX =      1   max aug-charges    IRDMAX= 201151
   dimension x,y,z NGX =    24 NGY =   24 NGZ =  350
   dimension x,y,z NGXF=    48 NGYF=   48 NGZF=  700
   support grid    NGXF=    96 NGYF=   96 NGZF= 1400
   ions per type =              10  11   7
   NGX,Y,Z   is equivalent  to a cutoff of  13.74, 13.74, 12.46 a.u.
   NGXF,Y,Z  is equivalent  to a cutoff of  27.48, 27.48, 24.92 a.u.

 SYSTEM =  unknown system                          
 POSCAR =  Layer                                   

 Startparameter for this run:
   NWRITE =      2    write-flag & timer
   PREC   = accura    normal or accurate (medium, high low for compatibility)
   ISTART =      0    job   : 0-new  1-cont  2-samecut
   ICHARG =      2    charge: 1-file 2-atom 10-const
   ISPIN  =      1    spin polarized calculation?
   LNONCOLLINEAR =      F non collinear calculations
   LSORBIT =      F    spin-orbit coupling
   INIWAV =      1    electr: 0-lowe 1-rand  2-diag
   LASPH  =      F    aspherical Exc in radial PAW
   METAGGA=      F    non-selfconsistent MetaGGA calc.

 Electronic Relaxation 1
   ENCUT  =  520.0 eV  38.22 Ry    6.18 a.u.   5.40  5.40 86.82*2*pi/ulx,y,z
   ENINI  =  520.0     initial cutoff
   ENAUG  =  605.4 eV  augmentation charge cutoff
   NELM   =    100;   NELMIN=  6; NELMDL=  0     # of ELM steps 
   EDIFF  = 0.1E-04   stopping-criterion for ELM
   LREAL  =      F    real-space projection
   NLSPLINE    = F    spline interpolate recip. space projectors
   LCOMPAT=      F    compatible to vasp.4.4
   GGA_COMPAT  = T    GGA compatible to vasp.4.4-vasp.4.6
   LMAXPAW     = -100 max onsite density
   LMAXMIX     =    2 max onsite mixed and CHGCAR
   VOSKOWN=      0    Vosko Wilk Nusair interpolation
   ROPT   =    0.00000   0.00000   0.00000
 Ionic relaxation
   EDIFFG = -.2E-01   stopping-criterion for IOM
   NSW    =    500    number of steps for IOM
   NBLOCK =      1;   KBLOCK =    500    inner block; outer block 
   IBRION =      2    ionic relax: 0-MD 1-quasi-New 2-CG
   NFREE  =      1    steps in history (QN), initial steepest desc. (CG)
   ISIF   =      3    stress and relaxation
   IWAVPR =     11    prediction:  0-non 1-charg 2-wave 3-comb
   ISYM   =      2    0-nonsym 1-usesym 2-fastsym
   LCORR  =      T    Harris-Foulkes like correction to forces

   POTIM  = 0.5000    time-step for ionic-motion
   TEIN   =    0.0    initial temperature
   TEBEG  =    0.0;   TEEND  =   0.0 temperature during run
   SMASS  =  -3.00    Nose mass-parameter (am)
   estimated Nose-frequenzy (Omega)   =  0.10E-29 period in steps =****** mass=  -0.193E-27a.u.
   SCALEE = 1.0000    scale energy and forces
   NPACO  =    256;   APACO  = 16.0  distance and # of slots for P.C.
   PSTRESS=    0.0 pullay stress

  Mass of Ions in am
   POMASS =  16.00 24.30 26.98
  Ionic Valenz
   ZVAL   =   6.00  2.00  3.00
  Atomic Wigner-Seitz radii
   RWIGS  =  -1.00 -1.00 -1.00
  virtual crystal weights 
   VCA    =   1.00  1.00  1.00
   NELECT =     103.0000    total number of electrons
   NUPDOWN=      -1.0000    fix difference up-down

 DOS related values:
   EMIN   =  10.00;   EMAX   =-10.00  energy-range for DOS
   EFERMI =   0.00
   ISMEAR =     0;   SIGMA  =   0.05  broadening in eV -4-tet -1-fermi 0-gaus

 Electronic relaxation 2 (details)
   IALGO  =     38    algorithm
   LDIAG  =      T    sub-space diagonalisation (order eigenvalues)
   LSUBROT=      F    optimize rotation matrix (better conditioning)
   TURBO    =      0    0=normal 1=particle mesh
   IRESTART =      0    0=no restart 2=restart with 2 vectors
   NREBOOT  =      0    no. of reboots
   NMIN     =      0    reboot dimension
   EREF     =   0.00    reference energy to select bands
   IMIX   =      4    mixing-type and parameters
     AMIX     =   0.40;   BMIX     =  1.00
     AMIX_MAG =   1.60;   BMIX_MAG =  1.00
     AMIN     =   0.01
     WC   =   100.;   INIMIX=   1;  MIXPRE=   1;  MAXMIX= -45

 Intra band minimization:
   WEIMIN = 0.0010     energy-eigenvalue tresh-hold
   EBREAK =  0.36E-07  absolut break condition
   DEPER  =   0.30     relativ break condition  

   TIME   =   0.40     timestep for ELM

  volume/ion in A,a.u.               =      12.17        82.16
  Fermi-wavevector in a.u.,A,eV,Ry     =   1.098534  2.075929 16.419210  1.206778
  Thomas-Fermi vector in A             =   2.234914
 
 Write flags
   LWAVE        =      F    write WAVECAR
   LDOWNSAMPLE  =      F    k-point downsampling of WAVECAR
   LCHARG       =      T    write CHGCAR
   LVTOT        =      F    write LOCPOT, total local potential
   LVHAR        =      F    write LOCPOT, Hartree potential only
   LELF         =      F    write electronic localiz. function (ELF)
   LORBIT       =      0    0 simple, 1 ext, 2 COOP (PROOUT), +10 PAW based schemes


 Dipole corrections
   LMONO  =      F    monopole corrections only (constant potential shift)
   LDIPOL =      F    correct potential (dipole corrections)
   IDIPOL =      0    1-x, 2-y, 3-z, 4-all directions 
   EPSILON=  1.0000000 bulk dielectric constant

 Exchange correlation treatment:
   GGA     =    --    GGA type
   LEXCH   =     8    internal setting for exchange type
   VOSKOWN=      0    Vosko Wilk Nusair interpolation
   LHFCALC =     F    Hartree Fock is set to
   LHFONE  =     F    Hartree Fock one center treatment
   AEXX    =    0.0000 exact exchange contribution

 Linear response parameters
   LEPSILON=     F    determine dielectric tensor
   LRPA    =     F    only Hartree local field effects (RPA)
   LNABLA  =     F    use nabla operator in PAW spheres
   LVEL    =     F    velocity operator in full k-point grid
   LINTERFAST=   F  fast interpolation
   KINTER  =     0    interpolate to denser k-point grid
   CSHIFT  =0.1000    complex shift for real part using Kramers Kronig
   OMEGAMAX=  -1.0    maximum frequency
   DEG_THRESHOLD= 0.2000000E-02 threshold for treating states as degnerate
   RTIME   =   -0.100 relaxation time in fs
  (WPLASMAI=    0.000 imaginary part of plasma frequency in eV, 0.658/RTIME)
   DFIELD  = 0.0000000 0.0000000 0.0000000 field for delta impulse in time
 
 Orbital magnetization related:
   ORBITALMAG=     F  switch on orbital magnetization
   LCHIMAG   =     F  perturbation theory with respect to B field
   DQ        =  0.001000  dq finite difference perturbation B field
   LLRAUG    =     F  two centre corrections for induced B field



--------------------------------------------------------------------------------------------------------


 conjugate gradient relaxation of ions
   using selective dynamics as specified on POSCAR
 charge density and potential will be updated during run
 non-spin polarized calculation
 Variant of blocked Davidson
 Davidson routine will perform the subspace rotation
 perform sub-space diagonalisation
    after iterative eigenvector-optimisation
 modified Broyden-mixing scheme, WC =      100.0
 initial mixing is a Kerker type mixing with AMIX =  0.4000 and BMIX =      1.0000
 Hartree-type preconditioning will be used
 using additional bands           18
 reciprocal scheme for non local part
 use partial core corrections
 calculate Harris-corrections to forces 
   (improved forces if not selfconsistent)
 use gradient corrections 
 use of overlap-Matrix (Vanderbilt PP)
 Gauss-broadening in eV      SIGMA  =   0.05


--------------------------------------------------------------------------------------------------------


  energy-cutoff  :      520.00
  volume of cell :      340.90
      direct lattice vectors                 reciprocal lattice vectors
     2.514528000 -1.451763000  0.000000000     0.397688950  0.000000000  0.000000000
     0.000000000  2.903526000  0.000000000     0.198844475  0.344408833  0.000000000
     0.000000000  0.000000000 46.691574000     0.000000000  0.000000000  0.021417140

  length of vectors
     2.903526627  2.903526000 46.691574000     0.397688950  0.397689036  0.021417140


 
 k-points in units of 2pi/SCALE and weight: K-Spacing Value to Generate K-Mesh: 0.02
   0.00000000  0.00000000  0.00000000       0.006
   0.03059146  0.00000000  0.00000000       0.036
   0.06118292  0.00000000  0.00000000       0.036
   0.09177437  0.00000000  0.00000000       0.036
   0.12236583  0.00000000  0.00000000       0.036
   0.15295729  0.00000000  0.00000000       0.036
   0.18354875  0.00000000  0.00000000       0.036
   0.04588719  0.02649299  0.00000000       0.036
   0.07647864  0.02649299  0.00000000       0.071
   0.10707010  0.02649299  0.00000000       0.071
   0.13766156  0.02649299  0.00000000       0.071
   0.16825302  0.02649299  0.00000000       0.071
   0.19884447  0.02649299  0.00000000       0.036
   0.09177437  0.05298597  0.00000000       0.036
   0.12236583  0.05298597  0.00000000       0.071
   0.15295729  0.05298597  0.00000000       0.071
   0.18354875  0.05298597  0.00000000       0.071
   0.13766156  0.07947896  0.00000000       0.036
   0.16825302  0.07947896  0.00000000       0.071
   0.19884447  0.07947896  0.00000000       0.036
   0.18354875  0.10597195  0.00000000       0.036
 
 k-points in reciprocal lattice and weights: K-Spacing Value to Generate K-Mesh: 0.02
   0.00000000  0.00000000  0.00000000       0.006
   0.07692308  0.00000000  0.00000000       0.036
   0.15384615  0.00000000  0.00000000       0.036
   0.23076923  0.00000000  0.00000000       0.036
   0.30769231  0.00000000  0.00000000       0.036
   0.38461538  0.00000000  0.00000000       0.036
   0.46153846  0.00000000  0.00000000       0.036
   0.07692308  0.07692308  0.00000000       0.036
   0.15384615  0.07692308  0.00000000       0.071
   0.23076923  0.07692308  0.00000000       0.071
   0.30769231  0.07692308  0.00000000       0.071
   0.38461538  0.07692308  0.00000000       0.071
   0.46153846  0.07692308  0.00000000       0.036
   0.15384615  0.15384615  0.00000000       0.036
   0.23076923  0.15384615  0.00000000       0.071
   0.30769231  0.15384615  0.00000000       0.071
   0.38461538  0.15384615  0.00000000       0.071
   0.23076923  0.23076923  0.00000000       0.036
   0.30769231  0.23076923  0.00000000       0.071
   0.38461538  0.23076923  0.00000000       0.036
   0.30769231  0.30769231  0.00000000       0.036
 
 position of ions in fractional coordinates (direct lattice) 
   0.00000000  0.00000000  0.27095200
   0.33333300  0.66666700  0.32720400
   0.00000000  0.00000000  0.43970800
   0.33333300  0.66666700  0.49596100
   0.00000000  0.00000000  0.60846500
   0.33333300  0.66666700  0.66471700
   0.00000000  0.00000000  0.77722200
   0.66666700  0.33333300  0.38345600
   0.66666700  0.33333300  0.55221300
   0.66666700  0.33333300  0.72097000
   0.00000000  0.00000000  0.35533000
   0.00000000  0.00000000  0.52408700
   0.00000000  0.00000000  0.69284400
   0.66666700  0.33333300  0.29907800
   0.66666700  0.33333300  0.46783500
   0.66666700  0.33333300  0.63659100
   0.66666700  0.33333300  0.80534800
   0.33333300  0.66666700  0.24282600
   0.33333300  0.66666700  0.41158200
   0.33333300  0.66666700  0.58033900
   0.33333300  0.66666700  0.74909600
   0.00000000  0.00000000  0.03062700
   0.00000000  0.00000000  0.17514700
   0.66666700  0.33333300  0.12697400
   0.33333300  0.66666700  0.07880000
   0.00000000  0.00000000  0.87302600
   0.66666700  0.33333300  0.96937300
   0.33333300  0.66666700  0.92120000
 
 position of ions in cartesian coordinates  (Angst):
   0.00000000  0.00000000 12.65117536
   0.83817516  1.45176445 15.27766978
   0.00000000  0.00000000 20.53065862
   0.83817516  1.45176445 23.15719973
   0.00000000  0.00000000 28.41018857
   0.83817516  1.45176445 31.03668299
   0.00000000  0.00000000 36.28971853
   1.67635284 -0.00000145 17.90416420
   1.67635284 -0.00000145 25.78369415
   1.67635284 -0.00000145 33.66322411
   0.00000000  0.00000000 16.59091699
   0.00000000  0.00000000 24.47044694
   0.00000000  0.00000000 32.34997690
   1.67635284 -0.00000145 13.96442257
   1.67635284 -0.00000145 21.84395252
   1.67635284 -0.00000145 29.72343578
   1.67635284 -0.00000145 37.60296574
   0.83817516  1.45176445 11.33792815
   0.83817516  1.45176445 19.21741141
   0.83817516  1.45176445 27.09694136
   0.83817516  1.45176445 34.97647132
   0.00000000  0.00000000  1.43002284
   0.00000000  0.00000000  8.17788911
   1.67635284 -0.00000145  5.92861592
   0.83817516  1.45176445  3.67929603
   0.00000000  0.00000000 40.76295808
   1.67635284 -0.00000145 45.26155116
   0.83817516  1.45176445 43.01227797
 


--------------------------------------------------------------------------------------------------------


 k-point  1 :   0.0000 0.0000 0.0000  plane waves:    9353
 k-point  2 :   0.0769 0.0000 0.0000  plane waves:    9317
 k-point  3 :   0.1538 0.0000 0.0000  plane waves:    9255
 k-point  4 :   0.2308 0.0000 0.0000  plane waves:    9237
 k-point  5 :   0.3077 0.0000 0.0000  plane waves:    9175
 k-point  6 :   0.3846 0.0000 0.0000  plane waves:    9120
 k-point  7 :   0.4615 0.0000 0.0000  plane waves:    9130
 k-point  8 :   0.0769 0.0769 0.0000  plane waves:    9263
 k-point  9 :   0.1538 0.0769 0.0000  plane waves:    9247
 k-point 10 :   0.2308 0.0769 0.0000  plane waves:    9204
 k-point 11 :   0.3077 0.0769 0.0000  plane waves:    9165
 k-point 12 :   0.3846 0.0769 0.0000  plane waves:    9121
 k-point 13 :   0.4615 0.0769 0.0000  plane waves:    9122
 k-point 14 :   0.1538 0.1538 0.0000  plane waves:    9215
 k-point 15 :   0.2308 0.1538 0.0000  plane waves:    9150
 k-point 16 :   0.3077 0.1538 0.0000  plane waves:    9157
 k-point 17 :   0.3846 0.1538 0.0000  plane waves:    9145
 k-point 18 :   0.2308 0.2308 0.0000  plane waves:    9151
 k-point 19 :   0.3077 0.2308 0.0000  plane waves:    9147
 k-point 20 :   0.3846 0.2308 0.0000  plane waves:    9166
 k-point 21 :   0.3077 0.3077 0.0000  plane waves:    9134

 maximum and minimum number of plane-waves per node :      2374     2268

 maximum number of plane-waves:      9353
 maximum index in each direction: 
   IXMAX=    5   IYMAX=    5   IZMAX=   86
   IXMIN=   -5   IYMIN=   -5   IZMIN=  -86


 parallel 3D FFT for wavefunctions:
    minimum data exchange during FFTs selected (reduces bandwidth)
 parallel 3D FFT for charge:
    minimum data exchange during FFTs selected (reduces bandwidth)


 total amount of memory used by VASP MPI-rank0    79903. kBytes
=======================================================================

   base      :      30000. kBytes
   nonl-proj :      16240. kBytes
   fftplans  :      13858. kBytes
   grid      :       8483. kBytes
   one-center:         56. kBytes
   wavefun   :      11266. kBytes
 
     INWAV:  cpu time    0.0000: real time    0.0000
 Broyden mixing: mesh for mixing (old mesh)
   NGX = 11   NGY = 11   NGZ =173
  (NGX  = 48   NGY  = 48   NGZ  =700)
  gives a total of  20933 points

 initial charge density was supplied:
 charge density of overlapping atoms calculated
 number of electron     103.0000000 magnetization 
 keeping initial charge density in first step


--------------------------------------------------------------------------------------------------------


 Maximum index for augmentation-charges        10320 (set IRDMAX)


--------------------------------------------------------------------------------------------------------


 First call to EWALD:  gamma=   0.254
 Maximum number of real-space cells 7x 7x 1
 Maximum number of reciprocal cells 1x 1x16

    FEWALD:  cpu time    0.0016: real time    0.0016


--------------------------------------- Iteration      1(   1)  ---------------------------------------


    POTLOK:  cpu time    0.0488: real time    0.0489
    SETDIJ:  cpu time    0.2176: real time    0.2180
     EDDAV:  cpu time    3.2812: real time    3.3250
       DOS:  cpu time    0.0010: real time    0.0010
    --------------------------------------------
      LOOP:  cpu time    3.5486: real time    3.5930

 eigenvalue-minimisations  :  2940
 total energy-change (2. order) : 0.5082873E+03  (-0.4550116E+04)
 number of electron     103.0000000 magnetization 
 augmentation part      103.0000000 magnetization 

 Free energy of the ion-electron system (eV)
  ---------------------------------------------------
  alpha Z        PSCENC =       142.39675046
  Ewald energy   TEWEN  =     18079.90047837
  -Hartree energ DENC   =    -23323.10184188
  -exchange      EXHF   =         0.00000000
  -V(xc)+E(xc)   XCENC  =      -438.72760965
  PAW double counting   =      4647.26951674    -3871.08436696
  entropy T*S    EENTRO =        -0.00641401
  eigenvalues    EBANDS =       319.88620184
  atomic energy  EATOM  =      4951.75456612
  Solvation  Ediel_sol  =         0.00000000
  ---------------------------------------------------
  free energy    TOTEN  =       508.28728103 eV

  energy without entropy =      508.29369503  energy(sigma->0) =      508.29048803


--------------------------------------------------------------------------------------------------------




--------------------------------------- Iteration      1(   2)  ---------------------------------------


     EDDAV:  cpu time    3.9591: real time    3.9642
       DOS:  cpu time    0.0009: real time    0.0009
    --------------------------------------------
      LOOP:  cpu time    3.9601: real time    3.9652

 eigenvalue-minimisations  :  3770
 total energy-change (2. order) :-0.6129515E+03  (-0.5785835E+03)
 number of electron     103.0000000 magnetization 
 augmentation part      103.0000000 magnetization 

 Free energy of the ion-electron system (eV)
  ---------------------------------------------------
  alpha Z        PSCENC =       142.39675046
  Ewald energy   TEWEN  =     18079.90047837
  -Hartree energ DENC   =    -23323.10184188
  -exchange      EXHF   =         0.00000000
  -V(xc)+E(xc)   XCENC  =      -438.72760965
  PAW double counting   =      4647.26951674    -3871.08436696
  entropy T*S    EENTRO =        -0.00656263
  eigenvalues    EBANDS =      -293.06512346
  atomic energy  EATOM  =      4951.75456612
  Solvation  Ediel_sol  =         0.00000000
  ---------------------------------------------------
  free energy    TOTEN  =      -104.66419290 eV

  energy without entropy =     -104.65763026  energy(sigma->0) =     -104.66091158


--------------------------------------------------------------------------------------------------------




--------------------------------------- Iteration      1(   3)  ---------------------------------------


     EDDAV:  cpu time    3.7927: real time    3.7976
       DOS:  cpu time    0.0010: real time    0.0010
    --------------------------------------------
      LOOP:  cpu time    3.7938: real time    3.7986

 eigenvalue-minimisations  :  3570
 total energy-change (2. order) :-0.5559704E+02  (-0.5528755E+02)
 number of electron     103.0000000 magnetization 
 augmentation part      103.0000000 magnetization 

 Free energy of the ion-electron system (eV)
  ---------------------------------------------------
  alpha Z        PSCENC =       142.39675046
  Ewald energy   TEWEN  =     18079.90047837
  -Hartree energ DENC   =    -23323.10184188
  -exchange      EXHF   =         0.00000000
  -V(xc)+E(xc)   XCENC  =      -438.72760965
  PAW double counting   =      4647.26951674    -3871.08436696
  entropy T*S    EENTRO =        -0.00732583
  eigenvalues    EBANDS =      -348.66139722
  atomic energy  EATOM  =      4951.75456612
  Solvation  Ediel_sol  =         0.00000000
  ---------------------------------------------------
  free energy    TOTEN  =      -160.26122986 eV

  energy without entropy =     -160.25390403  energy(sigma->0) =     -160.25756694


--------------------------------------------------------------------------------------------------------




--------------------------------------- Iteration      1(   4)  ---------------------------------------


     EDDAV:  cpu time    3.7198: real time    3.7245
       DOS:  cpu time    0.0010: real time    0.0009
    --------------------------------------------
      LOOP:  cpu time    3.7208: real time    3.7254

 eigenvalue-minimisations  :  3490
 total energy-change (2. order) :-0.6593887E+00  (-0.6585226E+00)
 number of electron     103.0000000 magnetization 
 augmentation part      103.0000000 magnetization 

 Free energy of the ion-electron system (eV)
  ---------------------------------------------------
  alpha Z        PSCENC =       142.39675046
  Ewald energy   TEWEN  =     18079.90047837
  -Hartree energ DENC   =    -23323.10184188
  -exchange      EXHF   =         0.00000000
  -V(xc)+E(xc)   XCENC  =      -438.72760965
  PAW double counting   =      4647.26951674    -3871.08436696
  entropy T*S    EENTRO =        -0.00731508
  eigenvalues    EBANDS =      -349.32079666
  atomic energy  EATOM  =      4951.75456612
  Solvation  Ediel_sol  =         0.00000000
  ---------------------------------------------------
  free energy    TOTEN  =      -160.92061854 eV

  energy without entropy =     -160.91330346  energy(sigma->0) =     -160.91696100


--------------------------------------------------------------------------------------------------------




--------------------------------------- Iteration      1(   5)  ---------------------------------------


     EDDAV:  cpu time    3.7473: real time    3.7520
       DOS:  cpu time    0.0009: real time    0.0009
    CHARGE:  cpu time    0.3492: real time    0.3495
    MIXING:  cpu time    0.0034: real time    0.0035
    --------------------------------------------
      LOOP:  cpu time    4.1008: real time    4.1059

 eigenvalue-minimisations  :  3540
 total energy-change (2. order) :-0.9806503E-02  (-0.9804695E-02)
 number of electron     103.0000002 magnetization 
 augmentation part        7.7496500 magnetization 

 Broyden mixing:
  rms(total) = 0.23250E+01    rms(broyden)= 0.23245E+01
  rms(prec ) = 0.23827E+01
  weight for this iteration     100.00

 Free energy of the ion-electron system (eV)
  ---------------------------------------------------
  alpha Z        PSCENC =       142.39675046
  Ewald energy   TEWEN  =     18079.90047837
  -Hartree energ DENC   =    -23323.10184188
  -exchange      EXHF   =         0.00000000
  -V(xc)+E(xc)   XCENC  =      -438.72760965
  PAW double counting   =      4647.26951674    -3871.08436696
  entropy T*S    EENTRO =        -0.00731660
  eigenvalues    EBANDS =      -349.33060163
  atomic energy  EATOM  =      4951.75456612
  Solvation  Ediel_sol  =         0.00000000
  ---------------------------------------------------
  free energy    TOTEN  =      -160.93042505 eV

  energy without entropy =     -160.92310844  energy(sigma->0) =     -160.92676674


--------------------------------------------------------------------------------------------------------




--------------------------------------- Iteration      1(   6)  ---------------------------------------


    POTLOK:  cpu time    0.0459: real time    0.0466
    SETDIJ:  cpu time    0.2142: real time    0.2146
     EDDAV:  cpu time    3.6832: real time    3.6877
       DOS:  cpu time    0.0009: real time    0.0009
    CHARGE:  cpu time    0.3499: real time    0.3502
    MIXING:  cpu time    0.0023: real time    0.0023
    --------------------------------------------
      LOOP:  cpu time    4.2964: real time    4.3023

 eigenvalue-minimisations  :  3360
 total energy-change (2. order) : 0.1693157E+02  (-0.8891240E+01)
 number of electron     103.0000002 magnetization 
 augmentation part        6.3029460 magnetization 

 Broyden mixing:
  rms(total) = 0.76568E+00    rms(broyden)= 0.76481E+00
  rms(prec ) = 0.77306E+00
  weight for this iteration     100.00

 eigenvalues of (default mixing * dielectric matrix)
  average eigenvalue GAMMA=   0.8528
  0.8528

 Free energy of the ion-electron system (eV)
  ---------------------------------------------------
  alpha Z        PSCENC =       142.39675046
  Ewald energy   TEWEN  =     18079.90047837
  -Hartree energ DENC   =    -23513.90310146
  -exchange      EXHF   =         0.00000000
  -V(xc)+E(xc)   XCENC  =      -425.19765398
  PAW double counting   =      5544.18008242    -4771.52749276
  entropy T*S    EENTRO =        -0.00474132
  eigenvalues    EBANDS =      -151.59773799
  atomic energy  EATOM  =      4951.75456612
  Solvation  Ediel_sol  =         0.00000000
  ---------------------------------------------------
  free energy    TOTEN  =      -143.99885014 eV

  energy without entropy =     -143.99410882  energy(sigma->0) =     -143.99647948


--------------------------------------------------------------------------------------------------------




--------------------------------------- Iteration      1(   7)  ---------------------------------------


    POTLOK:  cpu time    0.0441: real time    0.0441
    SETDIJ:  cpu time    0.2158: real time    0.2159
     EDDAV:  cpu time    3.7201: real time    3.7247
       DOS:  cpu time    0.0009: real time    0.0009
    CHARGE:  cpu time    0.3523: real time    0.3526
    MIXING:  cpu time    0.0022: real time    0.0022
    --------------------------------------------
      LOOP:  cpu time    4.3354: real time    4.3405

 eigenvalue-minimisations  :  3360
 total energy-change (2. order) : 0.1330002E+00  (-0.1889282E+00)
 number of electron     103.0000002 magnetization 
 augmentation part        6.3292970 magnetization 

 Broyden mixing:
  rms(total) = 0.47640E+00    rms(broyden)= 0.47638E+00
  rms(prec ) = 0.48164E+00
  weight for this iteration     100.00

 eigenvalues of (default mixing * dielectric matrix)
  average eigenvalue GAMMA=   1.6555
  0.9872  2.3238

 Free energy of the ion-electron system (eV)
  ---------------------------------------------------
  alpha Z        PSCENC =       142.39675046
  Ewald energy   TEWEN  =     18079.90047837
  -Hartree energ DENC   =    -23513.96414432
  -exchange      EXHF   =         0.00000000
  -V(xc)+E(xc)   XCENC  =      -424.68994185
  PAW double counting   =      5871.05793925    -5097.97680962
  entropy T*S    EENTRO =        -0.00952513
  eigenvalues    EBANDS =      -152.33516322
  atomic energy  EATOM  =      4951.75456612
  Solvation  Ediel_sol  =         0.00000000
  ---------------------------------------------------
  free energy    TOTEN  =      -143.86584994 eV

  energy without entropy =     -143.85632481  energy(sigma->0) =     -143.86108737


--------------------------------------------------------------------------------------------------------




--------------------------------------- Iteration      1(   8)  ---------------------------------------


    POTLOK:  cpu time    0.0445: real time    0.0446
    SETDIJ:  cpu time    0.2170: real time    0.2172
     EDDAV:  cpu time    3.7976: real time    3.8022
       DOS:  cpu time    0.0010: real time    0.0013
    CHARGE:  cpu time    0.3323: real time    0.3326
    MIXING:  cpu time    0.0028: real time    0.0028
    --------------------------------------------
      LOOP:  cpu time    4.3951: real time    4.4007

 eigenvalue-minimisations  :  3510
 total energy-change (2. order) : 0.7521899E-01  (-0.7680809E-01)
 number of electron     103.0000002 magnetization 
 augmentation part        6.3718797 magnetization 

 Broyden mixing:
  rms(total) = 0.89456E-01    rms(broyden)= 0.89434E-01
  rms(prec ) = 0.15794E+00
  weight for this iteration     100.00

 eigenvalues of (default mixing * dielectric matrix)
  average eigenvalue GAMMA=   1.4231
  2.4605  0.9044  0.9044

 Free energy of the ion-electron system (eV)
  ---------------------------------------------------
  alpha Z        PSCENC =       142.39675046
  Ewald energy   TEWEN  =     18079.90047837
  -Hartree energ DENC   =    -23520.11394609
  -exchange      EXHF   =         0.00000000
  -V(xc)+E(xc)   XCENC  =      -423.25822969
  PAW double counting   =      6398.68685063    -5625.29345922
  entropy T*S    EENTRO =        -0.00334940
  eigenvalues    EBANDS =      -147.86029212
  atomic energy  EATOM  =      4951.75456612
  Solvation  Ediel_sol  =         0.00000000
  ---------------------------------------------------
  free energy    TOTEN  =      -143.79063095 eV

  energy without entropy =     -143.78728155  energy(sigma->0) =     -143.78895625


--------------------------------------------------------------------------------------------------------




--------------------------------------- Iteration      1(   9)  ---------------------------------------


    POTLOK:  cpu time    0.0437: real time    0.0444
    SETDIJ:  cpu time    0.2022: real time    0.2027
     EDDAV:  cpu time    3.8201: real time    3.8248
       DOS:  cpu time    0.0009: real time    0.0009
    CHARGE:  cpu time    0.3587: real time    0.3591
    MIXING:  cpu time    0.0022: real time    0.0022
    --------------------------------------------
      LOOP:  cpu time    4.4278: real time    4.4341

 eigenvalue-minimisations  :  3530
 total energy-change (2. order) : 0.6122024E-01  (-0.2551235E-01)
 number of electron     103.0000002 magnetization 
 augmentation part        6.3631261 magnetization 

 Broyden mixing:
  rms(total) = 0.43292E-01    rms(broyden)= 0.43290E-01
  rms(prec ) = 0.45050E-01
  weight for this iteration     100.00

 eigenvalues of (default mixing * dielectric matrix)
  average eigenvalue GAMMA=   1.3404
  2.5049  1.0993  1.0993  0.6582

 Free energy of the ion-electron system (eV)
  ---------------------------------------------------
  alpha Z        PSCENC =       142.39675046
  Ewald energy   TEWEN  =     18079.90047837
  -Hartree energ DENC   =    -23523.95873047
  -exchange      EXHF   =         0.00000000
  -V(xc)+E(xc)   XCENC  =      -422.82086410
  PAW double counting   =      6466.17145730    -5692.79246701
  entropy T*S    EENTRO =        -0.00762532
  eigenvalues    EBANDS =      -144.37297606
  atomic energy  EATOM  =      4951.75456612
  Solvation  Ediel_sol  =         0.00000000
  ---------------------------------------------------
  free energy    TOTEN  =      -143.72941071 eV

  energy without entropy =     -143.72178540  energy(sigma->0) =     -143.72559806


--------------------------------------------------------------------------------------------------------




--------------------------------------- Iteration      1(  10)  ---------------------------------------


    POTLOK:  cpu time    0.0453: real time    0.0454
    SETDIJ:  cpu time    0.2105: real time    0.2108
     EDDAV:  cpu time    3.7889: real time    3.7935
       DOS:  cpu time    0.0010: real time    0.0010
    CHARGE:  cpu time    0.3591: real time    0.3594
    MIXING:  cpu time    0.0035: real time    0.0035
    --------------------------------------------
      LOOP:  cpu time    4.4084: real time    4.4136

 eigenvalue-minimisations  :  3490
 total energy-change (2. order) : 0.9381891E-03  (-0.3466159E-02)
 number of electron     103.0000002 magnetization 
 augmentation part        6.3400634 magnetization 

 Broyden mixing:
  rms(total) = 0.25684E-01    rms(broyden)= 0.25677E-01
  rms(prec ) = 0.26474E-01
  weight for this iteration     100.00

 eigenvalues of (default mixing * dielectric matrix)
  average eigenvalue GAMMA=   1.2875
  2.4668  1.6877  0.9294  0.7170  0.6365

 Free energy of the ion-electron system (eV)
  ---------------------------------------------------
  alpha Z        PSCENC =       142.39675046
  Ewald energy   TEWEN  =     18079.90047837
  -Hartree energ DENC   =    -23526.95123201
  -exchange      EXHF   =         0.00000000
  -V(xc)+E(xc)   XCENC  =      -422.56393194
  PAW double counting   =      6454.44947041    -5681.12549039
  entropy T*S    EENTRO =        -0.00862843
  eigenvalues    EBANDS =      -141.58045510
  atomic energy  EATOM  =      4951.75456612
  Solvation  Ediel_sol  =         0.00000000
  ---------------------------------------------------
  free energy    TOTEN  =      -143.72847252 eV

  energy without entropy =     -143.71984409  energy(sigma->0) =     -143.72415831


--------------------------------------------------------------------------------------------------------




--------------------------------------- Iteration      1(  11)  ---------------------------------------


    POTLOK:  cpu time    0.0456: real time    0.0457
    SETDIJ:  cpu time    0.2114: real time    0.2115
     EDDAV:  cpu time    3.7132: real time    3.7177
       DOS:  cpu time    0.0009: real time    0.0009
    CHARGE:  cpu time    0.3448: real time    0.3451
    MIXING:  cpu time    0.0065: real time    0.0065
    --------------------------------------------
      LOOP:  cpu time    4.3225: real time    4.3276

 eigenvalue-minimisations  :  3380
 total energy-change (2. order) :-0.4747639E-03  (-0.3206176E-03)
 number of electron     103.0000002 magnetization 
 augmentation part        6.3395223 magnetization 

 Broyden mixing:
  rms(total) = 0.17619E-01    rms(broyden)= 0.17619E-01
  rms(prec ) = 0.17860E-01
  weight for this iteration     100.00

 eigenvalues of (default mixing * dielectric matrix)
  average eigenvalue GAMMA=   1.3314
  2.3509  2.3509  0.9096  0.9096  0.7339  0.7339

 Free energy of the ion-electron system (eV)
  ---------------------------------------------------
  alpha Z        PSCENC =       142.39675046
  Ewald energy   TEWEN  =     18079.90047837
  -Hartree energ DENC   =    -23527.05803223
  -exchange      EXHF   =         0.00000000
  -V(xc)+E(xc)   XCENC  =      -422.52787831
  PAW double counting   =      6427.05123093    -5653.73817754
  entropy T*S    EENTRO =        -0.00845248
  eigenvalues    EBANDS =      -141.49943262
  atomic energy  EATOM  =      4951.75456612
  Solvation  Ediel_sol  =         0.00000000
  ---------------------------------------------------
  free energy    TOTEN  =      -143.72894729 eV

  energy without entropy =     -143.72049481  energy(sigma->0) =     -143.72472105


--------------------------------------------------------------------------------------------------------




--------------------------------------- Iteration      1(  12)  ---------------------------------------


    POTLOK:  cpu time    0.0458: real time    0.0459
    SETDIJ:  cpu time    0.2179: real time    0.2181
     EDDAV:  cpu time    4.0851: real time    4.0902
       DOS:  cpu time    0.0010: real time    0.0010
    CHARGE:  cpu time    0.3535: real time    0.3538
    MIXING:  cpu time    0.0047: real time    0.0048
    --------------------------------------------
      LOOP:  cpu time    4.7082: real time    4.7137

 eigenvalue-minimisations  :  3840
 total energy-change (2. order) :-0.9038100E-04  (-0.1439019E-03)
 number of electron     103.0000002 magnetization 
 augmentation part        6.3435378 magnetization 

 Broyden mixing:
  rms(total) = 0.63716E-02    rms(broyden)= 0.63697E-02
  rms(prec ) = 0.66322E-02
  weight for this iteration     100.00

 eigenvalues of (default mixing * dielectric matrix)
  average eigenvalue GAMMA=   1.3911
  2.9972  2.5035  0.9653  0.9653  0.9607  0.6729  0.6729

 Free energy of the ion-electron system (eV)
  ---------------------------------------------------
  alpha Z        PSCENC =       142.39675046
  Ewald energy   TEWEN  =     18079.90047837
  -Hartree energ DENC   =    -23526.63265827
  -exchange      EXHF   =         0.00000000
  -V(xc)+E(xc)   XCENC  =      -422.53851489
  PAW double counting   =      6402.34568162    -5629.03291775
  entropy T*S    EENTRO =        -0.00835847
  eigenvalues    EBANDS =      -141.91406487
  atomic energy  EATOM  =      4951.75456612
  Solvation  Ediel_sol  =         0.00000000
  ---------------------------------------------------
  free energy    TOTEN  =      -143.72903767 eV

  energy without entropy =     -143.72067920  energy(sigma->0) =     -143.72485844


--------------------------------------------------------------------------------------------------------




--------------------------------------- Iteration      1(  13)  ---------------------------------------


    POTLOK:  cpu time    0.0454: real time    0.0454
    SETDIJ:  cpu time    0.2131: real time    0.2155
     EDDAV:  cpu time    3.7607: real time    3.7654
       DOS:  cpu time    0.0010: real time    0.0010
    CHARGE:  cpu time    0.3617: real time    0.3620
    MIXING:  cpu time    0.0032: real time    0.0032
    --------------------------------------------
      LOOP:  cpu time    4.3852: real time    4.3925

 eigenvalue-minimisations  :  3430
 total energy-change (2. order) :-0.4213531E-04  (-0.4253702E-04)
 number of electron     103.0000002 magnetization 
 augmentation part        6.3426649 magnetization 

 Broyden mixing:
  rms(total) = 0.19454E-02    rms(broyden)= 0.19450E-02
  rms(prec ) = 0.24957E-02
  weight for this iteration     100.00

 eigenvalues of (default mixing * dielectric matrix)
  average eigenvalue GAMMA=   1.3567
  2.8772  2.5098  1.1195  1.1195  0.9695  0.9695  0.6443  0.6443

 Free energy of the ion-electron system (eV)
  ---------------------------------------------------
  alpha Z        PSCENC =       142.39675046
  Ewald energy   TEWEN  =     18079.90047837
  -Hartree energ DENC   =    -23526.86385296
  -exchange      EXHF   =         0.00000000
  -V(xc)+E(xc)   XCENC  =      -422.51034249
  PAW double counting   =      6389.57473235    -5616.27008680
  entropy T*S    EENTRO =        -0.00842273
  eigenvalues    EBANDS =      -141.70290212
  atomic energy  EATOM  =      4951.75456612
  Solvation  Ediel_sol  =         0.00000000
  ---------------------------------------------------
  free energy    TOTEN  =      -143.72907980 eV

  energy without entropy =     -143.72065708  energy(sigma->0) =     -143.72486844


--------------------------------------------------------------------------------------------------------




--------------------------------------- Iteration      1(  14)  ---------------------------------------


    POTLOK:  cpu time    0.0458: real time    0.0465
    SETDIJ:  cpu time    0.2171: real time    0.2177
     EDDAV:  cpu time    3.6690: real time    3.6735
       DOS:  cpu time    0.0010: real time    0.0010
    CHARGE:  cpu time    0.3615: real time    0.3618
    MIXING:  cpu time    0.0037: real time    0.0037
    --------------------------------------------
      LOOP:  cpu time    4.2981: real time    4.3042

 eigenvalue-minimisations  :  3240
 total energy-change (2. order) : 0.1554234E-04  (-0.9664265E-05)
 number of electron     103.0000002 magnetization 
 augmentation part        6.3429494 magnetization 

 Broyden mixing:
  rms(total) = 0.11193E-02    rms(broyden)= 0.11189E-02
  rms(prec ) = 0.15970E-02
  weight for this iteration     100.00

 eigenvalues of (default mixing * dielectric matrix)
  average eigenvalue GAMMA=   1.3253
  2.8856  2.4733  1.5668  1.0425  1.0425  0.8137  0.8137  0.6940  0.5953

 Free energy of the ion-electron system (eV)
  ---------------------------------------------------
  alpha Z        PSCENC =       142.39675046
  Ewald energy   TEWEN  =     18079.90047837
  -Hartree energ DENC   =    -23526.84637997
  -exchange      EXHF   =         0.00000000
  -V(xc)+E(xc)   XCENC  =      -422.51550225
  PAW double counting   =      6390.09885403    -5616.79241168
  entropy T*S    EENTRO =        -0.00833523
  eigenvalues    EBANDS =      -141.71708411
  atomic energy  EATOM  =      4951.75456612
  Solvation  Ediel_sol  =         0.00000000
  ---------------------------------------------------
  free energy    TOTEN  =      -143.72906426 eV

  energy without entropy =     -143.72072903  energy(sigma->0) =     -143.72489665


--------------------------------------------------------------------------------------------------------




--------------------------------------- Iteration      1(  15)  ---------------------------------------


    POTLOK:  cpu time    0.0460: real time    0.0461
    SETDIJ:  cpu time    0.2182: real time    0.2184
     EDDAV:  cpu time    2.9373: real time    2.9409
       DOS:  cpu time    0.0010: real time    0.0010
    --------------------------------------------
      LOOP:  cpu time    3.2025: real time    3.2064

 eigenvalue-minimisations  :  2310
 total energy-change (2. order) : 0.8434276E-05  (-0.1898385E-05)
 number of electron     103.0000002 magnetization 
 augmentation part        6.3429494 magnetization 

 Free energy of the ion-electron system (eV)
  ---------------------------------------------------
  alpha Z        PSCENC =       142.39675046
  Ewald energy   TEWEN  =     18079.90047837
  -Hartree energ DENC   =    -23526.89102361
  -exchange      EXHF   =         0.00000000
  -V(xc)+E(xc)   XCENC  =      -422.51504120
  PAW double counting   =      6389.90796094    -5616.60145706
  entropy T*S    EENTRO =        -0.00837622
  eigenvalues    EBANDS =      -141.67291363
  atomic energy  EATOM  =      4951.75456612
  Solvation  Ediel_sol  =         0.00000000
  ---------------------------------------------------
  free energy    TOTEN  =      -143.72905583 eV

  energy without entropy =     -143.72067961  energy(sigma->0) =     -143.72486772


--------------------------------------------------------------------------------------------------------




 average (electrostatic) potential at core
  the test charge radii are     0.7215  1.0714  1.0406
  (the norm of the test charge is              1.0000)
       1 -69.8815       2 -69.7658       3 -69.7796       4 -69.7870       5 -69.7749
       6 -69.7598       7 -69.8689       8 -69.7687       9 -69.7853      10 -69.7524
      11 -35.4186      12 -35.4425      13 -35.4084      14 -35.4564      15 -35.4390
      16 -35.4228      17 -35.6712      18 -35.6810      19 -35.4283      20 -35.4367
      21 -35.4419      22 -74.2998      23 -74.2443      24 -74.1316      25 -74.1313
      26 -74.1629      27 -74.1976      28 -74.0569
 
 
 
 E-fermi :   6.5123     XC(G=0): -10.3814     alpha+bet :-12.7543


 k-point     1 :       0.0000    0.0000    0.0000
  band No.  band energies     occupation 
      1     -14.1518      2.00000
      2     -14.1006      2.00000
      3     -14.0328      2.00000
      4     -13.9322      2.00000
      5     -13.8051      2.00000
      6     -13.6623      2.00000
      7     -13.5156      2.00000
      8     -13.3782      2.00000
      9     -13.2629      2.00000
     10     -13.1982      2.00000
     11      -4.3445      2.00000
     12      -4.0251      2.00000
     13      -3.3257      2.00000
     14      -2.4256      2.00000
     15      -1.8917      2.00000
     16      -1.7321      2.00000
     17      -1.6240      2.00000
     18      -1.4111      2.00000
     19      -1.1243      2.00000
     20      -0.6441      2.00000
     21      -0.2492      2.00000
     22       0.1299      2.00000
     23       0.4295      2.00000
     24       1.0931      2.00000
     25       1.1388      2.00000
     26       1.7952      2.00000
     27       2.1528      2.00000
     28       2.4738      2.00000
     29       2.8081      2.00000
     30       2.8081      2.00000
     31       2.8293      2.00000
     32       2.8293      2.00000
     33       2.8544      2.00000
     34       2.8544      2.00000
     35       2.9026      2.00000
     36       2.9026      2.00000
     37       2.9661      2.00000
     38       2.9661      2.00000
     39       3.0366      2.00000
     40       3.0366      2.00000
     41       3.1079      2.00000
     42       3.1079      2.00000
     43       3.1735      2.00000
     44       3.1735      2.00000
     45       3.2295      2.00000
     46       3.2295      2.00000
     47       3.2554      2.00000
     48       3.2554      2.00000
     49       3.4542      2.00000
     50       4.5555      2.00000
     51       5.5417      2.00000
     52       7.1555      0.00000
     53       7.4007      0.00000
     54       7.9732      0.00000
     55       8.2701      0.00000
     56       9.0395      0.00000
     57       9.1310      0.00000
     58       9.9907      0.00000
     59      10.1284      0.00000
     60      10.8442      0.00000
     61      10.8758      0.00000
     62      11.2991      0.00000
     63      11.3419      0.00000
     64      11.9429      0.00000
     65      13.4327      0.00000
     66      14.0905      0.00000
     67      14.1168      0.00000
     68      14.2416      0.00000
     69      14.3677      0.00000
     70      14.7984      0.00000

 k-point     2 :       0.0769    0.0000    0.0000
  band No.  band energies     occupation 
      1     -14.0930      2.00000
      2     -14.0429      2.00000
      3     -13.9771      2.00000
      4     -13.8792      2.00000
      5     -13.7552      2.00000
      6     -13.6160      2.00000
      7     -13.4731      2.00000
      8     -13.3395      2.00000
      9     -13.2273      2.00000
     10     -13.1648      2.00000
     11      -4.2063      2.00000
     12      -3.8871      2.00000
     13      -3.1883      2.00000
     14      -2.2891      2.00000
     15      -1.8012      2.00000
     16      -1.6448      2.00000
     17      -1.5095      2.00000
     18      -1.3145      2.00000
     19      -1.0542      2.00000
     20      -0.5896      2.00000
     21      -0.1798      2.00000
     22       0.2186      2.00000
     23       0.4539      2.00000
     24       1.1210      2.00000
     25       1.1891      2.00000
     26       1.7632      2.00000
     27       2.1221      2.00000
     28       2.5456      2.00000
     29       2.5501      2.00000
     30       2.5708      2.00000
     31       2.5954      2.00000
     32       2.6498      2.00000
     33       2.7116      2.00000
     34       2.7620      2.00000
     35       2.7831      2.00000
     36       2.7857      2.00000
     37       2.8082      2.00000
     38       2.8377      2.00000
     39       2.8564      2.00000
     40       2.8922      2.00000
     41       2.9020      2.00000
     42       2.9199      2.00000
     43       2.9472      2.00000
     44       2.9903      2.00000
     45       3.0616      2.00000
     46       3.1272      2.00000
     47       3.1832      2.00000
     48       3.2091      2.00000
     49       3.6012      2.00000
     50       4.7052      2.00000
     51       5.6953      2.00000
     52       7.3374      0.00000
     53       7.7350      0.00000
     54       8.2331      0.00000
     55       8.5098      0.00000
     56       9.2188      0.00000
     57       9.3453      0.00000
     58      10.1804      0.00000
     59      10.3394      0.00000
     60      11.0727      0.00000
     61      11.1044      0.00000
     62      11.5767      0.00000
     63      11.6290      0.00000
     64      12.0952      0.00000
     65      13.4476      0.00000
     66      14.0459      0.00000
     67      14.0758      0.00000
     68      14.2097      0.00000
     69      14.3183      0.00000
     70      14.4737      0.00000

 k-point     3 :       0.1538    0.0000    0.0000
  band No.  band energies     occupation 
      1     -13.9242      2.00000
      2     -13.8779      2.00000
      3     -13.8181      2.00000
      4     -13.7279      2.00000
      5     -13.6134      2.00000
      6     -13.4849      2.00000
      7     -13.3534      2.00000
      8     -13.2308      2.00000
      9     -13.1279      2.00000
     10     -13.0715      2.00000
     11      -3.7925      2.00000
     12      -3.4738      2.00000
     13      -2.7768      2.00000
     14      -1.8808      2.00000
     15      -1.5400      2.00000
     16      -1.3954      2.00000
     17      -1.2179      2.00000
     18      -0.9894      2.00000
     19      -0.8608      2.00000
     20      -0.4493      2.00000
     21      -0.0540      2.00000
     22       0.4508      2.00000
     23       0.5234      2.00000
     24       1.0141      2.00000
     25       1.3066      2.00000
     26       1.6849      2.00000
     27       1.7545      2.00000
     28       1.8836      2.00000
     29       1.9323      2.00000
     30       1.9423      2.00000
     31       2.0365      2.00000
     32       2.0792      2.00000
     33       2.1931      2.00000
     34       2.2738      2.00000
     35       2.3628      2.00000
     36       2.3880      2.00000
     37       2.4272      2.00000
     38       2.6374      2.00000
     39       2.6583      2.00000
     40       2.6832      2.00000
     41       2.7313      2.00000
     42       2.7946      2.00000
     43       2.8649      2.00000
     44       2.8980      2.00000
     45       2.9361      2.00000
     46       3.0016      2.00000
     47       3.0575      2.00000
     48       3.0834      2.00000
     49       3.9507      2.00000
     50       5.0794      2.00000
     51       6.0883      2.00000
     52       7.7723      0.00000
     53       8.4944      0.00000
     54       8.8654      0.00000
     55       9.0806      0.00000
     56       9.6414      0.00000
     57       9.8636      0.00000
     58      10.6213      0.00000
     59      10.8020      0.00000
     60      11.4585      0.00000
     61      11.6079      0.00000
     62      11.7896      0.00000
     63      12.0320      0.00000
     64      12.2514      0.00000
     65      12.3474      0.00000
     66      12.5252      0.00000
     67      12.6989      0.00000
     68      13.3918      0.00000
     69      13.6669      0.00000
     70      13.8884      0.00000

 k-point     4 :       0.2308    0.0000    0.0000
  band No.  band energies     occupation 
      1     -13.6697      2.00000
      2     -13.6299      2.00000
      3     -13.5800      2.00000
      4     -13.5025      2.00000
      5     -13.4033      2.00000
      6     -13.2922      2.00000
      7     -13.1789      2.00000
      8     -13.0738      2.00000
      9     -12.9856      2.00000
     10     -12.9391      2.00000
     11      -3.1054      2.00000
     12      -2.7876      2.00000
     13      -2.0939      2.00000
     14      -1.2094      2.00000
     15      -1.1408      2.00000
     16      -1.0217      2.00000
     17      -0.8685      2.00000
     18      -0.6280      2.00000
     19      -0.4298      2.00000
     20      -0.2535      2.00000
     21      -0.0573      2.00000
     22       0.2492      2.00000
     23       0.4913      2.00000
     24       0.7181      2.00000
     25       0.8914      2.00000
     26       1.0058      2.00000
     27       1.0713      2.00000
     28       1.1458      2.00000
     29       1.2405      2.00000
     30       1.3079      2.00000
     31       1.4978      2.00000
     32       1.6600      2.00000
     33       1.8489      2.00000
     34       1.9964      2.00000
     35       2.0998      2.00000
     36       2.2065      2.00000
     37       2.2773      2.00000
     38       2.4689      2.00000
     39       2.4896      2.00000
     40       2.5142      2.00000
     41       2.5620      2.00000
     42       2.6249      2.00000
     43       2.6948      2.00000
     44       2.7656      2.00000
     45       2.8308      2.00000
     46       2.8865      2.00000
     47       2.9124      2.00000
     48       3.4596      2.00000
     49       4.5170      2.00000
     50       5.6423      2.00000
     51       6.6631      0.00002
     52       8.2424      0.00000
     53       9.0051      0.00000
     54       9.2977      0.00000
     55       9.3746      0.00000
     56       9.5936      0.00000
     57       9.9138      0.00000
     58       9.9770      0.00000
     59      10.2072      0.00000
     60      10.5519      0.00000
     61      10.7929      0.00000
     62      11.0614      0.00000
     63      11.4698      0.00000
     64      11.6037      0.00000
     65      11.9853      0.00000
     66      12.2760      0.00000
     67      12.7272      0.00000
     68      12.9777      0.00000
     69      13.0737      0.00000
     70      13.2120      0.00000

 k-point     5 :       0.3077    0.0000    0.0000
  band No.  band energies     occupation 
      1     -13.3708      2.00000
      2     -13.3404      2.00000
      3     -13.3040      2.00000
      4     -13.2433      2.00000
      5     -13.1643      2.00000
      6     -13.0763      2.00000
      7     -12.9872      2.00000
      8     -12.9050      2.00000
      9     -12.8357      2.00000
     10     -12.8013      2.00000
     11      -2.1491      2.00000
     12      -1.8325      2.00000
     13      -1.1444      2.00000
     14      -0.7509      2.00000
     15      -0.6670      2.00000
     16      -0.5690      2.00000
     17      -0.5416      2.00000
     18      -0.4838      2.00000
     19      -0.3786      2.00000
     20      -0.2994      2.00000
     21      -0.1922      2.00000
     22      -0.1100      2.00000
     23       0.0133      2.00000
     24       0.0928      2.00000
     25       0.1724      2.00000
     26       0.3535      2.00000
     27       0.5922      2.00000
     28       0.6343      2.00000
     29       0.8940      2.00000
     30       1.1677      2.00000
     31       1.4346      2.00000
     32       1.6468      2.00000
     33       1.7916      2.00000
     34       1.9450      2.00000
     35       2.0872      2.00000
     36       2.1396      2.00000
     37       2.2984      2.00000
     38       2.3187      2.00000
     39       2.3429      2.00000
     40       2.3903      2.00000
     41       2.4527      2.00000
     42       2.5219      2.00000
     43       2.5922      2.00000
     44       2.6569      2.00000
     45       2.7123      2.00000
     46       2.7379      2.00000
     47       3.1052      2.00000
     48       4.2766      2.00000
     49       5.2764      2.00000
     50       6.1931      2.00000
     51       6.5399      0.43474
     52       6.8967      0.00000
     53       7.5196      0.00000
     54       7.6428      0.00000
     55       8.3881      0.00000
     56       9.1621      0.00000
     57       9.3417      0.00000
     58      10.0257      0.00000
     59      10.2696      0.00000
     60      10.4561      0.00000
     61      10.6535      0.00000
     62      10.8272      0.00000
     63      10.9983      0.00000
     64      11.3141      0.00000
     65      11.5295      0.00000
     66      11.8065      0.00000
     67      12.0606      0.00000
     68      12.2866      0.00000
     69      12.5203      0.00000
     70      12.6704      0.00000

 k-point     6 :       0.3846    0.0000    0.0000
  band No.  band energies     occupation 
      1     -13.0855      2.00000
      2     -13.0681      2.00000
      3     -13.0474      2.00000
      4     -13.0047      2.00000
      5     -12.9491      2.00000
      6     -12.8881      2.00000
      7     -12.8268      2.00000
      8     -12.7708      2.00000
      9     -12.7227      2.00000
     10     -12.7015      2.00000
     11      -1.0107      2.00000
     12      -0.9351      2.00000
     13      -0.9281      2.00000
     14      -0.8332      2.00000
     15      -0.7999      2.00000
     16      -0.7365      2.00000
     17      -0.6746      2.00000
     18      -0.6261      2.00000
     19      -0.6007      2.00000
     20      -0.5334      2.00000
     21      -0.4636      2.00000
     22      -0.4337      2.00000
     23       0.0567      2.00000
     24       0.0850      2.00000
     25       0.3094      2.00000
     26       0.5936      2.00000
     27       0.8952      2.00000
     28       0.9895      2.00000
     29       1.1882      2.00000
     30       1.3922      2.00000
     31       1.4825      2.00000
     32       1.6046      2.00000
     33       1.7929      2.00000
     34       1.8418      2.00000
     35       1.9626      2.00000
     36       2.1629      2.00000
     37       2.1828      2.00000
     38       2.2066      2.00000
     39       2.2536      2.00000
     40       2.3155      2.00000
     41       2.3842      2.00000
     42       2.4538      2.00000
     43       2.5181      2.00000
     44       2.5731      2.00000
     45       2.5984      2.00000
     46       3.2627      2.00000
     47       4.0776      2.00000
     48       4.3076      2.00000
     49       4.5930      2.00000
     50       5.1723      2.00000
     51       5.4722      2.00000
     52       6.1554      2.00000
     53       6.5202      0.82207
     54       6.9902      0.00000
     55       7.5177      0.00000
     56       8.3674      0.00000
     57       8.5393      0.00000
     58       9.2779      0.00000
     59      10.0197      0.00000
     60      10.2833      0.00000
     61      10.3993      0.00000
     62      10.7154      0.00000
     63      10.8645      0.00000
     64      11.1282      0.00000
     65      11.4723      0.00000
     66      11.7126      0.00000
     67      11.7583      0.00000
     68      11.9318      0.00000
     69      12.0452      0.00000
     70      12.1871      0.00000

 k-point     7 :       0.4615    0.0000    0.0000
  band No.  band energies     occupation 
      1     -12.8980      2.00000
      2     -12.8858      2.00000
      3     -12.8755      2.00000
      4     -12.8448      2.00000
      5     -12.8125      2.00000
      6     -12.7780      2.00000
      7     -12.7432      2.00000
      8     -12.7115      2.00000
      9     -12.6822      2.00000
     10     -12.6708      2.00000
     11      -1.3442      2.00000
     12      -1.2664      2.00000
     13      -1.1612      2.00000
     14      -1.0272      2.00000
     15      -0.9591      2.00000
     16      -0.9197      2.00000
     17      -0.8515      2.00000
     18      -0.8275      2.00000
     19      -0.7533      2.00000
     20      -0.7419      2.00000
     21       0.5466      2.00000
     22       0.6041      2.00000
     23       0.7133      2.00000
     24       0.8536      2.00000
     25       0.8923      2.00000
     26       1.0597      2.00000
     27       1.1547      2.00000
[...]
     13      -0.6004      2.00000
     14      -0.5572      2.00000
     15      -0.5063      2.00000
     16      -0.4641      2.00000
     17      -0.4252      2.00000
     18      -0.3460      2.00000
     19      -0.2049      2.00000
     20      -0.0586      2.00000
     21       0.3315      2.00000
     22       0.4630      2.00000
     23       0.5945      2.00000
     24       0.7403      2.00000
     25       0.9222      2.00000
     26       0.9383      2.00000
     27       0.9688      2.00000
     28       1.0240      2.00000
     29       1.0900      2.00000
     30       1.1613      2.00000
     31       1.2589      2.00000
     32       1.3385      2.00000
     33       1.3882      2.00000
     34       1.4728      2.00000
     35       1.5860      2.00000
     36       1.7656      2.00000
     37       1.8936      2.00000
     38       1.9382      2.00000
     39       1.9699      2.00000
     40       2.0552      2.00000
     41       2.1397      2.00000
     42       2.2221      2.00000
     43       2.3266      2.00000
     44       2.7006      2.00000
     45       3.6575      2.00000
     46       4.2091      2.00000
     47       4.5372      2.00000
     48       4.7160      2.00000
     49       5.1003      2.00000
     50       5.7385      2.00000
     51       5.7973      2.00000
     52       6.0178      2.00000
     53       6.1261      2.00000
     54       6.6324      2.00000
     55       6.8988      0.32409
     56       7.1407      0.00000
     57       7.5749      0.00000
     58       8.0292      0.00000
     59       8.4732      0.00000
     60       9.0394      0.00000
     61       9.2467      0.00000
     62       9.7437      0.00000
     63      10.0978      0.00000
     64      10.5025      0.00000
     65      11.0198      0.00000
     66      11.4657      0.00000
     67      12.0754      0.00000
     68      12.3275      0.00000
     69      12.4223      0.00000
     70      12.5464      0.00000

 k-point    20 :       0.3846    0.2308    0.0000
  band No.  band energies     occupation 
      1     -12.7370      2.00000
      2     -12.7334      2.00000
      3     -12.7073      2.00000
      4     -12.6974      2.00000
      5     -12.6777      2.00000
      6     -12.6579      2.00000
      7     -12.6358      2.00000
      8     -12.6137      2.00000
      9     -12.5957      2.00000
     10     -12.5771      2.00000
     11      -0.8922      2.00000
     12      -0.8067      2.00000
     13      -0.6638      2.00000
     14      -0.4946      2.00000
     15      -0.4202      2.00000
     16      -0.4075      2.00000
     17      -0.3689      2.00000
     18      -0.3498      2.00000
     19      -0.3110      2.00000
     20      -0.2855      2.00000
     21       0.5100      2.00000
     22       0.5476      2.00000
     23       0.5902      2.00000
     24       0.5992      2.00000
     25       0.6799      2.00000
     26       0.6923      2.00000
     27       0.7377      2.00000
     28       0.8983      2.00000
     29       1.0667      2.00000
     30       1.2390      2.00000
     31       1.5054      2.00000
     32       1.5168      2.00000
     33       1.7327      2.00000
     34       1.7564      2.00000
     35       1.8678      2.00000
     36       1.8792      2.00000
     37       2.0191      2.00000
     38       2.1278      2.00000
     39       2.1970      2.00000
     40       2.2004      2.00000
     41       2.4745      2.00000
     42       2.4746      2.00000
     43       2.8083      2.00000
     44       2.8180      2.00000
     45       3.3635      2.00000
     46       3.3973      2.00000
     47       4.1360      2.00000
     48       4.1365      2.00000
     49       4.9390      2.00000
     50       5.2740      2.00000
     51       5.6775      2.00000
     52       5.9831      2.00000
     53       6.0337      2.00000
     54       6.3070      2.00000
     55       6.6752      2.00000
     56       7.1344      0.00000
     57       7.3516      0.00000
     58       7.7854      0.00000
     59       8.3059      0.00000
     60       8.6408      0.00000
     61       8.8089      0.00000
     62       9.4492      0.00000
     63      10.4692      0.00000
     64      10.5312      0.00000
     65      10.6482      0.00000
     66      11.7173      0.00000
     67      11.7713      0.00000
     68      11.9853      0.00000
     69      12.4777      0.00000
     70      12.6194      0.00000

 k-point    21 :       0.3077    0.3077    0.0000
  band No.  band energies     occupation 
      1     -12.7095      2.00000
      2     -12.7050      2.00000
      3     -12.6741      2.00000
      4     -12.6685      2.00000
      5     -12.6536      2.00000
      6     -12.6402      2.00000
      7     -12.6242      2.00000
      8     -12.6091      2.00000
      9     -12.5968      2.00000
     10     -12.5827      2.00000
     11      -0.5370      2.00000
     12      -0.5324      2.00000
     13      -0.4646      2.00000
     14      -0.4526      2.00000
     15      -0.3478      2.00000
     16      -0.3331      2.00000
     17      -0.2194      2.00000
     18      -0.1390      2.00000
     19      -0.0764      2.00000
     20      -0.0268      2.00000
     21       0.0884      2.00000
     22       0.1570      2.00000
     23       0.2790      2.00000
     24       0.3357      2.00000
     25       0.4510      2.00000
     26       0.4832      2.00000
     27       0.5929      2.00000
     28       0.6651      2.00000
     29       0.7700      2.00000
     30       0.8017      2.00000
     31       1.5111      2.00000
     32       1.5285      2.00000
     33       1.7426      2.00000
     34       1.8712      2.00000
     35       1.9396      2.00000
     36       1.9654      2.00000
     37       2.0221      2.00000
     38       2.0254      2.00000
     39       2.0529      2.00000
     40       2.1612      2.00000
     41       2.3507      2.00000
     42       2.6918      2.00000
     43       3.2565      2.00000
     44       3.9498      2.00000
     45       3.9615      2.00000
     46       4.0330      2.00000
     47       4.2900      2.00000
     48       4.2936      2.00000
     49       4.8308      2.00000
     50       4.8452      2.00000
     51       4.9238      2.00000
     52       5.5201      2.00000
     53       5.6358      2.00000
     54       6.0243      2.00000
     55       6.5599      2.00000
     56       6.6475      2.00000
     57       7.4994      0.00000
     58       7.6150      0.00000
     59       8.0460      0.00000
     60       8.3947      0.00000
     61       8.8538      0.00000
     62       9.1885      0.00000
     63       9.9196      0.00000
     64      10.0318      0.00000
     65      10.7443      0.00000
     66      11.3191      0.00000
     67      11.8918      0.00000
     68      12.4005      0.00000
     69      12.6780      0.00000
     70      13.1055      0.00000


--------------------------------------------------------------------------------------------------------


 soft charge-density along one line, spin component           1
         0         1         2         3         4         5         6         7         8         9
 total charge-density along one line
 
 pseudopotential strength for first ion, spin component:           1
 12.124 -14.748   0.000  -0.003  -0.000  -0.000   0.003   0.000
-14.748  17.957  -0.000   0.003   0.000   0.000  -0.004  -0.000
  0.000  -0.000  -8.250  -0.000   0.000   9.864   0.000  -0.000
 -0.003   0.003  -0.000  -8.252   0.000   0.000   9.867  -0.000
 -0.000   0.000   0.000   0.000  -8.250  -0.000  -0.000   9.864
 -0.000   0.000   9.864   0.000  -0.000 -11.628  -0.000   0.000
  0.003  -0.004   0.000   9.867  -0.000  -0.000 -11.632   0.000
  0.000  -0.000  -0.000  -0.000   9.864   0.000   0.000 -11.628
 total augmentation occupancy for first ion, spin component:           1
  2.595   0.360   0.000   0.011  -0.000   0.000   0.001  -0.000
  0.360   0.077  -0.000   0.008  -0.000   0.000  -0.003   0.000
  0.000   0.000   2.147  -0.000  -0.000   0.257  -0.000   0.000
  0.011   0.008  -0.000   2.140   0.000  -0.000   0.257   0.000
 -0.000  -0.000  -0.000   0.000   2.147  -0.000   0.000   0.257
  0.000  -0.000   0.257  -0.000  -0.000   0.033   0.000  -0.000
  0.001  -0.003  -0.000   0.257   0.000   0.000   0.035   0.000
 -0.000   0.000  -0.000   0.000   0.257  -0.000   0.000   0.033


------------------------ aborting loop because EDIFF is reached ----------------------------------------


    CHARGE:  cpu time    0.3301: real time    0.3305
    FORLOC:  cpu time    0.0145: real time    0.0145
    FORNL :  cpu time    2.3295: real time    2.3314
    STRESS:  cpu time    5.5259: real time    5.5307
    FORCOR:  cpu time    0.0582: real time    0.0583
    FORHAR:  cpu time    0.0216: real time    0.0216
    MIXING:  cpu time    0.0020: real time    0.0020
    OFIELD:  cpu time    0.0000: real time    0.0000

  FORCE on cell =-STRESS in cart. coord.  units (eV):
  Direction    XX          YY          ZZ          XY          YZ          ZX
  --------------------------------------------------------------------------------------
  Alpha Z   146.02454   146.02454   146.02454
  Ewald   16399.72282 16399.72322-19118.13241    -0.00010     0.00006    -0.00020
  Hartree 18197.39116 18197.39108-17246.59061    -0.00000     0.00000     0.00005
  E(xc)    -427.08100  -427.08102  -427.65992     0.00000     0.00000     0.00000
  Local  -35852.63232-35852.63186 35105.01610    -0.00012    -0.00005     0.00009
  n-local   -42.75260   -56.49406   -42.47856     2.96182    -1.85296     5.87386
  augment    60.87452    60.87427    60.42612     0.00018    -0.00000     0.00000
  Kinetic  1545.64208  1504.97921  1523.43158    -1.40416    -0.45196     2.05637
  Fock        0.00000     0.00000     0.00000     0.00000     0.00000     0.00000
  -------------------------------------------------------------------------------------
  Total      -0.01272    -0.01272     0.03683     0.00000     0.00000     0.00000
  in kB      -0.06132    -0.06132     0.17751     0.00000     0.00000     0.00000
  external pressure =        0.02 kB  Pullay stress =        0.00 kB


 VOLUME and BASIS-vectors are now :
 -----------------------------------------------------------------------------
  energy-cutoff  :      520.00
  volume of cell :      332.43
      direct lattice vectors                 reciprocal lattice vectors
     2.592201318 -1.496607673  0.000000000     0.385772507  0.000000000  0.000000000
     0.000000000  2.993215347  0.000000000     0.192886253  0.334088892  0.000000000
    -0.000000000 -0.000000000 42.843825984    -0.000000000  0.000000000  0.023340586

  length of vectors
     2.993216030  2.993215347 42.843825984     0.385772507  0.385772595  0.023340586


 FORCES acting on ions
    electron-ion (+dipol)            ewald-force                    non-local-force                 convergence-correction
 -----------------------------------------------------------------------------------------------
   0.301E-05 -.547E-06 0.132E+04   -.415E-05 0.333E-05 -.132E+04   -.491E-17 -.173E-17 0.107E+01   -.224E-09 0.223E-09 0.313E-02
   0.106E-02 -.184E-02 0.103E+04   0.593E-04 -.103E-03 -.103E+04   0.311E-18 -.867E-18 0.155E-01   -.178E-08 0.301E-08 0.185E-01
   0.156E-07 0.776E-09 0.442E+03   0.276E-07 -.347E-07 -.442E+03   0.200E-18 0.542E-19 -.303E-01   0.127E-09 -.859E-10 0.341E-01
   0.106E-02 -.184E-02 0.147E+03   0.595E-04 -.103E-03 -.147E+03   0.863E-19 -.271E-19 -.125E-01   0.522E-08 -.900E-08 0.227E-01
   -.131E-07 -.167E-08 -.443E+03   -.462E-07 0.546E-07 0.443E+03   -.128E-18 -.542E-19 0.258E-01   -.505E-10 0.146E-10 -.181E-01
   0.106E-02 -.184E-02 -.737E+03   0.593E-04 -.103E-03 0.737E+03   -.161E-18 -.682E-38 0.272E-01   0.354E-09 -.677E-09 -.242E-01
   -.300E-05 0.546E-06 -.132E+04   0.413E-05 -.331E-05 0.132E+04   0.534E-17 0.217E-18 -.107E+01   0.258E-09 -.300E-09 -.466E-02
   -.106E-02 0.184E-02 0.737E+03   -.593E-04 0.103E-03 -.737E+03   0.164E-18 0.755E-38 -.301E-01   0.179E-09 -.274E-09 0.320E-01
   -.106E-02 0.184E-02 -.148E+03   -.595E-04 0.103E-03 0.148E+03   -.812E-19 -.136E-19 0.143E-01   -.517E-08 0.898E-08 -.299E-03
   -.106E-02 0.184E-02 -.103E+04   -.593E-04 0.103E-03 0.103E+04   0.151E-19 0.402E-38 -.160E-01   0.118E-08 -.196E-08 -.138E-01
   -.125E-07 0.255E-07 0.295E+03   -.115E-07 0.125E-07 -.295E+03   -.179E-20 0.427E-39 -.170E-02   0.128E-09 -.221E-09 0.827E-02
   -.422E-08 -.958E-09 -.414E-01   0.164E-07 -.183E-07 0.383E-01   -.165E-20 0.136E-19 -.185E-02   0.108E-11 -.740E-11 0.401E-02
   0.122E-07 -.270E-07 -.295E+03   0.159E-07 -.173E-07 0.295E+03   -.214E-19 0.136E-19 0.119E-02   -.290E-09 0.515E-09 -.664E-02
   0.448E-04 -.775E-04 0.393E+03   -.505E-04 0.873E-04 -.393E+03   0.802E-18 -.173E-17 -.457E-01   -.266E-09 0.476E-09 0.256E-02
   0.448E-04 -.776E-04 0.983E+02   -.506E-04 0.877E-04 -.983E+02   0.379E-20 0.108E-39 -.432E-03   0.164E-09 -.328E-09 0.112E-01
   0.448E-04 -.776E-04 -.197E+03   -.505E-04 0.876E-04 0.197E+03   0.728E-20 0.678E-20 0.194E-02   -.288E-11 0.539E-10 -.835E-02
   0.325E-04 -.411E-04 -.469E+03   -.263E-04 0.283E-04 0.470E+03   0.344E-18 0.919E-37 -.366E+00   -.225E-09 0.358E-09 -.488E-03
   -.325E-04 0.412E-04 0.469E+03   0.263E-04 -.284E-04 -.470E+03   -.382E-17 -.930E-37 0.371E+00   0.157E-09 -.242E-09 -.410E-03
   -.448E-04 0.775E-04 0.197E+03   0.505E-04 -.875E-04 -.197E+03   0.277E-19 -.271E-19 -.427E-02   0.907E-10 -.213E-09 0.125E-01
   -.448E-04 0.776E-04 -.984E+02   0.506E-04 -.876E-04 0.984E+02   0.332E-20 0.887E-39 -.354E-02   -.171E-09 0.326E-09 -.434E-02
   -.448E-04 0.775E-04 -.393E+03   0.504E-04 -.873E-04 0.393E+03   -.805E-18 -.122E-37 0.487E-01   0.410E-09 -.709E-09 -.242E-02
   0.397E-10 0.230E-09 0.267E+00   -.219E-08 0.219E-08 -.260E+00   0.263E-20 0.136E-19 -.280E-02   -.712E-12 0.109E-11 -.516E-02
   -.274E-06 0.998E-08 0.498E+03   0.145E-05 -.139E-05 -.498E+03   0.479E-18 0.128E-36 -.510E+00   0.914E-12 -.170E-11 -.915E-03
   0.152E-04 -.262E-04 0.333E+03   -.422E-05 0.726E-05 -.332E+03   0.211E-18 -.997E-17 -.225E+00   0.490E-11 -.667E-11 -.169E-02
   -.151E-04 0.262E-04 0.167E+03   0.416E-05 -.722E-05 -.167E+03   0.601E-17 -.896E-38 0.357E-01   -.145E-11 0.585E-11 -.316E-02
   0.276E-06 -.104E-07 -.498E+03   -.146E-05 0.140E-05 0.497E+03   -.247E-16 0.139E-16 0.485E+00   0.279E-11 0.124E-11 -.300E-02
   0.151E-04 -.262E-04 -.166E+03   -.415E-05 0.721E-05 0.166E+03   0.538E-18 -.694E-17 -.386E-01   0.143E-11 -.569E-11 -.639E-02
   -.152E-04 0.262E-04 -.332E+03   0.422E-05 -.726E-05 0.332E+03   0.672E-17 -.651E-17 0.237E+00   0.162E-11 -.757E-11 -.570E-02
 -----------------------------------------------------------------------------------------------
   -.158E-07 -.127E-07 -.145E-01   -.107E-12 0.434E-15 0.682E-12   -.134E-16 -.137E-16 -.245E-01   0.101E-09 -.779E-10 0.394E-01
 
 
 POSITION                                       TOTAL-FORCE (eV/Angst)
 -----------------------------------------------------------------------------------
     -0.00000      0.00000     11.42694         0.000000     -0.000000     -0.017443
      0.86407      1.49661     13.87984         0.000000      0.000000     -0.006006
     -0.00000      0.00000     18.78749         0.000000     -0.000000     -0.015052
      0.86407      1.49661     21.23823         0.000000     -0.000000     -0.007050
     -0.00000      0.00000     26.13953        -0.000000     -0.000000      0.014541
      0.86407      1.49661     28.59188        -0.000000     -0.000000      0.017387
     -0.00000      0.00000     33.50022        -0.000000     -0.000000      0.018617
      1.72814     -0.00000     16.33490         0.000000      0.000000     -0.017906
      1.72814     -0.00000     23.68856        -0.000000      0.000000      0.010122
      1.72814     -0.00000     31.04663        -0.000000      0.000000      0.008529
     -0.00000      0.00000     15.10727        -0.000000     -0.000000      0.007469
     -0.00000      0.00000     22.46356         0.000000     -0.000000     -0.000952
     -0.00000      0.00000     29.81940         0.000000     -0.000000     -0.006053
      1.72814     -0.00000     12.65234        -0.000000     -0.000000      0.010796
      1.72814     -0.00000     20.01266        -0.000000     -0.000000      0.005685
      1.72814     -0.00000     27.36584         0.000000     -0.000000     -0.000069
      1.72814     -0.00000     34.77170        -0.000000     -0.000000      0.002579
      0.86407      1.49661     10.15627         0.000000     -0.000000     -0.004865
      0.86407      1.49661     17.56122         0.000000     -0.000000     -0.001105
      0.86407      1.49661     24.91456         0.000000     -0.000000     -0.008645
      0.86407      1.49661     32.27425         0.000000     -0.000000     -0.002915
     -0.00000      0.00000      1.04343         0.000000     -0.000000     -0.001309
     -0.00000      0.00000      7.74007         0.000000     -0.000000      0.000325
      1.72814     -0.00000      5.51362        -0.000000     -0.000000      0.002739
      0.86407      1.49661      3.28002         0.000000     -0.000000     -0.008501
     -0.00000      0.00000     37.19054         0.000000     -0.000000     -0.011538
      1.72814     -0.00000     41.65027        -0.000000     -0.000000      0.007614
      0.86407      1.49661     39.41581        -0.000000     -0.000000      0.003007
 -----------------------------------------------------------------------------------
    total drift:                               -0.000000     -0.000000      0.000329


--------------------------------------------------------------------------------------------------------



  FREE ENERGIE OF THE ION-ELECTRON SYSTEM (eV)
  ---------------------------------------------------
  free  energy   TOTEN  =      -145.83694955 eV

  energy  without entropy=     -145.83322722  energy(sigma->0) =     -145.83508839
 
 d Force = 0.3959978E-04[ 0.145E-04, 0.647E-04]  d Energy = 0.3285166E-04 0.675E-05
 d Force =-0.3189325E+01[-0.319E+01,-0.319E+01]  d Ewald  =-0.2383486E+01-0.806E+00


--------------------------------------------------------------------------------------------------------


    POTLOK:  cpu time    0.2674: real time    0.2677


--------------------------------------------------------------------------------------------------------


 stress matrix after NEB project (eV)
     -0.01272      0.00000      0.00000
      0.00000     -0.01272      0.00000
     -0.00000      0.00000      0.03683
  FORCES: max atom, RMS     0.018617    0.009657
  FORCE total and by dimension    0.051103    0.018617
  Stress total and by dimension    0.040991    0.036831


--------------------------------------------------------------------------------------------------------


  
 reached required accuracy - stopping structural energy minimisation
     LOOP+:  cpu time   30.1582: real time   30.1930
    4ORBIT:  cpu time    0.0000: real time    0.0000

 total amount of memory used by VASP MPI-rank0    79903. kBytes
=======================================================================

   base      :      30000. kBytes
   nonl-proj :      16240. kBytes
   fftplans  :      13858. kBytes
   grid      :       8483. kBytes
   one-center:         56. kBytes
   wavefun   :      11266. kBytes
 
  
  
 General timing and accounting informations for this job:
 ========================================================
  
                  Total CPU time used (sec):     2582.055
                            User time (sec):     2485.210
                          System time (sec):       96.845
                         Elapsed time (sec):     2585.107
  
                   Maximum memory used (kb):      174416.
                   Average memory used (kb):           0.
  
                          Minor page faults:      5424013
                          Major page faults:            0
                 Voluntary context switches:         1331
