       N       E                     dE             d eps       ncg     rms          rms(c)
DAV:   1     0.481658707402E+03    0.48166E+03   -0.40974E+04  2620   0.131E+03
DAV:   2    -0.875724036317E+02   -0.56923E+03   -0.53758E+03  3426   0.248E+02
DAV:   3    -0.146666511571E+03   -0.59094E+02   -0.58697E+02  3034   0.863E+01
DAV:   4    -0.147551601631E+03   -0.88509E+00   -0.88277E+00  3048   0.115E+01
DAV:   5    -0.147568554327E+03   -0.16953E-01   -0.16939E-01  3098   0.156E+00    0.220E+01
DAV:   6    -0.132414848070E+03    0.15154E+02   -0.85923E+01  2944   0.286E+01    0.748E+00
DAV:   7    -0.132288064222E+03    0.12678E+00   -0.17996E+00  2908   0.507E+00    0.453E+00
DAV:   8    -0.132201242224E+03    0.86822E-01   -0.47742E-01  3002   0.361E+00    0.798E-01
DAV:   9    -0.132170330614E+03    0.30912E-01   -0.99183E-02  2932   0.104E+00    0.402E-01
DAV:  10    -0.132171739970E+03   -0.14094E-02   -0.38069E-02  2916   0.725E-01    0.283E-01
DAV:  11    -0.132171337694E+03    0.40228E-03   -0.23627E-03  3066   0.265E-01    0.177E-01
DAV:  12    -0.132171341205E+03   -0.35113E-05   -0.24202E-03  3964   0.307E-01    0.518E-02
DAV:  13    -0.132171273285E+03    0.67920E-04   -0.71870E-04  2976   0.118E-01    0.309E-02
DAV:  14    -0.132171181274E+03    0.92011E-04   -0.20058E-04  2918   0.702E-02    0.184E-02
DAV:  15    -0.132171108391E+03    0.72883E-04   -0.46893E-05  2706   0.578E-02    0.170E-02
DAV:  16    -0.132170893496E+03    0.21489E-03   -0.15568E-04  3670   0.208E-01    0.150E-02
DAV:  17    -0.132170748571E+03    0.14493E-03   -0.27390E-04  3776   0.233E-01    0.214E-02
DAV:  18    -0.132170693075E+03    0.55496E-04   -0.29059E-04  3474   0.205E-01    0.154E-02
DAV:  19    -0.132170699629E+03   -0.65534E-05   -0.21275E-04  2888   0.795E-02    0.157E-02
DAV:  20    -0.132170698721E+03    0.90712E-06   -0.28388E-05  2290   0.213E-02
   1 F= -.13217070E+03 E0= -.13217013E+03  d E =-.132171E+03
       N       E                     dE             d eps       ncg     rms          rms(c)
DAV:   1    -0.132172572055E+03   -0.18724E-02   -0.22246E-02  2712   0.642E-01    0.276E-02
DAV:   2    -0.132172556797E+03    0.15258E-04   -0.83758E-04  3048   0.134E-01    0.262E-02
DAV:   3    -0.132172528837E+03    0.27960E-04   -0.71580E-05  2978   0.459E-02    0.197E-02
DAV:   4    -0.132172495582E+03    0.33255E-04   -0.54044E-05  2858   0.407E-02    0.897E-03
DAV:   5    -0.132172476773E+03    0.18809E-04   -0.25450E-05  2296   0.436E-02    0.817E-03
DAV:   6    -0.132172467648E+03    0.91246E-05   -0.28409E-05  2526   0.446E-02
   2 F= -.13217247E+03 E0= -.13217189E+03  d E =-.176893E-02
       N       E                     dE             d eps       ncg     rms          rms(c)
DAV:   1    -0.132173715395E+03   -0.12386E-02   -0.54004E-02  2672   0.100E+00    0.462E-02
DAV:   2    -0.132173691838E+03    0.23557E-04   -0.23085E-03  3072   0.220E-01    0.438E-02
DAV:   3    -0.132173623766E+03    0.68072E-04   -0.18746E-04  2986   0.702E-02    0.324E-02
DAV:   4    -0.132173536074E+03    0.87691E-04   -0.16737E-04  2952   0.672E-02    0.147E-02
DAV:   5    -0.132173487469E+03    0.48606E-04   -0.76088E-05  3038   0.694E-02    0.156E-02
DAV:   6    -0.132173463939E+03    0.23529E-04   -0.69720E-05  2854   0.630E-02    0.688E-03
DAV:   7    -0.132173460266E+03    0.36733E-05   -0.38779E-05  2558   0.313E-02
   3 F= -.13217346E+03 E0= -.13217284E+03  d E =-.276154E-02
       N       E                     dE             d eps       ncg     rms          rms(c)
DAV:   1    -0.132174546003E+03   -0.10821E-02   -0.11288E-01  2660   0.140E+00    0.434E-02
DAV:   2    -0.132174753607E+03   -0.20760E-03   -0.25039E-03  2916   0.193E-01    0.250E-02
DAV:   3    -0.132174736010E+03    0.17596E-04   -0.38342E-05  2928   0.358E-02    0.168E-02
DAV:   4    -0.132174719101E+03    0.16910E-04   -0.19779E-05  2114   0.370E-02    0.679E-03
DAV:   5    -0.132174711878E+03    0.72222E-05   -0.18505E-05  1952   0.336E-02    0.490E-03
DAV:   6    -0.132174708509E+03    0.33693E-05   -0.12747E-05  1600   0.215E-02
   4 F= -.13217471E+03 E0= -.13217406E+03  d E =-.124824E-02
       N       E                     dE             d eps       ncg     rms          rms(c)
DAV:   1    -0.132175700969E+03   -0.98909E-03   -0.10146E+00  2636   0.421E+00    0.128E-01
DAV:   2    -0.132177590281E+03   -0.18893E-02   -0.22349E-02  2916   0.576E-01    0.750E-02
DAV:   3    -0.132177437872E+03    0.15241E-03   -0.30277E-04  3048   0.107E-01    0.498E-02
DAV:   4    -0.132177297356E+03    0.14052E-03   -0.20641E-04  3006   0.119E-01    0.183E-02
DAV:   5    -0.132177257738E+03    0.39618E-04   -0.16281E-04  2996   0.880E-02    0.130E-02
DAV:   6    -0.132177222483E+03    0.35255E-04   -0.44435E-05  2574   0.614E-02    0.837E-03
DAV:   7    -0.132177186410E+03    0.36073E-04   -0.93525E-06  1910   0.616E-02    0.733E-03
DAV:   8    -0.132177152244E+03    0.34166E-04   -0.18711E-05  2128   0.656E-02    0.580E-03
DAV:   9    -0.132177094688E+03    0.57556E-04   -0.43326E-05  2850   0.131E-01    0.422E-03
DAV:  10    -0.132177051645E+03    0.43043E-04   -0.10248E-04  3452   0.169E-01    0.609E-03
DAV:  11    -0.132177053955E+03   -0.23098E-05   -0.13781E-04  2768   0.777E-02    0.504E-03
DAV:  12    -0.132177057096E+03   -0.31410E-05   -0.48463E-05  2452   0.263E-02
   5 F= -.13217706E+03 E0= -.13217628E+03  d E =-.359683E-02
       N       E                     dE             d eps       ncg     rms          rms(c)
DAV:   1    -0.132169737731E+03    0.73162E-02   -0.40624E+00  2612   0.847E+00    0.257E-01
DAV:   2    -0.132177341109E+03   -0.76034E-02   -0.89388E-02  2910   0.116E+00    0.156E-01
DAV:   3    -0.132176750865E+03    0.59024E-03   -0.11563E-03  3064   0.205E-01    0.103E-01
DAV:   4    -0.132176272865E+03    0.47800E-03   -0.99984E-04  3008   0.232E-01    0.366E-02
DAV:   5    -0.132176207258E+03    0.65607E-04   -0.61824E-04  2932   0.139E-01    0.271E-02
DAV:   6    -0.132176133358E+03    0.73900E-04   -0.10702E-04  2886   0.687E-02    0.148E-02
DAV:   7    -0.132176044418E+03    0.88940E-04   -0.27865E-05  2408   0.858E-02    0.109E-02
DAV:   8    -0.132175959206E+03    0.85212E-04   -0.52989E-05  2972   0.981E-02    0.870E-03
DAV:   9    -0.132175858893E+03    0.10031E-03   -0.56747E-05  2874   0.133E-01    0.727E-03
DAV:  10    -0.132175732702E+03    0.12619E-03   -0.16584E-04  3692   0.238E-01    0.100E-02
DAV:  11    -0.132175707374E+03    0.25328E-04   -0.24822E-04  3102   0.162E-01    0.966E-03
DAV:  12    -0.132175719805E+03   -0.12431E-04   -0.21818E-04  2782   0.558E-02    0.150E-02
DAV:  13    -0.132175722957E+03   -0.31518E-05   -0.96105E-06  1610   0.148E-02
   6 F= -.13217572E+03 E0= -.13217451E+03  d E =-.226269E-02
       N       E                     dE             d eps       ncg     rms          rms(c)
DAV:   1    -0.132174941034E+03    0.77877E-03   -0.18625E+00  2612   0.568E+00    0.172E-01
DAV:   2    -0.132178240609E+03   -0.32996E-02   -0.39496E-02  2902   0.777E-01    0.987E-02
DAV:   3    -0.132177985453E+03    0.25516E-03   -0.65508E-04  3056   0.140E-01    0.665E-02
DAV:   4    -0.132177780320E+03    0.20513E-03   -0.30033E-04  2990   0.119E-01    0.297E-02
DAV:   5    -0.132177695405E+03    0.84915E-04   -0.20473E-04  3066   0.112E-01    0.167E-02
DAV:   6    -0.132177657764E+03    0.37640E-04   -0.14405E-04  2920   0.888E-02    0.121E-02
DAV:   7    -0.132177633855E+03    0.23909E-04   -0.41668E-05  2502   0.518E-02    0.119E-02
DAV:   8    -0.132177597643E+03    0.36212E-04   -0.13144E-05  1996   0.573E-02    0.643E-03
DAV:   9    -0.132177560719E+03    0.36924E-04   -0.44385E-05  2968   0.782E-02    0.777E-03
DAV:  10    -0.132177534518E+03    0.26202E-04   -0.25989E-05  2364   0.813E-02    0.952E-03
DAV:  11    -0.132177514816E+03    0.19701E-04   -0.76409E-05  3074   0.107E-01    0.725E-03
DAV:  12    -0.132177514992E+03   -0.17537E-06   -0.67768E-05  2656   0.537E-02
   7 F= -.13217751E+03 E0= -.13217662E+03  d E =-.405473E-02
       N       E                     dE             d eps       ncg     rms          rms(c)
DAV:   1    -0.132178318841E+03   -0.80403E-03   -0.12662E-01  2696   0.149E+00    0.447E-02
DAV:   2    -0.132178555625E+03   -0.23678E-03   -0.26755E-03  2856   0.201E-01    0.246E-02
DAV:   3    -0.132178539794E+03    0.15831E-04   -0.29133E-05  2512   0.267E-02    0.171E-02
DAV:   4    -0.132178524008E+03    0.15786E-04   -0.30943E-05  2510   0.348E-02    0.646E-03
DAV:   5    -0.132178519296E+03    0.47120E-05   -0.14618E-05  1954   0.195E-02    0.494E-03
DAV:   6    -0.132178514171E+03    0.51246E-05   -0.36927E-06  1708   0.136E-02
   8 F= -.13217851E+03 E0= -.13217756E+03  d E =-.999180E-03
       N       E                     dE             d eps       ncg     rms          rms(c)
DAV:   1    -0.132179186118E+03   -0.66682E-03   -0.11379E+00  2676   0.448E+00    0.129E-01
DAV:   2    -0.132181340808E+03   -0.21547E-02   -0.23781E-02  2838   0.600E-01    0.742E-02
DAV:   3    -0.132181210215E+03    0.13059E-03   -0.22582E-04  3080   0.712E-02    0.505E-02
DAV:   4    -0.132181087147E+03    0.12307E-03   -0.27923E-04  2972   0.959E-02    0.166E-02
DAV:   5    -0.132181070580E+03    0.16567E-04   -0.11152E-04  2872   0.502E-02    0.131E-02
DAV:   6    -0.132181050377E+03    0.20203E-04   -0.19071E-05  1950   0.273E-02    0.642E-03
DAV:   7    -0.132181014819E+03    0.35558E-04   -0.11150E-05  2088   0.502E-02    0.675E-03
DAV:   8    -0.132180976630E+03    0.38190E-04   -0.20428E-05  2296   0.643E-02    0.934E-03
DAV:   9    -0.132180942749E+03    0.33880E-04   -0.37576E-05  2732   0.722E-02    0.705E-03
DAV:  10    -0.132180900425E+03    0.42325E-04   -0.52306E-05  2910   0.123E-01    0.116E-02
DAV:  11    -0.132180885349E+03    0.15076E-04   -0.66228E-05  2982   0.882E-02    0.909E-03
DAV:  12    -0.132180888614E+03   -0.32654E-05   -0.76034E-05  2646   0.400E-02
   9 F= -.13218089E+03 E0= -.13217977E+03  d E =-.337362E-02
       N       E                     dE             d eps       ncg     rms          rms(c)
DAV:   1    -0.132175591504E+03    0.52938E-02   -0.45520E+00  2696   0.900E+00    0.262E-01
DAV:   2    -0.132184498870E+03   -0.89074E-02   -0.97914E-02  2844   0.121E+00    0.151E-01
DAV:   3    -0.132183995603E+03    0.50327E-03   -0.96615E-04  3080   0.145E-01    0.102E-01
DAV:   4    -0.132183591925E+03    0.40368E-03   -0.98893E-04  3012   0.173E-01    0.342E-02
DAV:   5    -0.132183547749E+03    0.44176E-04   -0.38234E-04  2912   0.899E-02    0.241E-02
DAV:   6    -0.132183494811E+03    0.52938E-04   -0.78992E-05  2916   0.507E-02    0.120E-02
DAV:   7    -0.132183426154E+03    0.68657E-04   -0.20042E-05  2258   0.664E-02    0.979E-03
DAV:   8    -0.132183344019E+03    0.82135E-04   -0.37586E-05  2666   0.883E-02    0.112E-02
DAV:   9    -0.132183264212E+03    0.79807E-04   -0.69691E-05  3130   0.103E-01    0.112E-02
DAV:  10    -0.132183131675E+03    0.13254E-03   -0.14967E-04  3430   0.222E-01    0.120E-02
DAV:  11    -0.132183118229E+03    0.13447E-04   -0.18654E-04  2856   0.967E-02    0.977E-03
DAV:  12    -0.132183123718E+03   -0.54891E-05   -0.13053E-04  2670   0.633E-02    0.143E-02
DAV:  13    -0.132183116492E+03    0.72260E-05   -0.28569E-05  2344   0.417E-02
  10 F= -.13218312E+03 E0= -.13218157E+03  d E =-.560150E-02
       N       E                     dE             d eps       ncg     rms          rms(c)
DAV:   1    -0.132184758209E+03   -0.16345E-02   -0.31392E-01  2618   0.238E+00    0.738E-02
DAV:   2    -0.132185339027E+03   -0.58082E-03   -0.67440E-03  2932   0.331E-01    0.398E-02
DAV:   3    -0.132185307187E+03    0.31840E-04   -0.12155E-04  3074   0.544E-02    0.294E-02
DAV:   4    -0.132185280851E+03    0.26336E-04   -0.10154E-04  2930   0.537E-02    0.131E-02
DAV:   5    -0.132185275216E+03    0.56345E-05   -0.31540E-05  2626   0.375E-02    0.132E-02
DAV:   6    -0.132185270667E+03    0.45492E-05   -0.24319E-05  2080   0.300E-02
  11 F= -.13218527E+03 E0= -.13218359E+03  d E =-.215418E-02
       N       E                     dE             d eps       ncg     rms          rms(c)
DAV:   1    -0.132184606782E+03    0.66843E-03   -0.28288E+00  2612   0.715E+00    0.218E-01
DAV:   2    -0.132189916232E+03   -0.53094E-02   -0.61026E-02  2938   0.988E-01    0.125E-01
DAV:   3    -0.132189591809E+03    0.32442E-03   -0.10155E-03  3096   0.165E-01    0.903E-02
DAV:   4    -0.132189316530E+03    0.27528E-03   -0.11061E-03  3018   0.182E-01    0.404E-02
DAV:   5    -0.132189264556E+03    0.51974E-04   -0.32331E-04  3044   0.115E-01    0.416E-02
DAV:   6    -0.132189220179E+03    0.44377E-04   -0.22129E-04  2874   0.835E-02    0.172E-02
DAV:   7    -0.132189186180E+03    0.33999E-04   -0.48382E-05  2750   0.672E-02    0.112E-02
DAV:   8    -0.132189156647E+03    0.29532E-04   -0.32176E-05  2490   0.673E-02    0.109E-02
DAV:   9    -0.132189140610E+03    0.16038E-04   -0.28198E-05  2436   0.445E-02    0.906E-03
DAV:  10    -0.132189116040E+03    0.24570E-04   -0.11301E-05  1960   0.577E-02    0.396E-03
DAV:  11    -0.132189094408E+03    0.21632E-04   -0.47656E-05  2922   0.865E-02    0.109E-02
DAV:  12    -0.132189086415E+03    0.79935E-05   -0.36778E-05  2658   0.567E-02
  12 F= -.13218909E+03 E0= -.13218698E+03  d E =-.596992E-02
       N       E                     dE             d eps       ncg     rms          rms(c)
DAV:   1    -0.132188563018E+03    0.53139E-03   -0.59631E-01  2624   0.329E+00    0.100E-01
DAV:   2    -0.132189700766E+03   -0.11377E-02   -0.13082E-02  2938   0.459E-01    0.585E-02
DAV:   3    -0.132189632775E+03    0.67991E-04   -0.21103E-04  3074   0.733E-02    0.425E-02
DAV:   4    -0.132189577572E+03    0.55203E-04   -0.27856E-04  2948   0.855E-02    0.200E-02
DAV:   5    -0.132189568748E+03    0.88234E-05   -0.65586E-05  2812   0.477E-02    0.209E-02
DAV:   6    -0.132189559584E+03    0.91641E-05   -0.38099E-05  2396   0.329E-02
  13 F= -.13218956E+03 E0= -.13218728E+03  d E =-.644309E-02
       N       E                     dE             d eps       ncg     rms          rms(c)
DAV:   1    -0.132190879070E+03   -0.13103E-02   -0.30441E-01  2648   0.236E+00    0.712E-02
DAV:   2    -0.132191462339E+03   -0.58327E-03   -0.64659E-03  2922   0.320E-01    0.381E-02
DAV:   3    -0.132191433662E+03    0.28677E-04   -0.85407E-05  3098   0.459E-02    0.263E-02
DAV:   4    -0.132191413651E+03    0.20012E-04   -0.12196E-04  2938   0.580E-02    0.132E-02
DAV:   5    -0.132191412261E+03    0.13895E-05   -0.28706E-05  2278   0.278E-02    0.135E-02
DAV:   6    -0.132191409179E+03    0.30818E-05   -0.11729E-05  1570   0.177E-02
  14 F= -.13219141E+03 E0= -.13218902E+03  d E =-.184960E-02
       N       E                     dE             d eps       ncg     rms          rms(c)
DAV:   1    -0.132191161059E+03    0.25120E-03   -0.27396E+00  2636   0.708E+00    0.208E-01
DAV:   2    -0.132196350748E+03   -0.51897E-02   -0.57678E-02  2936   0.958E-01    0.115E-01
DAV:   3    -0.132196088632E+03    0.26212E-03   -0.76612E-04  3122   0.138E-01    0.792E-02
DAV:   4    -0.132195892942E+03    0.19569E-03   -0.91390E-04  3074   0.170E-01    0.340E-02
DAV:   5    -0.132195888512E+03    0.44299E-05   -0.29259E-04  2878   0.859E-02    0.357E-02
DAV:   6    -0.132195872676E+03    0.15836E-04   -0.78339E-05  2708   0.410E-02    0.205E-02
DAV:   7    -0.132195846788E+03    0.25888E-04   -0.31946E-05  2552   0.500E-02    0.883E-03
DAV:   8    -0.132195836553E+03    0.10235E-04   -0.36130E-05  2568   0.433E-02    0.948E-03
DAV:   9    -0.132195827654E+03    0.88992E-05   -0.18442E-05  1998   0.346E-02
  15 F= -.13219583E+03 E0= -.13219318E+03  d E =-.626807E-02
       N       E                     dE             d eps       ncg     rms          rms(c)
DAV:   1    -0.132180756290E+03    0.15080E-01   -0.10956E+01  2636   0.142E+01    0.417E-01
DAV:   2    -0.132201517858E+03   -0.20762E-01   -0.23234E-01  2942   0.194E+00    0.235E-01
DAV:   3    -0.132200425945E+03    0.10919E-02   -0.31707E-03  3092   0.276E-01    0.158E-01
DAV:   4    -0.132199603803E+03    0.82214E-03   -0.30997E-03  3080   0.331E-01    0.621E-02
DAV:   5    -0.132199581280E+03    0.22523E-04   -0.11963E-03  2984   0.180E-01    0.644E-02
DAV:   6    -0.132199519353E+03    0.61927E-04   -0.31527E-04  2902   0.862E-02    0.364E-02
DAV:   7    -0.132199440860E+03    0.78493E-04   -0.81522E-05  2964   0.795E-02    0.171E-02
DAV:   8    -0.132199384279E+03    0.56582E-04   -0.69413E-05  3084   0.922E-02    0.143E-02
DAV:   9    -0.132199329972E+03    0.54306E-04   -0.70072E-05  3400   0.108E-01    0.137E-02
DAV:  10    -0.132199280849E+03    0.49123E-04   -0.63091E-05  3112   0.107E-01    0.131E-02
DAV:  11    -0.132199233067E+03    0.47782E-04   -0.67562E-05  2888   0.976E-02    0.142E-02
DAV:  12    -0.132199200482E+03    0.32585E-04   -0.50746E-05  2902   0.118E-01    0.160E-02
DAV:  13    -0.132199187440E+03    0.13042E-04   -0.75742E-05  3054   0.963E-02    0.852E-03
DAV:  14    -0.132199193548E+03   -0.61079E-05   -0.88915E-05  2642   0.340E-02
  16 F= -.13219919E+03 E0= -.13219647E+03  d E =-.963396E-02
       N       E                     dE             d eps       ncg     rms          rms(c)
DAV:   1    -0.132199972518E+03   -0.78508E-03   -0.12240E+00  2652   0.477E+00    0.136E-01
DAV:   2    -0.132202342912E+03   -0.23704E-02   -0.25551E-02  2856   0.641E-01    0.737E-02
DAV:   3    -0.132202239289E+03    0.10362E-03   -0.27337E-04  3146   0.736E-02    0.495E-02
DAV:   4    -0.132202164101E+03    0.75189E-04   -0.27480E-04  3046   0.987E-02    0.152E-02
DAV:   5    -0.132202170643E+03   -0.65427E-05   -0.11133E-04  2792   0.432E-02    0.172E-02
DAV:   6    -0.132202167041E+03    0.36021E-05   -0.12387E-05  1560   0.161E-02
  17 F= -.13220217E+03 E0= -.13219952E+03  d E =-.297349E-02
       N       E                     dE             d eps       ncg     rms          rms(c)
DAV:   1    -0.132189729660E+03    0.12441E-01   -0.11014E+01  2652   0.143E+01    0.411E-01
DAV:   2    -0.132211535386E+03   -0.21806E-01   -0.23463E-01  2850   0.193E+00    0.232E-01
DAV:   3    -0.132210486946E+03    0.10484E-02   -0.24946E-03  3132   0.225E-01    0.152E-01
DAV:   4    -0.132209676511E+03    0.81044E-03   -0.23244E-03  3092   0.301E-01    0.459E-02
DAV:   5    -0.132209694938E+03   -0.18427E-04   -0.11397E-03  2966   0.144E-01    0.461E-02
DAV:   6    -0.132209646624E+03    0.48314E-04   -0.10520E-04  2910   0.460E-02    0.261E-02
DAV:   7    -0.132209574501E+03    0.72123E-04   -0.75077E-05  2926   0.519E-02    0.165E-02
DAV:   8    -0.132209507976E+03    0.66525E-04   -0.22668E-05  2488   0.704E-02    0.199E-02
DAV:   9    -0.132209434372E+03    0.73604E-04   -0.52857E-05  2818   0.921E-02    0.126E-02
DAV:  10    -0.132209319101E+03    0.11527E-03   -0.84916E-05  3588   0.155E-01    0.114E-02
DAV:  11    -0.132209214897E+03    0.10420E-03   -0.11805E-04  3364   0.175E-01    0.127E-02
DAV:  12    -0.132209170446E+03    0.44452E-04   -0.14665E-04  3154   0.158E-01    0.108E-02
DAV:  13    -0.132209176938E+03   -0.64922E-05   -0.18555E-04  2910   0.902E-02    0.593E-03
DAV:  14    -0.132209180733E+03   -0.37955E-05   -0.49284E-05  2460   0.262E-02
  18 F= -.13220918E+03 E0= -.13220671E+03  d E =-.998719E-02
       N       E                     dE             d eps       ncg     rms          rms(c)
DAV:   1    -0.132133126742E+03    0.76050E-01   -0.44006E+01  2652   0.286E+01    0.852E-01
DAV:   2    -0.132224094556E+03   -0.90968E-01   -0.98426E-01  2838   0.393E+00    0.512E-01
DAV:   3    -0.132219202263E+03    0.48923E-02   -0.12626E-02  3052   0.481E-01    0.320E-01
DAV:   4    -0.132216060846E+03    0.31414E-02   -0.75027E-03  3076   0.504E-01    0.119E-01
DAV:   5    -0.132215852031E+03    0.20881E-03   -0.39358E-03  2990   0.277E-01    0.746E-02
DAV:   6    -0.132215683280E+03    0.16875E-03   -0.42580E-04  2970   0.106E-01    0.405E-02
DAV:   7    -0.132215486448E+03    0.19683E-03   -0.73943E-05  3070   0.893E-02    0.223E-02
DAV:   8    -0.132215260564E+03    0.22588E-03   -0.59898E-05  3036   0.122E-01    0.183E-02
DAV:   9    -0.132214963190E+03    0.29737E-03   -0.13239E-04  3652   0.183E-01    0.185E-02
DAV:  10    -0.132214480220E+03    0.48297E-03   -0.34690E-04  3872   0.342E-01    0.161E-02
DAV:  11    -0.132214174900E+03    0.30532E-03   -0.83180E-04  3352   0.422E-01    0.183E-02
DAV:  12    -0.132214249461E+03   -0.74561E-04   -0.10755E-03  2900   0.142E-01    0.157E-02
DAV:  13    -0.132214255612E+03   -0.61517E-05   -0.11497E-04  2616   0.389E-02    0.206E-02
DAV:  14    -0.132214253571E+03    0.20412E-05   -0.44143E-06  1572   0.912E-03
  19 F= -.13221425E+03 E0= -.13221127E+03  d E =-.150600E-01
       N       E                     dE             d eps       ncg     rms          rms(c)
DAV:   1    -0.132215672312E+03   -0.14167E-02   -0.16137E+00  2628   0.548E+00    0.163E-01
DAV:   2    -0.132218848773E+03   -0.31765E-02   -0.34617E-02  2906   0.735E-01    0.853E-02
DAV:   3    -0.132218720917E+03    0.12786E-03   -0.44064E-04  3148   0.910E-02    0.563E-02
DAV:   4    -0.132218641702E+03    0.79215E-04   -0.19212E-04  3092   0.768E-02    0.248E-02
DAV:   5    -0.132218633319E+03    0.83829E-05   -0.12666E-04  2964   0.557E-02    0.155E-02
DAV:   6    -0.132218631940E+03    0.13789E-05   -0.31123E-05  2298   0.267E-02
  20 F= -.13221863E+03 E0= -.13221566E+03  d E =-.437837E-02
       N       E                     dE             d eps       ncg     rms          rms(c)
DAV:   1    -0.132203080152E+03    0.15553E-01   -0.14551E+01  2628   0.164E+01    0.502E-01
DAV:   2    -0.132232396626E+03   -0.29316E-01   -0.32064E-01  2912   0.223E+00    0.272E-01
DAV:   3    -0.132231099202E+03    0.12974E-02   -0.42626E-03  3128   0.283E-01    0.174E-01
DAV:   4    -0.132230314231E+03    0.78497E-03   -0.18174E-03  3062   0.236E-01    0.719E-02
DAV:   5    -0.132230269182E+03    0.45049E-04   -0.11100E-03  2974   0.158E-01    0.437E-02
DAV:   6    -0.132230257142E+03    0.12040E-04   -0.24105E-04  2906   0.752E-02    0.299E-02
DAV:   7    -0.132230236423E+03    0.20719E-04   -0.34137E-05  2780   0.429E-02    0.156E-02
DAV:   8    -0.132230215546E+03    0.20877E-04   -0.98639E-06  1986   0.511E-02    0.857E-03
DAV:   9    -0.132230197025E+03    0.18521E-04   -0.24449E-05  2482   0.623E-02    0.479E-03
DAV:  10    -0.132230185184E+03    0.11841E-04   -0.16170E-05  2076   0.542E-02    0.492E-03
DAV:  11    -0.132230173940E+03    0.11243E-04   -0.10205E-05  2148   0.683E-02    0.498E-03
DAV:  12    -0.132230173171E+03    0.76896E-06   -0.32427E-05  2518   0.421E-02
  21 F= -.13223017E+03 E0= -.13222758E+03  d E =-.159196E-01
       N       E                     dE             d eps       ncg     rms          rms(c)
DAV:   1    -0.132129515662E+03    0.10066E+00   -0.58145E+01  2624   0.328E+01    0.104E+00
DAV:   2    -0.132253383604E+03   -0.12387E+00   -0.13603E+00  2904   0.456E+00    0.612E-01
DAV:   3    -0.132247016163E+03    0.63674E-02   -0.20040E-02  3034   0.609E-01    0.368E-01
DAV:   4    -0.132243641544E+03    0.33746E-02   -0.75435E-03  3020   0.445E-01    0.152E-01
DAV:   5    -0.132243427875E+03    0.21367E-03   -0.38121E-03  2984   0.290E-01    0.739E-02
DAV:   6    -0.132243412688E+03    0.15187E-04   -0.70294E-04  3094   0.139E-01    0.521E-02
DAV:   7    -0.132243358460E+03    0.54228E-04   -0.69604E-05  2968   0.692E-02    0.284E-02
DAV:   8    -0.132243290961E+03    0.67499E-04   -0.42827E-05  2864   0.883E-02    0.103E-02
DAV:   9    -0.132243244905E+03    0.46057E-04   -0.51886E-05  3030   0.884E-02    0.727E-03
DAV:  10    -0.132243212009E+03    0.32895E-04   -0.33426E-05  2670   0.849E-02    0.582E-03
DAV:  11    -0.132243179472E+03    0.32537E-04   -0.38895E-05  2908   0.122E-01    0.454E-03
DAV:  12    -0.132243178500E+03    0.97242E-06   -0.89633E-05  2786   0.667E-02
  22 F= -.13224318E+03 E0= -.13224077E+03  d E =-.289249E-01
       N       E                     dE             d eps       ncg     rms          rms(c)
DAV:   1    -0.132249224383E+03   -0.60449E-02   -0.25146E+00  2604   0.692E+00    0.220E-01
DAV:   2    -0.132253906749E+03   -0.46824E-02   -0.54502E-02  2926   0.950E-01    0.118E-01
DAV:   3    -0.132253632260E+03    0.27449E-03   -0.94335E-04  3122   0.154E-01    0.775E-02
DAV:   4    -0.132253447720E+03    0.18454E-03   -0.50075E-04  3038   0.130E-01    0.386E-02
DAV:   5    -0.132253371816E+03    0.75904E-04   -0.17534E-04  3148   0.950E-02    0.245E-02
DAV:   6    -0.132253307621E+03    0.64195E-04   -0.13118E-04  3274   0.964E-02    0.147E-02
DAV:   7    -0.132253270912E+03    0.36709E-04   -0.66438E-05  2874   0.617E-02    0.154E-02
DAV:   8    -0.132253207180E+03    0.63732E-04   -0.25521E-05  2338   0.696E-02    0.664E-03
DAV:   9    -0.132253145810E+03    0.61371E-04   -0.66019E-05  3088   0.100E-01    0.146E-02
DAV:  10    -0.132253094321E+03    0.51489E-04   -0.97594E-05  3380   0.133E-01    0.752E-03
DAV:  11    -0.132253074190E+03    0.20131E-04   -0.11630E-04  3372   0.133E-01    0.174E-02
DAV:  12    -0.132253067799E+03    0.63916E-05   -0.90574E-05  2812   0.488E-02
  23 F= -.13225307E+03 E0= -.13225062E+03  d E =-.988930E-02
       N       E                     dE             d eps       ncg     rms          rms(c)
DAV:   1    -0.132240786308E+03    0.12288E-01   -0.13649E+01  2604   0.161E+01    0.519E-01
DAV:   2    -0.132266617577E+03   -0.25831E-01   -0.30007E-01  2912   0.223E+00    0.283E-01
DAV:   3    -0.132265146755E+03    0.14708E-02   -0.53882E-03  3104   0.365E-01    0.183E-01
DAV:   4    -0.132264115688E+03    0.10311E-02   -0.27891E-03  3040   0.306E-01    0.895E-02
DAV:   5    -0.132263742520E+03    0.37317E-03   -0.92280E-04  3224   0.226E-01    0.585E-02
DAV:   6    -0.132263393454E+03    0.34907E-03   -0.70737E-04  3704   0.237E-01    0.338E-02
DAV:   7    -0.132263216124E+03    0.17733E-03   -0.41826E-04  2952   0.146E-01    0.364E-02
DAV:   8    -0.132262894427E+03    0.32170E-03   -0.21279E-04  3222   0.151E-01    0.186E-02
DAV:   9    -0.132262554185E+03    0.34024E-03   -0.27545E-04  3448   0.234E-01    0.390E-02
DAV:  10    -0.132262307634E+03    0.24655E-03   -0.59671E-04  3892   0.273E-01    0.178E-02
DAV:  11    -0.132262159062E+03    0.14857E-03   -0.43472E-04  3754   0.285E-01    0.347E-02
DAV:  12    -0.132262074348E+03    0.84714E-04   -0.31266E-04  3006   0.184E-01    0.146E-02
DAV:  13    -0.132262080439E+03   -0.60904E-05   -0.24777E-04  2854   0.689E-02    0.164E-02
DAV:  14    -0.132262071257E+03    0.91816E-05   -0.15952E-05  1902   0.271E-02
  24 F= -.13226207E+03 E0= -.13225940E+03  d E =-.188928E-01
       N       E                     dE             d eps       ncg     rms          rms(c)
DAV:   1    -0.132258339676E+03    0.37408E-02   -0.70199E+00  2676   0.115E+01    0.354E-01
DAV:   2    -0.132271867207E+03   -0.13528E-01   -0.15007E-01  2912   0.157E+00    0.200E-01
DAV:   3    -0.132271034248E+03    0.83296E-03   -0.18219E-03  3092   0.215E-01    0.131E-01
DAV:   4    -0.132270443713E+03    0.59053E-03   -0.22007E-03  3102   0.286E-01    0.528E-02
DAV:   5    -0.132270440900E+03    0.28129E-05   -0.79183E-04  2950   0.128E-01    0.449E-02
DAV:   6    -0.132270393282E+03    0.47618E-04   -0.14715E-04  2798   0.598E-02    0.242E-02
DAV:   7    -0.132270343354E+03    0.49928E-04   -0.36177E-05  2728   0.583E-02    0.148E-02
DAV:   8    -0.132270285968E+03    0.57386E-04   -0.17844E-05  2254   0.745E-02    0.111E-02
DAV:   9    -0.132270231705E+03    0.54262E-04   -0.44481E-05  2748   0.825E-02    0.688E-03
DAV:  10    -0.132270116658E+03    0.11505E-03   -0.11840E-04  3800   0.209E-01    0.129E-02
DAV:  11    -0.132270085745E+03    0.30913E-04   -0.15384E-04  3052   0.124E-01    0.125E-02
DAV:  12    -0.132270089183E+03   -0.34374E-05   -0.13213E-04  2734   0.511E-02    0.641E-03
DAV:  13    -0.132270085879E+03    0.33035E-05   -0.92137E-06  1734   0.211E-02
  25 F= -.13227009E+03 E0= -.13226736E+03  d E =-.801462E-02
       N       E                     dE             d eps       ncg     rms          rms(c)
DAV:   1    -0.132266396306E+03    0.36929E-02   -0.31754E+00  2652   0.771E+00    0.237E-01
DAV:   2    -0.132272488501E+03   -0.60922E-02   -0.67454E-02  2904   0.105E+00    0.134E-01
DAV:   3    -0.132272116195E+03    0.37231E-03   -0.78924E-04  3110   0.142E-01    0.878E-02
DAV:   4    -0.132271840467E+03    0.27573E-03   -0.10193E-03  3056   0.198E-01    0.348E-02
DAV:   5    -0.132271842917E+03   -0.24494E-05   -0.38883E-04  2878   0.889E-02    0.309E-02
DAV:   6    -0.132271822548E+03    0.20369E-04   -0.58538E-05  2702   0.362E-02    0.179E-02
DAV:   7    -0.132271796288E+03    0.26259E-04   -0.10786E-05  1778   0.357E-02    0.914E-03
DAV:   8    -0.132271761820E+03    0.34468E-04   -0.19575E-05  2248   0.596E-02    0.102E-02
DAV:   9    -0.132271735544E+03    0.26277E-04   -0.22256E-05  2272   0.555E-02    0.694E-03
DAV:  10    -0.132271686416E+03    0.49128E-04   -0.54149E-05  3208   0.115E-01    0.110E-02
DAV:  11    -0.132271644039E+03    0.42377E-04   -0.86854E-05  3444   0.151E-01    0.175E-02
DAV:  12    -0.132271636070E+03    0.79692E-05   -0.11406E-04  2732   0.761E-02    0.887E-03
DAV:  13    -0.132271639187E+03   -0.31168E-05   -0.55794E-05  2574   0.287E-02
  26 F= -.13227164E+03 E0= -.13226893E+03  d E =-.956793E-02
       N       E                     dE             d eps       ncg     rms          rms(c)
DAV:   1    -0.132273825727E+03   -0.21897E-02   -0.19487E-01  2820   0.191E+00    0.743E-02
DAV:   2    -0.132274114614E+03   -0.28889E-03   -0.44750E-03  2924   0.287E-01    0.453E-02
DAV:   3    -0.132274058465E+03    0.56149E-04   -0.12557E-04  3060   0.629E-02    0.313E-02
DAV:   4    -0.132274007363E+03    0.51102E-04   -0.76212E-05  2802   0.594E-02    0.187E-02
DAV:   5    -0.132273979509E+03    0.27854E-04   -0.49296E-05  2866   0.529E-02    0.112E-02
DAV:   6    -0.132273960860E+03    0.18650E-04   -0.20574E-05  2196   0.428E-02    0.612E-03
DAV:   7    -0.132273943563E+03    0.17297E-04   -0.11036E-05  1984   0.457E-02    0.534E-03
DAV:   8    -0.132273925955E+03    0.17607E-04   -0.18945E-05  2228   0.590E-02    0.391E-03
DAV:   9    -0.132273916089E+03    0.98664E-05   -0.23940E-05  2450   0.551E-02
  27 F= -.13227392E+03 E0= -.13227124E+03  d E =-.227690E-02
       N       E                     dE             d eps       ncg     rms          rms(c)
DAV:   1    -0.132274853361E+03   -0.92741E-03   -0.40139E-01  2856   0.275E+00    0.106E-01
DAV:   2    -0.132275465070E+03   -0.61171E-03   -0.93645E-03  2930   0.417E-01    0.650E-02
DAV:   3    -0.132275347346E+03    0.11772E-03   -0.24794E-04  3052   0.868E-02    0.451E-02
DAV:   4    -0.132275232526E+03    0.11482E-03   -0.16421E-04  2922   0.868E-02    0.263E-02
DAV:   5    -0.132275174309E+03    0.58216E-04   -0.10337E-04  2972   0.748E-02    0.163E-02
DAV:   6    -0.132275131422E+03    0.42888E-04   -0.45604E-05  2814   0.637E-02    0.935E-03
DAV:   7    -0.132275089534E+03    0.41888E-04   -0.20294E-05  2226   0.677E-02    0.785E-03
DAV:   8    -0.132275033227E+03    0.56307E-04   -0.62819E-05  3102   0.112E-01    0.699E-03
DAV:   9    -0.132275014058E+03    0.19169E-04   -0.69492E-05  2844   0.694E-02    0.865E-03
DAV:  10    -0.132274995048E+03    0.19011E-04   -0.16858E-05  2140   0.680E-02    0.388E-03
DAV:  11    -0.132274986450E+03    0.85979E-05   -0.25129E-05  2392   0.589E-02
  28 F= -.13227499E+03 E0= -.13227238E+03  d E =-.334726E-02
       N       E                     dE             d eps       ncg     rms          rms(c)
DAV:   1    -0.132276455571E+03   -0.14605E-02   -0.52864E-02  2788   0.100E+00    0.536E-02
DAV:   2    -0.132276536556E+03   -0.80985E-04   -0.14368E-03  2884   0.163E-01    0.305E-02
DAV:   3    -0.132276521009E+03    0.15547E-04   -0.57729E-05  2942   0.406E-02    0.189E-02
DAV:   4    -0.132276511706E+03    0.93025E-05   -0.22733E-05  2264   0.291E-02    0.139E-02
DAV:   5    -0.132276506549E+03    0.51571E-05   -0.64686E-06  1686   0.228E-02    0.823E-03
DAV:   6    -0.132276500549E+03    0.60002E-05   -0.65058E-06  1884   0.348E-02
  29 F= -.13227650E+03 E0= -.13227395E+03  d E =-.151410E-02
       N       E                     dE             d eps       ncg     rms          rms(c)
DAV:   1    -0.132278581232E+03   -0.20747E-02   -0.47410E-01  2746   0.301E+00    0.159E-01
DAV:   2    -0.132279342856E+03   -0.76162E-03   -0.12840E-02  2856   0.482E-01    0.880E-02
DAV:   3    -0.132279216671E+03    0.12618E-03   -0.43932E-04  3032   0.111E-01    0.551E-02
DAV:   4    -0.132279139388E+03    0.77283E-04   -0.20709E-04  2954   0.866E-02    0.410E-02
DAV:   5    -0.132279103572E+03    0.35816E-04   -0.56002E-05  2814   0.598E-02    0.249E-02
DAV:   6    -0.132279058269E+03    0.45304E-04   -0.39047E-05  2776   0.856E-02    0.817E-03
DAV:   7    -0.132279042688E+03    0.15580E-04   -0.46119E-05  2606   0.559E-02    0.670E-03
DAV:   8    -0.132279034729E+03    0.79594E-05   -0.25463E-05  2368   0.398E-02
  30 F= -.13227903E+03 E0= -.13227664E+03  d E =-.404828E-02
       N       E                     dE             d eps       ncg     rms          rms(c)
DAV:   1    -0.132279117207E+03   -0.74518E-04   -0.69070E-02  2740   0.115E+00    0.632E-02
DAV:   2    -0.132279227576E+03   -0.11037E-03   -0.19975E-03  2898   0.195E-01    0.346E-02
DAV:   3    -0.132279204236E+03    0.23339E-04   -0.78287E-05  3022   0.461E-02    0.220E-02
DAV:   4    -0.132279186894E+03    0.17343E-04   -0.29489E-05  2510   0.340E-02    0.156E-02
DAV:   5    -0.132279175398E+03    0.11496E-04   -0.82350E-06  1766   0.321E-02    0.925E-03
DAV:   6    -0.132279158907E+03    0.16491E-04   -0.15412E-05  2252   0.596E-02    0.316E-03
DAV:   7    -0.132279151148E+03    0.77587E-05   -0.17986E-05  2140   0.430E-02
  31 F= -.13227915E+03 E0= -.13227682E+03  d E =-.416470E-02
       N       E                     dE             d eps       ncg     rms          rms(c)
DAV:   1    -0.132280537574E+03   -0.13787E-02   -0.27720E-01  2814   0.228E+00    0.822E-02
DAV:   2    -0.132280966407E+03   -0.42883E-03   -0.60909E-03  2906   0.328E-01    0.480E-02
DAV:   3    -0.132280908130E+03    0.58278E-04   -0.15308E-04  3036   0.581E-02    0.331E-02
DAV:   4    -0.132280870328E+03    0.37801E-04   -0.64134E-05  2876   0.428E-02    0.203E-02
DAV:   5    -0.132280846057E+03    0.24271E-04   -0.29488E-05  2574   0.367E-02    0.940E-03
DAV:   6    -0.132280829516E+03    0.16541E-04   -0.18954E-05  2188   0.344E-02    0.454E-03
DAV:   7    -0.132280819268E+03    0.10248E-04   -0.11713E-05  1872   0.263E-02    0.528E-03
DAV:   8    -0.132280806022E+03    0.13245E-04   -0.43161E-06  1824   0.315E-02    0.418E-03
DAV:   9    -0.132280782839E+03    0.23184E-04   -0.25621E-05  2518   0.775E-02    0.703E-03
DAV:  10    -0.132280780730E+03    0.21083E-05   -0.31551E-05  2432   0.297E-02
  32 F= -.13228078E+03 E0= -.13227850E+03  d E =-.162958E-02
       N       E                     dE             d eps       ncg     rms          rms(c)
DAV:   1    -0.132281082645E+03   -0.29981E-03   -0.34285E-01  2808   0.254E+00    0.913E-02
DAV:   2    -0.132281609799E+03   -0.52715E-03   -0.74971E-03  2894   0.363E-01    0.536E-02
DAV:   3    -0.132281536955E+03    0.72844E-04   -0.17562E-04  3060   0.617E-02    0.369E-02
DAV:   4    -0.132281488001E+03    0.48954E-04   -0.84977E-05  2878   0.499E-02    0.219E-02
DAV:   5    -0.132281460768E+03    0.27233E-04   -0.39819E-05  2806   0.414E-02    0.102E-02
DAV:   6    -0.132281441426E+03    0.19343E-04   -0.19756E-05  2196   0.365E-02    0.503E-03
DAV:   7    -0.132281429824E+03    0.11601E-04   -0.11378E-05  1880   0.282E-02    0.591E-03
DAV:   8    -0.132281414408E+03    0.15416E-04   -0.45705E-06  1792   0.345E-02    0.419E-03
DAV:   9    -0.132281386132E+03    0.28276E-04   -0.32825E-05  2710   0.867E-02    0.819E-03
DAV:  10    -0.132281384845E+03    0.12872E-05   -0.37304E-05  2466   0.276E-02
  33 F= -.13228138E+03 E0= -.13227916E+03  d E =-.223370E-02
       N       E                     dE             d eps       ncg     rms          rms(c)
DAV:   1    -0.132282366763E+03   -0.98063E-03   -0.97872E-02  2732   0.133E+00    0.502E-02
DAV:   2    -0.132282526600E+03   -0.15984E-03   -0.21914E-03  2918   0.195E-01    0.323E-02
DAV:   3    -0.132282503423E+03    0.23177E-04   -0.53776E-05  2896   0.415E-02    0.229E-02
DAV:   4    -0.132282485315E+03    0.18108E-04   -0.83761E-05  2736   0.476E-02    0.111E-02
DAV:   5    -0.132282482401E+03    0.29136E-05   -0.16994E-05  1976   0.216E-02    0.960E-03
DAV:   6    -0.132282478318E+03    0.40835E-05   -0.91871E-06  1720   0.194E-02
  34 F= -.13228248E+03 E0= -.13228024E+03  d E =-.109347E-02
       N       E                     dE             d eps       ncg     rms          rms(c)
DAV:   1    -0.132282809098E+03   -0.32670E-03   -0.20911E-01  2760   0.195E+00    0.720E-02
DAV:   2    -0.132283139680E+03   -0.33058E-03   -0.47741E-03  2928   0.291E-01    0.496E-02
DAV:   3    -0.132283078881E+03    0.60799E-04   -0.13091E-04  3062   0.641E-02    0.359E-02
DAV:   4    -0.132283008069E+03    0.70812E-04   -0.19028E-04  2910   0.743E-02    0.184E-02
DAV:   5    -0.132282985707E+03    0.22362E-04   -0.52482E-05  2840   0.444E-02    0.179E-02
DAV:   6    -0.132282969222E+03    0.16485E-04   -0.28336E-05  2256   0.321E-02    0.962E-03
DAV:   7    -0.132282928485E+03    0.40737E-04   -0.88530E-06  1986   0.557E-02    0.553E-03
DAV:   8    -0.132282883806E+03    0.44679E-04   -0.32373E-05  2552   0.759E-02    0.688E-03
DAV:   9    -0.132282841916E+03    0.41890E-04   -0.41754E-05  2862   0.919E-02    0.626E-03
DAV:  10    -0.132282791038E+03    0.50877E-04   -0.72408E-05  3252   0.168E-01    0.798E-03
DAV:  11    -0.132282790627E+03    0.41088E-06   -0.12524E-04  2836   0.826E-02    0.871E-03
DAV:  12    -0.132282793017E+03   -0.23897E-05   -0.52540E-05  2458   0.283E-02
  35 F= -.13228279E+03 E0= -.13228057E+03  d E =-.140817E-02
       N       E                     dE             d eps       ncg     rms          rms(c)
DAV:   1    -0.132282843234E+03   -0.52606E-04   -0.15033E-02  2764   0.522E-01    0.212E-02
DAV:   2    -0.132282864937E+03   -0.21704E-04   -0.35101E-04  2936   0.803E-02    0.133E-02
DAV:   3    -0.132282860778E+03    0.41596E-05   -0.11903E-05  1736   0.203E-02    0.957E-03
DAV:   4    -0.132282856648E+03    0.41295E-05   -0.12587E-05  1934   0.211E-02    0.448E-03
DAV:   5    -0.132282855508E+03    0.11406E-05   -0.49498E-06  1536   0.133E-02    0.429E-03
DAV:   6    -0.132282854480E+03    0.10271E-05   -0.16771E-06  1518   0.952E-03
  36 F= -.13228285E+03 E0= -.13228063E+03  d E =-.146964E-02
       N       E                     dE             d eps       ncg     rms          rms(c)
DAV:   1    -0.132283499401E+03   -0.64389E-03   -0.14777E-01  2620   0.162E+00    0.510E-02
DAV:   2    -0.132283744869E+03   -0.24547E-03   -0.29111E-03  2942   0.220E-01    0.291E-02
DAV:   3    -0.132283721830E+03    0.23039E-04   -0.47564E-05  2936   0.422E-02    0.205E-02
DAV:   4    -0.132283701075E+03    0.20755E-04   -0.51611E-05  2756   0.509E-02    0.877E-03
DAV:   5    -0.132283697844E+03    0.32306E-05   -0.27588E-05  2414   0.316E-02    0.781E-03
DAV:   6    -0.132283696351E+03    0.14933E-05   -0.81066E-06  1542   0.141E-02
  37 F= -.13228370E+03 E0= -.13228146E+03  d E =-.841871E-03
       N       E                     dE             d eps       ncg     rms          rms(c)
DAV:   1    -0.132282988361E+03    0.70948E-03   -0.11738E+00  2620   0.458E+00    0.144E-01
DAV:   2    -0.132284948673E+03   -0.19603E-02   -0.23230E-02  2934   0.619E-01    0.847E-02
DAV:   3    -0.132284763779E+03    0.18489E-03   -0.39292E-04  3094   0.122E-01    0.592E-02
DAV:   4    -0.132284607428E+03    0.15635E-03   -0.41670E-04  2950   0.140E-01    0.264E-02
DAV:   5    -0.132284585043E+03    0.22385E-04   -0.21848E-04  2998   0.871E-02    0.231E-02
DAV:   6    -0.132284575039E+03    0.10004E-04   -0.66580E-05  2660   0.381E-02    0.155E-02
DAV:   7    -0.132284554459E+03    0.20580E-04   -0.18335E-05  1968   0.306E-02    0.829E-03
DAV:   8    -0.132284527653E+03    0.26806E-04   -0.35220E-05  2604   0.648E-02    0.112E-02
DAV:   9    -0.132284521896E+03    0.57570E-05   -0.39470E-05  2486   0.386E-02
  38 F= -.13228452E+03 E0= -.13228222E+03  d E =-.166742E-02
       N       E                     dE             d eps       ncg     rms          rms(c)
DAV:   1    -0.132285128006E+03   -0.60035E-03   -0.16160E-01  2644   0.173E+00    0.573E-02
DAV:   2    -0.132285431773E+03   -0.30377E-03   -0.35971E-03  2896   0.243E-01    0.329E-02
DAV:   3    -0.132285407694E+03    0.24079E-04   -0.64379E-05  3062   0.410E-02    0.228E-02
DAV:   4    -0.132285389155E+03    0.18540E-04   -0.43135E-05  2624   0.419E-02    0.103E-02
DAV:   5    -0.132285380649E+03    0.85053E-05   -0.17460E-05  1916   0.286E-02    0.580E-03
DAV:   6    -0.132285372056E+03    0.85937E-05   -0.65175E-06  1776   0.240E-02
  39 F= -.13228537E+03 E0= -.13228304E+03  d E =-.850159E-03
       N       E                     dE             d eps       ncg     rms          rms(c)
DAV:   1    -0.132284238390E+03    0.11423E-02   -0.14514E+00  2660   0.520E+00    0.167E-01
DAV:   2    -0.132287065130E+03   -0.28267E-02   -0.32509E-02  2878   0.725E-01    0.945E-02
DAV:   3    -0.132286872532E+03    0.19260E-03   -0.50172E-04  3126   0.117E-01    0.672E-02
DAV:   4    -0.132286730103E+03    0.14243E-03   -0.42793E-04  2982   0.122E-01    0.287E-02
DAV:   5    -0.132286688422E+03    0.41681E-04   -0.15920E-04  2962   0.745E-02    0.196E-02
DAV:   6    -0.132286652996E+03    0.35426E-04   -0.81933E-05  2864   0.555E-02    0.110E-02
DAV:   7    -0.132286628586E+03    0.24410E-04   -0.14153E-05  2090   0.426E-02    0.119E-02
DAV:   8    -0.132286591601E+03    0.36984E-04   -0.16158E-05  2150   0.616E-02    0.801E-03
DAV:   9    -0.132286550723E+03    0.40878E-04   -0.56612E-05  3064   0.929E-02    0.797E-03
DAV:  10    -0.132286529695E+03    0.21028E-04   -0.34885E-05  2676   0.606E-02    0.527E-03
DAV:  11    -0.132286501809E+03    0.27886E-04   -0.31190E-05  2634   0.107E-01    0.784E-03
DAV:  12    -0.132286496423E+03    0.53857E-05   -0.50276E-05  2828   0.643E-02
  40 F= -.13228650E+03 E0= -.13228403E+03  d E =-.197453E-02
       N       E                     dE             d eps       ncg     rms          rms(c)
DAV:   1    -0.132287527074E+03   -0.10253E-02   -0.19050E-01  2604   0.189E+00    0.680E-02
DAV:   2    -0.132287864871E+03   -0.33780E-03   -0.45925E-03  2918   0.283E-01    0.401E-02
DAV:   3    -0.132287839495E+03    0.25377E-04   -0.17325E-04  3100   0.650E-02    0.308E-02
DAV:   4    -0.132287821175E+03    0.18320E-04   -0.65958E-05  2788   0.373E-02    0.151E-02
DAV:   5    -0.132287806318E+03    0.14857E-04   -0.12836E-05  1840   0.342E-02    0.872E-03
DAV:   6    -0.132287795270E+03    0.11048E-04   -0.15604E-05  2054   0.436E-02    0.739E-03
DAV:   7    -0.132287792145E+03    0.31247E-05   -0.22133E-05  1894   0.254E-02
  41 F= -.13228779E+03 E0= -.13228525E+03  d E =-.129572E-02
       N       E                     dE             d eps       ncg     rms          rms(c)
DAV:   1    -0.132287948097E+03   -0.15283E-03   -0.25583E-01  2604   0.219E+00    0.808E-02
DAV:   2    -0.132288405128E+03   -0.45703E-03   -0.63995E-03  2924   0.334E-01    0.467E-02
DAV:   3    -0.132288358579E+03    0.46550E-04   -0.23386E-04  3110   0.792E-02    0.365E-02
DAV:   4    -0.132288315892E+03    0.42687E-04   -0.93067E-05  2876   0.491E-02    0.179E-02
DAV:   5    -0.132288270474E+03    0.45418E-04   -0.27725E-05  2402   0.616E-02    0.125E-02
DAV:   6    -0.132288227838E+03    0.42636E-04   -0.30117E-05  2530   0.778E-02    0.107E-02
DAV:   7    -0.132288210358E+03    0.17479E-04   -0.49543E-05  2682   0.474E-02    0.967E-03
DAV:   8    -0.132288198239E+03    0.12119E-04   -0.15439E-05  1766   0.232E-02    0.617E-03
DAV:   9    -0.132288134922E+03    0.63318E-04   -0.12095E-04  3146   0.124E-01    0.265E-02
DAV:  10    -0.132288107810E+03    0.27112E-04   -0.57698E-05  2936   0.867E-02    0.264E-02
DAV:  11    -0.132288084723E+03    0.23087E-04   -0.14705E-04  3386   0.108E-01    0.108E-02
DAV:  12    -0.132288087107E+03   -0.23837E-05   -0.58448E-05  2506   0.321E-02
  42 F= -.13228809E+03 E0= -.13228545E+03  d E =-.159068E-02
       N       E                     dE             d eps       ncg     rms          rms(c)
DAV:   1    -0.132288173475E+03   -0.88752E-04   -0.39030E-01  2652   0.270E+00    0.818E-02
DAV:   2    -0.132288925478E+03   -0.75200E-03   -0.87646E-03  2884   0.376E-01    0.507E-02
DAV:   3    -0.132288868952E+03    0.56527E-04   -0.11653E-04  3132   0.577E-02    0.351E-02
DAV:   4    -0.132288824736E+03    0.44215E-04   -0.13017E-04  2930   0.757E-02    0.126E-02
DAV:   5    -0.132288822143E+03    0.25929E-05   -0.64198E-05  2760   0.421E-02    0.118E-02
DAV:   6    -0.132288818911E+03    0.32321E-05   -0.11849E-05  1578   0.169E-02
  43 F= -.13228882E+03 E0= -.13228610E+03  d E =-.731804E-03
       N       E                     dE             d eps       ncg     rms          rms(c)
DAV:   1    -0.132288697591E+03    0.12455E-03   -0.13445E-01  2636   0.159E+00    0.508E-02
DAV:   2    -0.132288957575E+03   -0.25998E-03   -0.30659E-03  2884   0.226E-01    0.286E-02
DAV:   3    -0.132288935822E+03    0.21753E-04   -0.48051E-05  2986   0.415E-02    0.201E-02
DAV:   4    -0.132288914910E+03    0.20912E-04   -0.37810E-05  2592   0.480E-02    0.855E-03
DAV:   5    -0.132288907826E+03    0.70834E-05   -0.24901E-05  2148   0.382E-02    0.749E-03
DAV:   6    -0.132288904645E+03    0.31811E-05   -0.16291E-05  1656   0.235E-02
  44 F= -.13228890E+03 E0= -.13228613E+03  d E =-.817538E-03
       N       E                     dE             d eps       ncg     rms          rms(c)
DAV:   1    -0.132289114588E+03   -0.20676E-03   -0.12139E-01  2736   0.147E+00    0.507E-02
DAV:   2    -0.132289359663E+03   -0.24507E-03   -0.32153E-03  2930   0.234E-01    0.371E-02
DAV:   3    -0.132289324750E+03    0.34912E-04   -0.84016E-05  2948   0.480E-02    0.289E-02
DAV:   4    -0.132289279151E+03    0.45599E-04   -0.84639E-05  2754   0.554E-02    0.119E-02
DAV:   5    -0.132289253634E+03    0.25517E-04   -0.39213E-05  2768   0.519E-02    0.135E-02
DAV:   6    -0.132289243077E+03    0.10557E-04   -0.25403E-05  2098   0.287E-02    0.861E-03
DAV:   7    -0.132289225053E+03    0.18024E-04   -0.10588E-05  1786   0.293E-02    0.547E-03
DAV:   8    -0.132289190720E+03    0.34333E-04   -0.35539E-05  2658   0.731E-02    0.130E-02
DAV:   9    -0.132289161655E+03    0.29065E-04   -0.35976E-05  2710   0.763E-02    0.688E-03
DAV:  10    -0.132289124560E+03    0.37095E-04   -0.80007E-05  3504   0.154E-01    0.133E-02
DAV:  11    -0.132289117919E+03    0.66412E-05   -0.89581E-05  2796   0.508E-02
  45 F= -.13228912E+03 E0= -.13228631E+03  d E =-.213273E-03
       N       E                     dE             d eps       ncg     rms          rms(c)
DAV:   1    -0.132289138467E+03   -0.13907E-04   -0.13641E-02  2820   0.489E-01    0.223E-02
DAV:   2    -0.132289164082E+03   -0.25615E-04   -0.36686E-04  2898   0.803E-02    0.101E-02
DAV:   3    -0.132289161517E+03    0.25654E-05   -0.12466E-05  1602   0.171E-02    0.771E-03
DAV:   4    -0.132289158906E+03    0.26110E-05   -0.60104E-06  1620   0.149E-02    0.294E-03
DAV:   5    -0.132289157751E+03    0.11544E-05   -0.32544E-06  1564   0.136E-02    0.277E-03
DAV:   6    -0.132289157150E+03    0.60115E-06   -0.15244E-06  1482   0.931E-03
  46 F= -.13228916E+03 E0= -.13228636E+03  d E =-.252505E-03
       N       E                     dE             d eps       ncg     rms          rms(c)
DAV:   1    -0.132289296268E+03   -0.13852E-03   -0.18874E-02  2772   0.571E-01    0.227E-02
DAV:   2    -0.132289327235E+03   -0.30967E-04   -0.56600E-04  2898   0.101E-01    0.189E-02
DAV:   3    -0.132289316927E+03    0.10308E-04   -0.22694E-05  2076   0.283E-02    0.146E-02
DAV:   4    -0.132289302814E+03    0.14113E-04   -0.22633E-05  2232   0.317E-02    0.623E-03
DAV:   5    -0.132289291058E+03    0.11757E-04   -0.10416E-05  1824   0.362E-02    0.638E-03
DAV:   6    -0.132289278700E+03    0.12358E-04   -0.11959E-05  2048   0.451E-02    0.374E-03
DAV:   7    -0.132289264871E+03    0.13829E-04   -0.18005E-05  2210   0.651E-02    0.735E-03
DAV:   8    -0.132289253590E+03    0.11281E-04   -0.15023E-05  2114   0.604E-02    0.650E-03
DAV:   9    -0.132289248974E+03    0.46152E-05   -0.28040E-05  2352   0.448E-02
  47 F= -.13228925E+03 E0= -.13228644E+03  d E =-.918242E-04
       N       E                     dE             d eps       ncg     rms          rms(c)
DAV:   1    -0.132289258124E+03   -0.45344E-05   -0.78616E-04  2728   0.117E-01    0.689E-03
DAV:   2    -0.132289258483E+03   -0.35929E-06   -0.24212E-05  2238   0.237E-02    0.516E-03
DAV:   3    -0.132289257965E+03    0.51803E-06   -0.42459E-06  1518   0.109E-02    0.336E-03
DAV:   4    -0.132289257553E+03    0.41219E-06   -0.11167E-06  1518   0.669E-03    0.187E-03
DAV:   5    -0.132289256990E+03    0.56347E-06   -0.74728E-07  1530   0.928E-03    0.136E-03
DAV:   6    -0.132289256696E+03    0.29348E-06   -0.10733E-06  1544   0.932E-03
  48 F= -.13228926E+03 E0= -.13228645E+03  d E =-.995460E-04
