 vasp.5.3.5 31Mar14 (build Apr 08 2024 10:12:10) complex                        
  
 executed on             LinuxIFC date 2024.07.29  18:43:20
 running on    8 total cores
 distrk:  each k-point on    8 cores,    1 groups
 distr:  one band on NCORES_PER_BAND=   4 cores,    2 groups


--------------------------------------------------------------------------------------------------------


 INCAR:
 POTCAR:    PAW_PBE O 08Apr2002                   
 POTCAR:    PAW_PBE Mg 13Apr2007                  
 POTCAR:    PAW_PBE Al 04Jan2001                  
 POTCAR:    PAW_PBE O 08Apr2002                   
   VRHFIN =O: s2p4                                                              
   LEXCH  = PE                                                                  
   EATOM  =   432.3788 eV,   31.7789 Ry                                         
                                                                                
   TITEL  = PAW_PBE O 08Apr2002                                                 
   LULTRA =        F    use ultrasoft PP ?                                      
   IUNSCR =        1    unscreen: 0-lin 1-nonlin 2-no                           
   RPACOR =    1.200    partial core radius                                     
   POMASS =   16.000; ZVAL   =    6.000    mass and valenz                      
   RCORE  =    1.520    outmost cutoff radius                                   
   RWIGS  =    1.550; RWIGS  =    0.820    wigner-seitz radius (au A)           
   ENMAX  =  400.000; ENMIN  =  300.000 eV                                      
   ICORE  =        2    local potential                                         
   LCOR   =        T    correct aug charges                                     
   LPAW   =        T    paw PP                                                  
   EAUG   =  605.392                                                            
   DEXC   =    0.000                                                            
   RMAX   =    1.553    core radius for proj-oper                               
   RAUG   =    1.300    factor for augmentation sphere                          
   RDEP   =    1.550    radius for radial grids                                 
   RDEPT  =    1.329    core radius for aug-charge                              
                                                                                
   Atomic configuration                                                         
    4 entries                                                                   
     n  l   j            E        occ.                                          
     1  0  0.50      -514.6923   2.0000                                         
     2  0  0.50       -23.9615   2.0000                                         
     2  1  0.50        -9.0305   4.0000                                         
     3  2  1.50        -9.5241   0.0000                                         
   Description                                                                  
     l       E           TYP  RCUT    TYP  RCUT                                 
     0    -23.9615318     23  1.200                                             
     0     -9.5240782     23  1.200                                             
     1     -9.0304911     23  1.520                                             
     1      8.1634956     23  1.520                                             
     2     -9.5240782      7  1.500                                             
  local pseudopotential read in
  partial core-charges read in
  partial kinetic energy density read in
  kinetic energy density of atom read in
  atomic valenz-charges read in
  non local Contribution for L=           0  read in
    real space projection operators read in
  non local Contribution for L=           0  read in
    real space projection operators read in
  non local Contribution for L=           1  read in
    real space projection operators read in
  non local Contribution for L=           1  read in
    real space projection operators read in
    PAW grid and wavefunctions read in
 
   number of l-projection  operators is LMAX  =           4
   number of lm-projection operators is LMMAX =           8
 
 POTCAR:    PAW_PBE Mg 13Apr2007                  
   VRHFIN =Mg: s2p0                                                             
   LEXCH  = PE                                                                  
   EATOM  =    23.0369 eV,    1.6932 Ry                                         
                                                                                
   TITEL  = PAW_PBE Mg 13Apr2007                                                
   LULTRA =        F    use ultrasoft PP ?                                      
   IUNSCR =        1    unscreen: 0-lin 1-nonlin 2-no                           
   RPACOR =    1.500    partial core radius                                     
   POMASS =   24.305; ZVAL   =    2.000    mass and valenz                      
   RCORE  =    2.000    outmost cutoff radius                                   
   RWIGS  =    2.880; RWIGS  =    1.524    wigner-seitz radius (au A)           
   ENMAX  =  200.000; ENMIN  =  100.000 eV                                      
   RCLOC  =    1.506    cutoff for local pot                                    
   LCOR   =        T    correct aug charges                                     
   LPAW   =        T    paw PP                                                  
   EAUG   =  454.734                                                            
   DEXC   =    0.000                                                            
   RMAX   =    2.045    core radius for proj-oper                               
   RAUG   =    1.300    factor for augmentation sphere                          
   RDEP   =    2.025    radius for radial grids                                 
   RDEPT  =    1.942    core radius for aug-charge                              
                                                                                
   Atomic configuration                                                         
    6 entries                                                                   
     n  l   j            E        occ.                                          
     1  0  0.50     -1259.6230   2.0000                                         
     2  0  0.50       -79.8442   2.0000                                         
     2  1  1.50       -46.6121   6.0000                                         
     3  0  0.50        -4.7055   2.0000                                         
     3  1  0.50        -1.3660   0.0000                                         
     3  2  1.50        -1.3606   0.0000                                         
   Description                                                                  
     l       E           TYP  RCUT    TYP  RCUT                                 
     0     -4.7054661     23  2.000                                             
     0     27.2116520     23  2.000                                             
     1      1.3605826     23  2.000                                             
     1     27.2116520     23  2.000                                             
     2     -1.3605826     23  2.000                                             
  local pseudopotential read in
  partial core-charges read in
  partial kinetic energy density read in
  atomic valenz-charges read in
  non local Contribution for L=           0  read in
    real space projection operators read in
  non local Contribution for L=           0  read in
    real space projection operators read in
  non local Contribution for L=           1  read in
    real space projection operators read in
  non local Contribution for L=           1  read in
    real space projection operators read in
  non local Contribution for L=           2  read in
    real space projection operators read in
    PAW grid and wavefunctions read in
 
   number of l-projection  operators is LMAX  =           5
   number of lm-projection operators is LMMAX =          13
 
 POTCAR:    PAW_PBE Al 04Jan2001                  
   VRHFIN =Al: s2p1                                                             
   LEXCH  = PE                                                                  
   EATOM  =    53.5387 eV,    3.9350 Ry                                         
                                                                                
   TITEL  = PAW_PBE Al 04Jan2001                                                
   LULTRA =        F    use ultrasoft PP ?                                      
   IUNSCR =        1    unscreen: 0-lin 1-nonlin 2-no                           
   RPACOR =    1.500    partial core radius                                     
   POMASS =   26.981; ZVAL   =    3.000    mass and valenz                      
   RCORE  =    1.900    outmost cutoff radius                                   
   RWIGS  =    2.650; RWIGS  =    1.402    wigner-seitz radius (au A)           
   ENMAX  =  240.300; ENMIN  =  180.225 eV                                      
   ICORE  =        2    local potential                                         
   LCOR   =        T    correct aug charges                                     
   LPAW   =        T    paw PP                                                  
   EAUG   =  291.052                                                            
   DEXC   =    0.000                                                            
   RMAX   =    1.939    core radius for proj-oper                               
   RAUG   =    1.300    factor for augmentation sphere                          
   RDEP   =    1.966    radius for radial grids                                 
   RDEPT  =    1.856    core radius for aug-charge                              
                                                                                
   Atomic configuration                                                         
    6 entries                                                                   
     n  l   j            E        occ.                                          
     1  0  0.50     -1511.1048   2.0000                                         
     2  0  0.50      -108.1629   2.0000                                         
     2  1  1.50       -69.6402   6.0000                                         
     3  0  0.50        -7.7528   2.0000                                         
     3  1  1.50        -2.7121   1.0000                                         
     3  2  2.50        -2.7212   0.0000                                         
   Description                                                                  
     l       E           TYP  RCUT    TYP  RCUT                                 
     0     -7.7528455     23  1.900                                             
     0     -3.3096929     23  1.900                                             
     1     -2.7120682     23  1.900                                             
     1     13.6058260     23  1.900                                             
     2     -2.7211652      7  1.900                                             
  local pseudopotential read in
  partial core-charges read in
  partial kinetic energy density read in
  atomic valenz-charges read in
  non local Contribution for L=           0  read in
    real space projection operators read in
  non local Contribution for L=           0  read in
    real space projection operators read in
  non local Contribution for L=           1  read in
    real space projection operators read in
  non local Contribution for L=           1  read in
    real space projection operators read in
    PAW grid and wavefunctions read in
 
   number of l-projection  operators is LMAX  =           4
   number of lm-projection operators is LMMAX =           8
 

 ----------------------------------------------------------------------------- 
|                                                                             |
|  ADVICE TO THIS USER RUNNING 'VASP/VAMP'   (HEAR YOUR MASTER'S VOICE ...):  |
|                                                                             |
|      You have a (more or less) 'large supercell' and for larger cells       |
|      it might be more efficient to use real space projection opertators     |
|      So try LREAL= Auto  in the INCAR   file.                               |
|      Mind: At the moment your POTCAR file does not contain real space       |
|       projectors, and has to be modified,  BUT if you                       |
|      want to do an extremely  accurate calculation you might also keep the  |
|      reciprocal projection scheme          (i.e. LREAL=.FALSE.)             |
|                                                                             |
 ----------------------------------------------------------------------------- 

  PAW_PBE O 08Apr2002                   :
 energy of atom  1       EATOM= -432.3788
 kinetic energy error for atom=    0.0208 (will be added to EATOM!!)
  PAW_PBE Mg 13Apr2007                  :
 energy of atom  2       EATOM=  -23.0369
 kinetic energy error for atom=    0.0000 (will be added to EATOM!!)
  PAW_PBE Al 04Jan2001                  :
 energy of atom  3       EATOM=  -53.5387
 kinetic energy error for atom=    0.0002 (will be added to EATOM!!)
 
 
 POSCAR: Layer                                   
  positions in direct lattice
  velocities in cartesian coordinates
 exchange correlation table for  LEXCH =        8
   RHO(1)=    0.500       N(1)  =     2000
   RHO(2)=  100.500       N(2)  =     4000
 


--------------------------------------------------------------------------------------------------------


 ion  position               nearest neighbor table
   1  0.000  0.000  0.357-  14 2.14  14 2.14  14 2.14  17 2.14  17 2.14  17 2.14
   2  0.333  0.667  0.413-  14 2.14  14 2.14  14 2.14  11 2.14  11 2.14  11 2.14
   3  0.000  0.000  0.526-  18 2.14  18 2.14  18 2.14  15 2.14  15 2.14  15 2.14
   4  0.333  0.667  0.582-  15 2.14  15 2.14  15 2.14  12 2.14  12 2.14  12 2.14
   5  0.000  0.000  0.695-  16 2.14  16 2.14  16 2.14  19 2.14  19 2.14  19 2.14
   6  0.333  0.667  0.751-  16 2.14  16 2.14  16 2.14  13 2.17  13 2.17  13 2.17
   7  0.667  0.333  0.301-  17 2.14  17 2.14  17 2.14  10 2.17  10 2.17  10 2.17
   8  0.667  0.333  0.470-  11 2.14  11 2.14  11 2.14  18 2.14  18 2.14  18 2.14
   9  0.667  0.333  0.638-  19 2.14  19 2.14  19 2.14  12 2.14  12 2.14  12 2.14
  10  0.000  0.000  0.272-   7 2.17   7 2.17   7 2.17  17 3.11  17 3.11  17 3.11
  11  0.000  0.000  0.441-   8 2.14   8 2.14   8 2.14   2 2.14   2 2.14   2 2.14  14 3.07  14 3.07
                            14 3.07  18 3.07  18 3.07  18 3.07
  12  0.000  0.000  0.610-   9 2.14   9 2.14   9 2.14   4 2.14   4 2.14   4 2.14  19 3.07  19 3.07
                            19 3.07  15 3.07  15 3.07  15 3.07
  13  0.000  0.000  0.780-   6 2.17   6 2.17   6 2.17  16 3.11  16 3.11  16 3.11
  14  0.667  0.333  0.385-   1 2.14   1 2.14   1 2.14   2 2.14   2 2.14   2 2.14  17 3.07  17 3.07
                            17 3.07  11 3.07  11 3.07  11 3.07
  15  0.667  0.333  0.554-   4 2.14   4 2.14   4 2.14   3 2.14   3 2.14   3 2.14  12 3.07  12 3.07
                            12 3.07  18 3.07  18 3.07  18 3.07
  16  0.667  0.333  0.723-   6 2.14   6 2.14   6 2.14   5 2.14   5 2.14   5 2.14  19 3.07  19 3.07
                            19 3.07  13 3.11  13 3.11  13 3.11
  17  0.333  0.667  0.329-   7 2.14   7 2.14   7 2.14   1 2.14   1 2.14   1 2.14  14 3.07  14 3.07
                            14 3.07  10 3.11  10 3.11  10 3.11
  18  0.333  0.667  0.498-   3 2.14   3 2.14   3 2.14   8 2.14   8 2.14   8 2.14  11 3.07  11 3.07
                            11 3.07  15 3.07  15 3.07  15 3.07
  19  0.333  0.667  0.666-   9 2.14   9 2.14   9 2.14   5 2.14   5 2.14   5 2.14  12 3.07  12 3.07
                            12 3.07  16 3.07  16 3.07  16 3.07
  20  0.000  0.000  0.026-  23 3.01  23 3.01  23 3.01  25 3.01  25 3.01  25 3.01
  21  0.000  0.000  0.191-  22 3.06  22 3.06  22 3.06
  22  0.667  0.333  0.135-  23 2.99  23 2.99  23 2.99  21 3.06  21 3.06  21 3.06
  23  0.333  0.667  0.081-  22 2.99  22 2.99  22 2.99  20 3.01  20 3.01  20 3.01
  24  0.000  0.000  0.861-  26 3.06  26 3.06  26 3.06
  25  0.667  0.333  0.971-  26 2.99  26 2.99  26 2.99  20 3.01  20 3.01  20 3.01
  26  0.333  0.667  0.917-  25 2.99  25 2.99  25 2.99  24 3.06  24 3.06  24 3.06
 
  LATTYP: Found a hexagonal cell.
 ALAT       =     2.9929628358
 C/A-ratio  =    15.0705183999
  
  Lattice vectors:
  
 A1 = (   2.5919820457,  -1.4964810762,   0.0000000000)
 A2 = (   0.0000000000,   2.9929621524,   0.0000000000)
 A3 = (   0.0000000000,  -0.0000000000,  45.1055014870)


Analysis of symmetry for initial positions (statically):
=====================================================================
 Subroutine PRICEL returns:
 Original cell was already a primitive cell.
 

 Routine SETGRP: Setting up the symmetry group for a 
 hexagonal supercell.


 Subroutine GETGRP returns: Found  6 space group operations
 (whereof  6 operations were pure point group operations)
 out of a pool of 24 trial point group operations.


The static configuration has the point symmetry C_3v.


Analysis of symmetry for dynamics (positions and initial velocities):
=====================================================================
 Subroutine PRICEL returns:
 Original cell was already a primitive cell.
 

 Routine SETGRP: Setting up the symmetry group for a 
 hexagonal supercell.


 Subroutine GETGRP returns: Found  6 space group operations
 (whereof  6 operations were pure point group operations)
 out of a pool of 24 trial point group operations.


The dynamic configuration has the point symmetry C_3v.


Analysis of constrained symmetry for selective dynamics:
=====================================================================
 Subroutine PRICEL returns:
 Original cell was already a primitive cell.
 

 Routine SETGRP: Setting up the symmetry group for a 
 hexagonal supercell.


 Subroutine GETGRP returns: Found  6 space group operations
 (whereof  6 operations were pure point group operations)
 out of a pool of 24 trial point group operations.


The constrained configuration has the point symmetry C_3v.
 
 
 KPOINTS: K-Spacing Value to Generate K-Mesh: 0.02

Automatic generation of k-mesh.
Space group operators:
 irot       det(A)        alpha          n_x          n_y          n_z        tau_x        tau_y        tau_z
    1     1.000000     0.000001     1.000000     0.000000     0.000000     0.000000     0.000000     0.000000
    2     1.000000   120.000000    -0.000000     0.000000    -1.000000     0.000000     0.000000     0.000000
    3     1.000000   120.000000    -0.000000    -0.000000     1.000000     0.000000     0.000000     0.000000
    4    -1.000000   180.000000    -0.866025     0.500000     0.000000     0.000000     0.000000     0.000000
    5    -1.000000   180.000000     0.000000     1.000000     0.000000     0.000000     0.000000     0.000000
    6    -1.000000   180.000000    -0.866025    -0.500000    -0.000000     0.000000     0.000000     0.000000
 
 Subroutine IBZKPT returns following result:
 ===========================================
 
 Found     21 irreducible k-points:
 
 Following reciprocal coordinates:
            Coordinates               Weight
  0.000000  0.000000  0.000000      1.000000
  0.076923 -0.000000  0.000000      6.000000
  0.153846 -0.000000  0.000000      6.000000
  0.230769  0.000000 -0.000000      6.000000
  0.307692  0.000000  0.000000      6.000000
  0.384615  0.000000 -0.000000      6.000000
  0.461538  0.000000 -0.000000      6.000000
  0.076923  0.076923  0.000000      6.000000
  0.153846  0.076923  0.000000     12.000000
  0.230769  0.076923  0.000000     12.000000
  0.307692  0.076923  0.000000     12.000000
  0.384615  0.076923  0.000000     12.000000
  0.461538  0.076923  0.000000      6.000000
  0.153846  0.153846  0.000000      6.000000
  0.230769  0.153846  0.000000     12.000000
  0.307692  0.153846  0.000000     12.000000
  0.384615  0.153846  0.000000     12.000000
  0.230769  0.230769  0.000000      6.000000
  0.307692  0.230769  0.000000     12.000000
  0.384615  0.230769  0.000000      6.000000
  0.307692  0.307692  0.000000      6.000000
 
 Following cartesian coordinates:
            Coordinates               Weight
  0.000000  0.000000  0.000000      1.000000
  0.029677 -0.000000 -0.000000      6.000000
  0.059355 -0.000000 -0.000000      6.000000
  0.089032 -0.000000 -0.000000      6.000000
  0.118709 -0.000000 -0.000000      6.000000
  0.148387 -0.000000 -0.000000      6.000000
  0.178064 -0.000000 -0.000000      6.000000
  0.044516  0.025701  0.000000      6.000000
  0.074193  0.025701  0.000000     12.000000
  0.103871  0.025701  0.000000     12.000000
  0.133548  0.025701  0.000000     12.000000
  0.163225  0.025701  0.000000     12.000000
  0.192903  0.025701  0.000000      6.000000
  0.089032  0.051403  0.000000      6.000000
  0.118709  0.051403  0.000000     12.000000
  0.148387  0.051403  0.000000     12.000000
  0.178064  0.051403  0.000000     12.000000
  0.133548  0.077104  0.000000      6.000000
  0.163225  0.077104  0.000000     12.000000
  0.192903  0.077104  0.000000      6.000000
  0.178064  0.102805  0.000000      6.000000
 


--------------------------------------------------------------------------------------------------------




 Dimension of arrays:
   k-points           NKPTS =     21   k-points in BZ     NKDIM =     21   number of bands    NBANDS=     62
   number of dos      NEDOS =    301   number of ions     NIONS =     26
   non local maximal  LDIM  =      5   non local SUM 2l+1 LMDIM =     13
   total plane-waves  NPLWV = 193536
   max r-space proj   IRMAX =      1   max aug-charges    IRDMAX= 188140
   dimension x,y,z NGX =    24 NGY =   24 NGZ =  336
   dimension x,y,z NGXF=    48 NGYF=   48 NGZF=  672
   support grid    NGXF=    96 NGYF=   96 NGZF= 1344
   ions per type =               9  10   7
 NGX,Y,Z   is equivalent  to a cutoff of  13.33, 13.33, 12.38 a.u.
 NGXF,Y,Z  is equivalent  to a cutoff of  26.66, 26.66, 24.77 a.u.


 I would recommend the setting:
   dimension x,y,z NGX =    22 NGY =   22 NGZ =  335
 SYSTEM =  unknown system                          
 POSCAR =  Layer                                   

 Startparameter for this run:
   NWRITE =      2    write-flag & timer
   PREC   = accura    normal or accurate (medium, high low for compatibility)
   ISTART =      0    job   : 0-new  1-cont  2-samecut
   ICHARG =      2    charge: 1-file 2-atom 10-const
   ISPIN  =      1    spin polarized calculation?
   LNONCOLLINEAR =      F non collinear calculations
   LSORBIT =      F    spin-orbit coupling
   INIWAV =      1    electr: 0-lowe 1-rand  2-diag
   LASPH  =      F    aspherical Exc in radial PAW
   METAGGA=      F    non-selfconsistent MetaGGA calc.

 Electronic Relaxation 1
   ENCUT  =  520.0 eV  38.22 Ry    6.18 a.u.   5.56  5.56 83.87*2*pi/ulx,y,z
   ENINI  =  520.0     initial cutoff
   ENAUG  =  605.4 eV  augmentation charge cutoff
   NELM   =    100;   NELMIN=  6; NELMDL=  0     # of ELM steps 
   EDIFF  = 0.1E-04   stopping-criterion for ELM
   LREAL  =      F    real-space projection
   NLSPLINE    = F    spline interpolate recip. space projectors
   LCOMPAT=      F    compatible to vasp.4.4
   GGA_COMPAT  = T    GGA compatible to vasp.4.4-vasp.4.6
   LMAXPAW     = -100 max onsite density
   LMAXMIX     =    2 max onsite mixed and CHGCAR
   VOSKOWN=      0    Vosko Wilk Nusair interpolation
   ROPT   =    0.00000   0.00000   0.00000
 Ionic relaxation
   EDIFFG = -.2E-01   stopping-criterion for IOM
   NSW    =    500    number of steps for IOM
   NBLOCK =      1;   KBLOCK =    500    inner block; outer block 
   IBRION =      2    ionic relax: 0-MD 1-quasi-New 2-CG
   NFREE  =      1    steps in history (QN), initial steepest desc. (CG)
   ISIF   =      2    stress and relaxation
   IWAVPR =     11    prediction:  0-non 1-charg 2-wave 3-comb
   ISYM   =      2    0-nonsym 1-usesym 2-fastsym
   LCORR  =      T    Harris-Foulkes like correction to forces

   POTIM  = 0.5000    time-step for ionic-motion
   TEIN   =    0.0    initial temperature
   TEBEG  =    0.0;   TEEND  =   0.0 temperature during run
   SMASS  =  -3.00    Nose mass-parameter (am)
   estimated Nose-frequenzy (Omega)   =  0.10E-29 period in steps =****** mass=  -0.205E-27a.u.
   SCALEE = 1.0000    scale energy and forces
   NPACO  =    256;   APACO  = 16.0  distance and # of slots for P.C.
   PSTRESS=    0.0 pullay stress

  Mass of Ions in am
   POMASS =  16.00 24.30 26.98
  Ionic Valenz
   ZVAL   =   6.00  2.00  3.00
  Atomic Wigner-Seitz radii
   RWIGS  =  -1.00 -1.00 -1.00
  virtual crystal weights 
   VCA    =   1.00  1.00  1.00
   NELECT =      95.0000    total number of electrons
   NUPDOWN=      -1.0000    fix difference up-down

 DOS related values:
   EMIN   =  10.00;   EMAX   =-10.00  energy-range for DOS
   EFERMI =   0.00
   ISMEAR =     0;   SIGMA  =   0.05  broadening in eV -4-tet -1-fermi 0-gaus

 Electronic relaxation 2 (details)
   IALGO  =     38    algorithm
   LDIAG  =      T    sub-space diagonalisation (order eigenvalues)
   LSUBROT=      F    optimize rotation matrix (better conditioning)
   TURBO    =      0    0=normal 1=particle mesh
   IRESTART =      0    0=no restart 2=restart with 2 vectors
   NREBOOT  =      0    no. of reboots
   NMIN     =      0    reboot dimension
   EREF     =   0.00    reference energy to select bands
   IMIX   =      4    mixing-type and parameters
     AMIX     =   0.40;   BMIX     =  1.00
     AMIX_MAG =   1.60;   BMIX_MAG =  1.00
     AMIN     =   0.01
     WC   =   100.;   INIMIX=   1;  MIXPRE=   1;  MAXMIX= -45

 Intra band minimization:
   WEIMIN = 0.0010     energy-eigenvalue tresh-hold
   EBREAK =  0.40E-07  absolut break condition
   DEPER  =   0.30     relativ break condition  

   TIME   =   0.40     timestep for ELM

  volume/ion in A,a.u.               =      13.46        90.82
  Fermi-wavevector in a.u.,A,eV,Ry     =   1.060055  2.003214 15.289097  1.123717
  Thomas-Fermi vector in A             =   2.195423
 
 Write flags
   LWAVE  =      F    write WAVECAR
   LCHARG =      T    write CHGCAR
   LVTOT  =      F    write LOCPOT, total local potential
   LVHAR  =      F    write LOCPOT, Hartree potential only
   LELF   =      F    write electronic localiz. function (ELF)
   LORBIT =      0    0 simple, 1 ext, 2 COOP (PROOUT)


 Dipole corrections
   LMONO  =      F    monopole corrections only (constant potential shift)
   LDIPOL =      F    correct potential (dipole corrections)
   IDIPOL =      0    1-x, 2-y, 3-z, 4-all directions 
   EPSILON=  1.0000000 bulk dielectric constant

 Exchange correlation treatment:
   GGA     =    --    GGA type
   LEXCH   =     8    internal setting for exchange type
   VOSKOWN=      0    Vosko Wilk Nusair interpolation
   LHFCALC =     F    Hartree Fock is set to
   LHFONE  =     F    Hartree Fock one center treatment
   AEXX    =    0.0000 exact exchange contribution

 Linear response parameters
   LEPSILON=     F    determine dielectric tensor
   LRPA    =     F    only Hartree local field effects (RPA)
   LNABLA  =     F    use nabla operator in PAW spheres
   LVEL    =     F    velocity operator in full k-point grid
   LINTERFAST=   F  fast interpolation
   KINTER  =     0    interpolate to denser k-point grid
   CSHIFT  =0.1000    complex shift for real part using Kramers Kronig
   OMEGAMAX=  -1.0    maximum frequency
   DEG_THRESHOLD= 0.2000000E-02 threshold for treating states as degnerate
   RTIME   =    0.100 relaxation time in fs

 Orbital magnetization related:
   ORBITALMAG=     F  switch on orbital magnetization
   LCHIMAG   =     F  perturbation theory with respect to B field
   DQ        =  0.001000  dq finite difference perturbation B field



--------------------------------------------------------------------------------------------------------


 conjugate gradient relaxation of ions
   using selective dynamics as specified on POSCAR
 charge density and potential will be updated during run
 non-spin polarized calculation
 Variant of blocked Davidson
 Davidson routine will perform the subspace rotation
 perform sub-space diagonalisation
    after iterative eigenvector-optimisation
 modified Broyden-mixing scheme, WC =      100.0
 initial mixing is a Kerker type mixing with AMIX =  0.4000 and BMIX =      1.0000
 Hartree-type preconditioning will be used
 using additional bands           14
 reciprocal scheme for non local part
 use partial core corrections
 calculate Harris-corrections to forces 
   (improved forces if not selfconsistent)
 use gradient corrections 
 use of overlap-Matrix (Vanderbilt PP)
 Gauss-broadening in eV      SIGMA  =   0.05


--------------------------------------------------------------------------------------------------------


  energy-cutoff  :      520.00
  volume of cell :      349.92
      direct lattice vectors                 reciprocal lattice vectors
     2.591982046 -1.496481076  0.000000000     0.385805142 -0.000000000 -0.000000000
     0.000000000  2.992962152  0.000000000     0.192902571  0.334117155  0.000000000
     0.000000000 -0.000000000 45.105501487     0.000000000  0.000000000  0.022170245

  length of vectors
     2.992962836  2.992962152 45.105501487     0.385805142  0.385805230  0.022170245


 
 k-points in units of 2pi/SCALE and weight: K-Spacing Value to Generate K-Mesh: 0.02
   0.00000000  0.00000000  0.00000000       0.006
   0.02967732 -0.00000000 -0.00000000       0.036
   0.05935464 -0.00000000 -0.00000000       0.036
   0.08903196 -0.00000000 -0.00000000       0.036
   0.11870927 -0.00000000 -0.00000000       0.036
   0.14838659 -0.00000000 -0.00000000       0.036
   0.17806391 -0.00000000 -0.00000000       0.036
   0.04451598  0.02570132  0.00000000       0.036
   0.07419330  0.02570132  0.00000000       0.071
   0.10387062  0.02570132  0.00000000       0.071
   0.13354793  0.02570132  0.00000000       0.071
   0.16322525  0.02570132  0.00000000       0.071
   0.19290257  0.02570132  0.00000000       0.036
   0.08903196  0.05140264  0.00000000       0.036
   0.11870927  0.05140264  0.00000000       0.071
   0.14838659  0.05140264  0.00000000       0.071
   0.17806391  0.05140264  0.00000000       0.071
   0.13354793  0.07710396  0.00000000       0.036
   0.16322525  0.07710396  0.00000000       0.071
   0.19290257  0.07710396  0.00000000       0.036
   0.17806391  0.10280528  0.00000000       0.036
 
 k-points in reciprocal lattice and weights: K-Spacing Value to Generate K-Mesh: 0.02
   0.00000000  0.00000000  0.00000000       0.006
   0.07692308 -0.00000000  0.00000000       0.036
   0.15384615 -0.00000000  0.00000000       0.036
   0.23076923  0.00000000 -0.00000000       0.036
   0.30769231  0.00000000  0.00000000       0.036
   0.38461538  0.00000000 -0.00000000       0.036
   0.46153846  0.00000000 -0.00000000       0.036
   0.07692308  0.07692308  0.00000000       0.036
   0.15384615  0.07692308  0.00000000       0.071
   0.23076923  0.07692308  0.00000000       0.071
   0.30769231  0.07692308  0.00000000       0.071
   0.38461538  0.07692308  0.00000000       0.071
   0.46153846  0.07692308  0.00000000       0.036
   0.15384615  0.15384615  0.00000000       0.036
   0.23076923  0.15384615  0.00000000       0.071
   0.30769231  0.15384615  0.00000000       0.071
   0.38461538  0.15384615  0.00000000       0.071
   0.23076923  0.23076923  0.00000000       0.036
   0.30769231  0.23076923  0.00000000       0.071
   0.38461538  0.23076923  0.00000000       0.036
   0.30769231  0.30769231  0.00000000       0.036
 
 position of ions in fractional coordinates (direct lattice) 
   0.00000000  0.00000000  0.35704610
   0.33333300  0.66666700  0.41327410
   0.00000000  0.00000000  0.52578074
   0.33333300  0.66666700  0.58204384
   0.00000000  0.00000000  0.69456051
   0.33333300  0.66666700  0.75070254
   0.66666700  0.33333300  0.30086895
   0.66666700  0.33333300  0.46951754
   0.66666700  0.33333300  0.63830823
   0.00000000  0.00000000  0.27170522
   0.00000000  0.00000000  0.44140119
   0.00000000  0.00000000  0.61018344
   0.00000000  0.00000000  0.77989431
   0.66666700  0.33333300  0.38515192
   0.66666700  0.33333300  0.55392614
   0.66666700  0.33333300  0.72263832
   0.33333300  0.66666700  0.32893584
   0.33333300  0.66666700  0.49765923
   0.33333300  0.66666700  0.66640298
   0.00000000  0.00000000  0.02578863
   0.00000000  0.00000000  0.19075251
   0.66666700  0.33333300  0.13464408
   0.33333300  0.66666700  0.08056092
   0.00000000  0.00000000  0.86082048
   0.66666700  0.33333300  0.97101599
   0.33333300  0.66666700  0.91693127
 
 position of ions in cartesian coordinates  (Angst):
   0.00000000 -0.00000000 16.10474318
   0.86399315  1.49648257 18.64093559
   0.00000000 -0.00000000 23.71560387
   0.86399315  1.49648257 26.25337916
   0.00000000 -0.00000000 31.32849991
   0.86399315  1.49648257 33.86081447
   1.72798889 -0.00000150 13.57084469
   1.72798889 -0.00000150 21.17782429
   1.72798889 -0.00000150 28.79121272
   0.00000000 -0.00000000 12.25540037
   0.00000000 -0.00000000 19.90962203
   0.00000000 -0.00000000 27.52263027
   0.00000000 -0.00000000 35.17752413
   1.72798889 -0.00000150 17.37247029
   1.72798889 -0.00000150 24.98511635
   1.72798889 -0.00000150 32.59496368
   0.86399315  1.49648257 14.83681587
   0.86399315  1.49648257 22.44716936
   0.86399315  1.49648257 30.05844046
   0.00000000 -0.00000000  1.16320911
   0.00000000 -0.00000000  8.60398744
   1.72798889 -0.00000150  6.07318876
   0.86399315  1.49648257  3.63374069
   0.00000000 -0.00000000 38.82773937
   1.72798889 -0.00000150 43.79816318
   0.86399315  1.49648257 41.35864470
 


--------------------------------------------------------------------------------------------------------


 k-point  1 :   0.0000 0.0000 0.0000  plane waves:    9551
 k-point  2 :   0.0769-0.0000 0.0000  plane waves:    9551
 k-point  3 :   0.1538-0.0000 0.0000  plane waves:    9505
 k-point  4 :   0.2308 0.0000-0.0000  plane waves:    9474
 k-point  5 :   0.3077 0.0000 0.0000  plane waves:    9436
 k-point  6 :   0.3846 0.0000-0.0000  plane waves:    9362
 k-point  7 :   0.4615 0.0000-0.0000  plane waves:    9374
 k-point  8 :   0.0769 0.0769 0.0000  plane waves:    9529
 k-point  9 :   0.1538 0.0769 0.0000  plane waves:    9490
 k-point 10 :   0.2308 0.0769 0.0000  plane waves:    9437
 k-point 11 :   0.3077 0.0769 0.0000  plane waves:    9418
 k-point 12 :   0.3846 0.0769 0.0000  plane waves:    9380
 k-point 13 :   0.4615 0.0769 0.0000  plane waves:    9334
 k-point 14 :   0.1538 0.1538 0.0000  plane waves:    9447
 k-point 15 :   0.2308 0.1538 0.0000  plane waves:    9408
 k-point 16 :   0.3077 0.1538 0.0000  plane waves:    9404
 k-point 17 :   0.3846 0.1538 0.0000  plane waves:    9362
 k-point 18 :   0.2308 0.2308 0.0000  plane waves:    9428
 k-point 19 :   0.3077 0.2308 0.0000  plane waves:    9379
 k-point 20 :   0.3846 0.2308 0.0000  plane waves:    9394
 k-point 21 :   0.3077 0.3077 0.0000  plane waves:    9418

 maximum and minimum number of plane-waves per node :      2393     2325

 maximum number of plane-waves:      9551
 maximum index in each direction: 
   IXMAX=    5   IYMAX=    5   IZMAX=   83
   IXMIN=   -6   IYMIN=   -5   IZMIN=  -83

 NGX is ok and might be reduce to  24
 NGY is ok and might be reduce to  22
 NGZ is ok and might be reduce to 334

 parallel 3D FFT for wavefunctions:
    minimum data exchange during FFTs selected (reduces bandwidth)
 parallel 3D FFT for charge:
    minimum data exchange during FFTs selected (reduces bandwidth)


 total amount of memory used by VASP on root node   153547. kBytes
========================================================================

   base      :      30000. kBytes
   nonl-proj :      16667. kBytes
   fftplans  :      57935. kBytes
   grid      :      23224. kBytes
   one-center:         56. kBytes
   wavefun   :      25665. kBytes
 
     INWAV:  cpu time    0.00: real time    0.00
 Broyden mixing: mesh for mixing (old mesh)
   NGX = 11   NGY = 11   NGZ =167
  (NGX  = 48   NGY  = 48   NGZ  =672)
  gives a total of  20207 points

 initial charge density was supplied:
 charge density of overlapping atoms calculated
 number of electron      95.0000000 magnetization 
 keeping initial charge density in first step


--------------------------------------------------------------------------------------------------------


 Maximum index for augmentation-charges        22656 (set IRDMAX)


--------------------------------------------------------------------------------------------------------


 First call to EWALD:  gamma=   0.252
 Maximum number of real-space cells 7x 7x 1
 Maximum number of reciprocal cells 1x 1x15

 FEWALD executed in parallel
    FEWALD:  cpu time    0.00: real time    0.00


----------------------------------------- Iteration    1(   1)  ---------------------------------------


    POTLOK:  cpu time    0.11: real time    0.11
    SETDIJ:  cpu time    0.10: real time    0.10
     EDDAV:  cpu time    4.56: real time    4.60
       DOS:  cpu time    0.00: real time    0.00
    --------------------------------------------
      LOOP:  cpu time    4.78: real time    4.81

 eigenvalue-minimisations  :  2620
 total energy-change (2. order) : 0.4816587E+03  (-0.4097405E+04)
 number of electron      95.0000000 magnetization 
 augmentation part       95.0000000 magnetization 

 Free energy of the ion-electron system (eV)
  ---------------------------------------------------
  alpha Z        PSCENC =       115.55426389
  Ewald energy   TEWEN  =     19292.26758253
  -Hartree energ DENC   =    -23981.16222872
  -exchange      EXHF   =         0.00000000
  -V(xc)+E(xc)   XCENC  =      -420.61635945
  PAW double counting   =      4235.41334458    -3509.29226066
  entropy T*S    EENTRO =        -0.00431979
  eigenvalues    EBANDS =       253.13896920
  atomic energy  EATOM  =      4496.35971583
  ---------------------------------------------------
  free energy    TOTEN  =       481.65870740 eV

  energy without entropy =      481.66302719  energy(sigma->0) =      481.66086730


--------------------------------------------------------------------------------------------------------




----------------------------------------- Iteration    1(   2)  ---------------------------------------


     EDDAV:  cpu time    5.37: real time    5.38
       DOS:  cpu time    0.00: real time    0.00
    --------------------------------------------
      LOOP:  cpu time    5.37: real time    5.38

 eigenvalue-minimisations  :  3426
 total energy-change (2. order) :-0.5692311E+03  (-0.5375822E+03)
 number of electron      95.0000000 magnetization 
 augmentation part       95.0000000 magnetization 

 Free energy of the ion-electron system (eV)
  ---------------------------------------------------
  alpha Z        PSCENC =       115.55426389
  Ewald energy   TEWEN  =     19292.26758253
  -Hartree energ DENC   =    -23981.16222872
  -exchange      EXHF   =         0.00000000
  -V(xc)+E(xc)   XCENC  =      -420.61635945
  PAW double counting   =      4235.41334458    -3509.29226066
  entropy T*S    EENTRO =        -0.00569436
  eigenvalues    EBANDS =      -316.09076725
  atomic energy  EATOM  =      4496.35971583
  ---------------------------------------------------
  free energy    TOTEN  =       -87.57240363 eV

  energy without entropy =      -87.56670927  energy(sigma->0) =      -87.56955645


--------------------------------------------------------------------------------------------------------




----------------------------------------- Iteration    1(   3)  ---------------------------------------


     EDDAV:  cpu time    5.11: real time    5.12
       DOS:  cpu time    0.00: real time    0.00
    --------------------------------------------
      LOOP:  cpu time    5.11: real time    5.12

 eigenvalue-minimisations  :  3034
 total energy-change (2. order) :-0.5909411E+02  (-0.5869749E+02)
 number of electron      95.0000000 magnetization 
 augmentation part       95.0000000 magnetization 

 Free energy of the ion-electron system (eV)
  ---------------------------------------------------
  alpha Z        PSCENC =       115.55426389
  Ewald energy   TEWEN  =     19292.26758253
  -Hartree energ DENC   =    -23981.16222872
  -exchange      EXHF   =         0.00000000
  -V(xc)+E(xc)   XCENC  =      -420.61635945
  PAW double counting   =      4235.41334458    -3509.29226066
  entropy T*S    EENTRO =        -0.00569529
  eigenvalues    EBANDS =      -375.18487426
  atomic energy  EATOM  =      4496.35971583
  ---------------------------------------------------
  free energy    TOTEN  =      -146.66651157 eV

  energy without entropy =     -146.66081628  energy(sigma->0) =     -146.66366392


--------------------------------------------------------------------------------------------------------




----------------------------------------- Iteration    1(   4)  ---------------------------------------


     EDDAV:  cpu time    4.87: real time    4.88
       DOS:  cpu time    0.00: real time    0.00
    --------------------------------------------
      LOOP:  cpu time    4.88: real time    4.88

 eigenvalue-minimisations  :  3048
 total energy-change (2. order) :-0.8850901E+00  (-0.8827667E+00)
 number of electron      95.0000000 magnetization 
 augmentation part       95.0000000 magnetization 

 Free energy of the ion-electron system (eV)
  ---------------------------------------------------
  alpha Z        PSCENC =       115.55426389
  Ewald energy   TEWEN  =     19292.26758253
  -Hartree energ DENC   =    -23981.16222872
  -exchange      EXHF   =         0.00000000
  -V(xc)+E(xc)   XCENC  =      -420.61635945
  PAW double counting   =      4235.41334458    -3509.29226066
  entropy T*S    EENTRO =        -0.00488339
  eigenvalues    EBANDS =      -376.07077623
  atomic energy  EATOM  =      4496.35971583
  ---------------------------------------------------
  free energy    TOTEN  =      -147.55160163 eV

  energy without entropy =     -147.54671824  energy(sigma->0) =     -147.54915994


--------------------------------------------------------------------------------------------------------




----------------------------------------- Iteration    1(   5)  ---------------------------------------


     EDDAV:  cpu time    5.03: real time    5.03
       DOS:  cpu time    0.00: real time    0.00
    CHARGE:  cpu time    0.39: real time    0.39
    MIXING:  cpu time    0.01: real time    0.01
    --------------------------------------------
      LOOP:  cpu time    5.42: real time    5.43

 eigenvalue-minimisations  :  3098
 total energy-change (2. order) :-0.1695270E-01  (-0.1693854E-01)
 number of electron      95.0000001 magnetization 
 augmentation part        6.8971409 magnetization 

 Broyden mixing:
  rms(total) = 0.22032E+01    rms(broyden)= 0.22027E+01
  rms(prec ) = 0.22660E+01
  weight for this iteration     100.00

 Free energy of the ion-electron system (eV)
  ---------------------------------------------------
  alpha Z        PSCENC =       115.55426389
  Ewald energy   TEWEN  =     19292.26758253
  -Hartree energ DENC   =    -23981.16222872
  -exchange      EXHF   =         0.00000000
  -V(xc)+E(xc)   XCENC  =      -420.61635945
  PAW double counting   =      4235.41334458    -3509.29226066
  entropy T*S    EENTRO =        -0.00483435
  eigenvalues    EBANDS =      -376.08777797
  atomic energy  EATOM  =      4496.35971583
  ---------------------------------------------------
  free energy    TOTEN  =      -147.56855433 eV

  energy without entropy =     -147.56371998  energy(sigma->0) =     -147.56613715


--------------------------------------------------------------------------------------------------------




----------------------------------------- Iteration    1(   6)  ---------------------------------------


    POTLOK:  cpu time    0.11: real time    0.11
    SETDIJ:  cpu time    0.10: real time    0.10
     EDDAV:  cpu time    4.92: real time    4.93
       DOS:  cpu time    0.00: real time    0.00
    CHARGE:  cpu time    0.38: real time    0.38
    MIXING:  cpu time    0.01: real time    0.01
    --------------------------------------------
      LOOP:  cpu time    5.52: real time    5.53

 eigenvalue-minimisations  :  2944
 total energy-change (2. order) : 0.1515371E+02  (-0.8592325E+01)
 number of electron      95.0000001 magnetization 
 augmentation part        5.5628205 magnetization 

 Broyden mixing:
  rms(total) = 0.74792E+00    rms(broyden)= 0.74701E+00
  rms(prec ) = 0.75591E+00
  weight for this iteration     100.00

 eigenvalues of (default mixing * dielectric matrix)
  average eigenvalue GAMMA=   0.8355
  0.8355

 Free energy of the ion-electron system (eV)
  ---------------------------------------------------
  alpha Z        PSCENC =       115.55426389
  Ewald energy   TEWEN  =     19292.26758253
  -Hartree energ DENC   =    -24158.02551406
  -exchange      EXHF   =         0.00000000
  -V(xc)+E(xc)   XCENC  =      -408.40490146
  PAW double counting   =      4999.18678628    -4276.15219679
  entropy T*S    EENTRO =        -0.00236394
  eigenvalues    EBANDS =      -193.19822035
  atomic energy  EATOM  =      4496.35971583
  ---------------------------------------------------
  free energy    TOTEN  =      -132.41484807 eV

  energy without entropy =     -132.41248413  energy(sigma->0) =     -132.41366610


--------------------------------------------------------------------------------------------------------




----------------------------------------- Iteration    1(   7)  ---------------------------------------


    POTLOK:  cpu time    0.11: real time    0.11
    SETDIJ:  cpu time    0.10: real time    0.10
     EDDAV:  cpu time    4.81: real time    4.82
       DOS:  cpu time    0.00: real time    0.00
    CHARGE:  cpu time    0.38: real time    0.38
    MIXING:  cpu time    0.00: real time    0.00
    --------------------------------------------
      LOOP:  cpu time    5.41: real time    5.41

 eigenvalue-minimisations  :  2908
 total energy-change (2. order) : 0.1267838E+00  (-0.1799602E+00)
 number of electron      95.0000001 magnetization 
 augmentation part        5.6110632 magnetization 

 Broyden mixing:
  rms(total) = 0.45257E+00    rms(broyden)= 0.45256E+00
  rms(prec ) = 0.45695E+00
  weight for this iteration     100.00

 eigenvalues of (default mixing * dielectric matrix)
  average eigenvalue GAMMA=   1.6468
  0.9685  2.3250

 Free energy of the ion-electron system (eV)
  ---------------------------------------------------
  alpha Z        PSCENC =       115.55426389
  Ewald energy   TEWEN  =     19292.26758253
  -Hartree energ DENC   =    -24156.08903366
  -exchange      EXHF   =         0.00000000
  -V(xc)+E(xc)   XCENC  =      -408.13915212
  PAW double counting   =      5248.73914283    -4525.24097992
  entropy T*S    EENTRO =        -0.00111015
  eigenvalues    EBANDS =      -195.73849346
  atomic energy  EATOM  =      4496.35971583
  ---------------------------------------------------
  free energy    TOTEN  =      -132.28806422 eV

  energy without entropy =     -132.28695408  energy(sigma->0) =     -132.28750915


--------------------------------------------------------------------------------------------------------




----------------------------------------- Iteration    1(   8)  ---------------------------------------


    POTLOK:  cpu time    0.11: real time    0.11
    SETDIJ:  cpu time    0.10: real time    0.10
     EDDAV:  cpu time    4.93: real time    4.93
       DOS:  cpu time    0.00: real time    0.00
    CHARGE:  cpu time    0.38: real time    0.38
    MIXING:  cpu time    0.01: real time    0.01
    --------------------------------------------
      LOOP:  cpu time    5.52: real time    5.53

 eigenvalue-minimisations  :  3002
 total energy-change (2. order) : 0.8682200E-01  (-0.4774191E-01)
 number of electron      95.0000001 magnetization 
 augmentation part        5.6527837 magnetization 

 Broyden mixing:
  rms(total) = 0.79758E-01    rms(broyden)= 0.79724E-01
  rms(prec ) = 0.11018E+00
  weight for this iteration     100.00

 eigenvalues of (default mixing * dielectric matrix)
  average eigenvalue GAMMA=   1.3713
  2.4360  0.9214  0.7566

 Free energy of the ion-electron system (eV)
  ---------------------------------------------------
  alpha Z        PSCENC =       115.55426389
  Ewald energy   TEWEN  =     19292.26758253
  -Hartree energ DENC   =    -24163.07680672
  -exchange      EXHF   =         0.00000000
  -V(xc)+E(xc)   XCENC  =      -406.81704338
  PAW double counting   =      5683.93032531    -4960.11330293
  entropy T*S    EENTRO =        -0.00273834
  eigenvalues    EBANDS =      -190.30323840
  atomic energy  EATOM  =      4496.35971583
  ---------------------------------------------------
  free energy    TOTEN  =      -132.20124222 eV

  energy without entropy =     -132.19850388  energy(sigma->0) =     -132.19987305


--------------------------------------------------------------------------------------------------------




----------------------------------------- Iteration    1(   9)  ---------------------------------------


    POTLOK:  cpu time    0.10: real time    0.11
    SETDIJ:  cpu time    0.10: real time    0.10
     EDDAV:  cpu time    4.84: real time    4.85
       DOS:  cpu time    0.00: real time    0.00
    CHARGE:  cpu time    0.39: real time    0.39
    MIXING:  cpu time    0.01: real time    0.01
    --------------------------------------------
      LOOP:  cpu time    5.44: real time    5.45

 eigenvalue-minimisations  :  2932
 total energy-change (2. order) : 0.3091161E-01  (-0.9918278E-02)
 number of electron      95.0000001 magnetization 
 augmentation part        5.6364089 magnetization 

 Broyden mixing:
  rms(total) = 0.40193E-01    rms(broyden)= 0.40192E-01
  rms(prec ) = 0.41039E-01
  weight for this iteration     100.00

 eigenvalues of (default mixing * dielectric matrix)
  average eigenvalue GAMMA=   1.4143
  2.5313  1.4166  0.9648  0.7445

 Free energy of the ion-electron system (eV)
  ---------------------------------------------------
  alpha Z        PSCENC =       115.55426389
  Ewald energy   TEWEN  =     19292.26758253
  -Hartree energ DENC   =    -24166.93993527
  -exchange      EXHF   =         0.00000000
  -V(xc)+E(xc)   XCENC  =      -406.46442632
  PAW double counting   =      5715.76430961    -4991.97127887
  entropy T*S    EENTRO =        -0.00117555
  eigenvalues    EBANDS =      -186.73938646
  atomic energy  EATOM  =      4496.35971583
  ---------------------------------------------------
  free energy    TOTEN  =      -132.17033061 eV

  energy without entropy =     -132.16915506  energy(sigma->0) =     -132.16974284


--------------------------------------------------------------------------------------------------------




----------------------------------------- Iteration    1(  10)  ---------------------------------------


    POTLOK:  cpu time    0.11: real time    0.11
    SETDIJ:  cpu time    0.11: real time    0.11
     EDDAV:  cpu time    4.76: real time    4.76
       DOS:  cpu time    0.00: real time    0.00
    CHARGE:  cpu time    0.40: real time    0.40
    MIXING:  cpu time    0.01: real time    0.01
    --------------------------------------------
      LOOP:  cpu time    5.38: real time    5.39

 eigenvalue-minimisations  :  2916
 total energy-change (2. order) :-0.1409356E-02  (-0.3806888E-02)
 number of electron      95.0000001 magnetization 
 augmentation part        5.6154371 magnetization 

 Broyden mixing:
  rms(total) = 0.28313E-01    rms(broyden)= 0.28300E-01
  rms(prec ) = 0.28987E-01
  weight for this iteration     100.00

 eigenvalues of (default mixing * dielectric matrix)
  average eigenvalue GAMMA=   1.2691
  2.5110  1.6318  0.8969  0.8152  0.4908

 Free energy of the ion-electron system (eV)
  ---------------------------------------------------
  alpha Z        PSCENC =       115.55426389
  Ewald energy   TEWEN  =     19292.26758253
  -Hartree energ DENC   =    -24169.84210415
  -exchange      EXHF   =         0.00000000
  -V(xc)+E(xc)   XCENC  =      -406.22849140
  PAW double counting   =      5699.87189632    -4976.12317998
  entropy T*S    EENTRO =        -0.00118346
  eigenvalues    EBANDS =      -184.03023955
  atomic energy  EATOM  =      4496.35971583
  ---------------------------------------------------
  free energy    TOTEN  =      -132.17173997 eV

  energy without entropy =     -132.17055651  energy(sigma->0) =     -132.17114824


--------------------------------------------------------------------------------------------------------




----------------------------------------- Iteration    1(  11)  ---------------------------------------


    POTLOK:  cpu time    0.11: real time    0.11
    SETDIJ:  cpu time    0.10: real time    0.10
     EDDAV:  cpu time    5.06: real time    5.07
       DOS:  cpu time    0.00: real time    0.00
    CHARGE:  cpu time    0.38: real time    0.38
    MIXING:  cpu time    0.01: real time    0.01
    --------------------------------------------
      LOOP:  cpu time    5.65: real time    5.66

 eigenvalue-minimisations  :  3066
 total energy-change (2. order) : 0.4022767E-03  (-0.2362672E-03)
 number of electron      95.0000001 magnetization 
 augmentation part        5.6195203 magnetization 

 Broyden mixing:
  rms(total) = 0.17670E-01    rms(broyden)= 0.17670E-01
  rms(prec ) = 0.18319E-01
  weight for this iteration     100.00

 eigenvalues of (default mixing * dielectric matrix)
  average eigenvalue GAMMA=   1.4638
  2.9497  2.3759  0.9754  0.6700  0.9058  0.9058

 Free energy of the ion-electron system (eV)
  ---------------------------------------------------
  alpha Z        PSCENC =       115.55426389
  Ewald energy   TEWEN  =     19292.26758253
  -Hartree energ DENC   =    -24169.51623802
  -exchange      EXHF   =         0.00000000
  -V(xc)+E(xc)   XCENC  =      -406.24771178
  PAW double counting   =      5681.61402614    -4957.86402353
  entropy T*S    EENTRO =        -0.00118239
  eigenvalues    EBANDS =      -184.33777037
  atomic energy  EATOM  =      4496.35971583
  ---------------------------------------------------
  free energy    TOTEN  =      -132.17133769 eV

  energy without entropy =     -132.17015531  energy(sigma->0) =     -132.17074650


--------------------------------------------------------------------------------------------------------




----------------------------------------- Iteration    1(  12)  ---------------------------------------


    POTLOK:  cpu time    0.11: real time    0.11
    SETDIJ:  cpu time    0.10: real time    0.10
     EDDAV:  cpu time    6.09: real time    6.10
       DOS:  cpu time    0.00: real time    0.00
    CHARGE:  cpu time    0.38: real time    0.38
    MIXING:  cpu time    0.00: real time    0.00
    --------------------------------------------
      LOOP:  cpu time    6.69: real time    6.70

 eigenvalue-minimisations  :  3964
 total energy-change (2. order) :-0.3511256E-05  (-0.2420160E-03)
 number of electron      95.0000001 magnetization 
 augmentation part        5.6204053 magnetization 

 Broyden mixing:
  rms(total) = 0.51800E-02    rms(broyden)= 0.51759E-02
  rms(prec ) = 0.64391E-02
  weight for this iteration     100.00

 eigenvalues of (default mixing * dielectric matrix)
  average eigenvalue GAMMA=   1.4046
  2.9384  2.5276  0.9825  0.9825  0.8884  0.8884  0.6247

 Free energy of the ion-electron system (eV)
  ---------------------------------------------------
  alpha Z        PSCENC =       115.55426389
  Ewald energy   TEWEN  =     19292.26758253
  -Hartree energ DENC   =    -24170.07117034
  -exchange      EXHF   =         0.00000000
  -V(xc)+E(xc)   XCENC  =      -406.21181975
  PAW double counting   =      5651.52905669    -4927.79380218
  entropy T*S    EENTRO =        -0.00117873
  eigenvalues    EBANDS =      -183.80398914
  atomic energy  EATOM  =      4496.35971583
  ---------------------------------------------------
  free energy    TOTEN  =      -132.17134121 eV

  energy without entropy =     -132.17016247  energy(sigma->0) =     -132.17075184


--------------------------------------------------------------------------------------------------------




----------------------------------------- Iteration    1(  13)  ---------------------------------------


    POTLOK:  cpu time    0.11: real time    0.11
    SETDIJ:  cpu time    0.10: real time    0.10
     EDDAV:  cpu time    4.87: real time    4.88
       DOS:  cpu time    0.00: real time    0.00
    CHARGE:  cpu time    0.38: real time    0.38
    MIXING:  cpu time    0.00: real time    0.00
    --------------------------------------------
      LOOP:  cpu time    5.46: real time    5.47

 eigenvalue-minimisations  :  2976
 total energy-change (2. order) : 0.6792048E-04  (-0.7186973E-04)
 number of electron      95.0000001 magnetization 
 augmentation part        5.6220120 magnetization 

 Broyden mixing:
  rms(total) = 0.30910E-02    rms(broyden)= 0.30896E-02
  rms(prec ) = 0.45829E-02
  weight for this iteration     100.00

 eigenvalues of (default mixing * dielectric matrix)
  average eigenvalue GAMMA=   1.4082
  2.9135  2.6236  1.2525  1.0138  1.0138  1.0074  0.6518  0.7894

 Free energy of the ion-electron system (eV)
  ---------------------------------------------------
  alpha Z        PSCENC =       115.55426389
  Ewald energy   TEWEN  =     19292.26758253
  -Hartree energ DENC   =    -24169.98111289
  -exchange      EXHF   =         0.00000000
  -V(xc)+E(xc)   XCENC  =      -406.23132902
  PAW double counting   =      5646.69074088    -4922.95317690
  entropy T*S    EENTRO =        -0.00116911
  eigenvalues    EBANDS =      -183.87678850
  atomic energy  EATOM  =      4496.35971583
  ---------------------------------------------------
  free energy    TOTEN  =      -132.17127328 eV

  energy without entropy =     -132.17010418  energy(sigma->0) =     -132.17068873


--------------------------------------------------------------------------------------------------------




----------------------------------------- Iteration    1(  14)  ---------------------------------------


    POTLOK:  cpu time    0.10: real time    0.10
    SETDIJ:  cpu time    0.10: real time    0.10
     EDDAV:  cpu time    4.80: real time    4.81
       DOS:  cpu time    0.00: real time    0.00
    CHARGE:  cpu time    0.38: real time    0.38
    MIXING:  cpu time    0.00: real time    0.00
    --------------------------------------------
      LOOP:  cpu time    5.39: real time    5.40

 eigenvalue-minimisations  :  2918
 total energy-change (2. order) : 0.9201104E-04  (-0.2005783E-04)
 number of electron      95.0000001 magnetization 
 augmentation part        5.6222796 magnetization 

 Broyden mixing:
  rms(total) = 0.18383E-02    rms(broyden)= 0.18373E-02
  rms(prec ) = 0.35958E-02
  weight for this iteration     100.00

 eigenvalues of (default mixing * dielectric matrix)
  average eigenvalue GAMMA=   1.3794
  2.8357  2.4071  1.8481  0.9409  0.9409  0.6396  0.9644  0.9644  0.8732

 Free energy of the ion-electron system (eV)
  ---------------------------------------------------
  alpha Z        PSCENC =       115.55426389
  Ewald energy   TEWEN  =     19292.26758253
  -Hartree energ DENC   =    -24170.16711275
  -exchange      EXHF   =         0.00000000
  -V(xc)+E(xc)   XCENC  =      -406.23535945
  PAW double counting   =      5646.14013636    -4922.40119181
  entropy T*S    EENTRO =        -0.00116587
  eigenvalues    EBANDS =      -183.68804999
  atomic energy  EATOM  =      4496.35971583
  ---------------------------------------------------
  free energy    TOTEN  =      -132.17118127 eV

  energy without entropy =     -132.17001541  energy(sigma->0) =     -132.17059834


--------------------------------------------------------------------------------------------------------




----------------------------------------- Iteration    1(  15)  ---------------------------------------


    POTLOK:  cpu time    0.11: real time    0.11
    SETDIJ:  cpu time    0.10: real time    0.10
     EDDAV:  cpu time    4.55: real time    4.56
       DOS:  cpu time    0.00: real time    0.00
    CHARGE:  cpu time    0.39: real time    0.39
    MIXING:  cpu time    0.01: real time    0.01
    --------------------------------------------
      LOOP:  cpu time    5.16: real time    5.17

 eigenvalue-minimisations  :  2706
 total energy-change (2. order) : 0.7288302E-04  (-0.4689308E-05)
 number of electron      95.0000001 magnetization 
 augmentation part        5.6215111 magnetization 

 Broyden mixing:
  rms(total) = 0.17007E-02    rms(broyden)= 0.17005E-02
  rms(prec ) = 0.33308E-02
  weight for this iteration     100.00

 eigenvalues of (default mixing * dielectric matrix)
  average eigenvalue GAMMA=   1.4649
  3.0598  2.7739  2.2604  1.0158  1.0158  0.9949  0.9949  1.0455  0.6418  0.8466

 Free energy of the ion-electron system (eV)
  ---------------------------------------------------
  alpha Z        PSCENC =       115.55426389
  Ewald energy   TEWEN  =     19292.26758253
  -Hartree energ DENC   =    -24170.48109467
  -exchange      EXHF   =         0.00000000
  -V(xc)+E(xc)   XCENC  =      -406.22749552
  PAW double counting   =      5648.22518111    -4924.48706466
  entropy T*S    EENTRO =        -0.00116338
  eigenvalues    EBANDS =      -183.38103352
  atomic energy  EATOM  =      4496.35971583
  ---------------------------------------------------
  free energy    TOTEN  =      -132.17110839 eV

  energy without entropy =     -132.16994501  energy(sigma->0) =     -132.17052670


--------------------------------------------------------------------------------------------------------




----------------------------------------- Iteration    1(  16)  ---------------------------------------


    POTLOK:  cpu time    0.11: real time    0.11
    SETDIJ:  cpu time    0.10: real time    0.10
     EDDAV:  cpu time    5.81: real time    5.81
       DOS:  cpu time    0.00: real time    0.00
    CHARGE:  cpu time    0.40: real time    0.40
    MIXING:  cpu time    0.01: real time    0.01
    --------------------------------------------
      LOOP:  cpu time    6.42: real time    6.43

 eigenvalue-minimisations  :  3670
 total energy-change (2. order) : 0.2148942E-03  (-0.1556806E-04)
 number of electron      95.0000001 magnetization 
 augmentation part        5.6213762 magnetization 

 Broyden mixing:
  rms(total) = 0.15008E-02    rms(broyden)= 0.15004E-02
  rms(prec ) = 0.26222E-02
  weight for this iteration     100.00

 eigenvalues of (default mixing * dielectric matrix)
  average eigenvalue GAMMA=   1.4753
  3.5307  2.7819  2.2877  0.9855  0.9855  1.2766  1.0568  1.0568  0.8995  0.6431
  0.7246

 Free energy of the ion-electron system (eV)
  ---------------------------------------------------
  alpha Z        PSCENC =       115.55426389
  Ewald energy   TEWEN  =     19292.26758253
  -Hartree energ DENC   =    -24171.19490179
  -exchange      EXHF   =         0.00000000
  -V(xc)+E(xc)   XCENC  =      -406.23025762
  PAW double counting   =      5646.00870773    -4922.26995573
  entropy T*S    EENTRO =        -0.00115292
  eigenvalues    EBANDS =      -182.66489541
  atomic energy  EATOM  =      4496.35971583
  ---------------------------------------------------
  free energy    TOTEN  =      -132.17089350 eV

  energy without entropy =     -132.16974058  energy(sigma->0) =     -132.17031704


--------------------------------------------------------------------------------------------------------




----------------------------------------- Iteration    1(  17)  ---------------------------------------


    POTLOK:  cpu time    0.11: real time    0.11
    SETDIJ:  cpu time    0.10: real time    0.10
     EDDAV:  cpu time    5.84: real time    5.85
       DOS:  cpu time    0.00: real time    0.00
    CHARGE:  cpu time    0.39: real time    0.39
    MIXING:  cpu time    0.01: real time    0.01
    --------------------------------------------
      LOOP:  cpu time    6.45: real time    6.46

 eigenvalue-minimisations  :  3776
 total energy-change (2. order) : 0.1449254E-03  (-0.2739011E-04)
 number of electron      95.0000001 magnetization 
 augmentation part        5.6216328 magnetization 

 Broyden mixing:
  rms(total) = 0.21371E-02    rms(broyden)= 0.21366E-02
  rms(prec ) = 0.24904E-02
  weight for this iteration     100.00

 eigenvalues of (default mixing * dielectric matrix)
  average eigenvalue GAMMA=   1.4962
  4.2159  2.7966  2.3338  1.5254  0.9849  0.9849  1.0781  0.9774  0.9774  0.6398
  0.7203  0.7203

 Free energy of the ion-electron system (eV)
  ---------------------------------------------------
  alpha Z        PSCENC =       115.55426389
  Ewald energy   TEWEN  =     19292.26758253
  -Hartree energ DENC   =    -24171.89695510
  -exchange      EXHF   =         0.00000000
  -V(xc)+E(xc)   XCENC  =      -406.23640120
  PAW double counting   =      5644.89593631    -4921.15533522
  entropy T*S    EENTRO =        -0.00114355
  eigenvalues    EBANDS =      -181.95841206
  atomic energy  EATOM  =      4496.35971583
  ---------------------------------------------------
  free energy    TOTEN  =      -132.17074857 eV

  energy without entropy =     -132.16960502  energy(sigma->0) =     -132.17017680


--------------------------------------------------------------------------------------------------------




----------------------------------------- Iteration    1(  18)  ---------------------------------------


    POTLOK:  cpu time    0.10: real time    0.10
    SETDIJ:  cpu time    0.10: real time    0.10
     EDDAV:  cpu time    5.44: real time    5.45
       DOS:  cpu time    0.00: real time    0.00
    CHARGE:  cpu time    0.38: real time    0.38
    MIXING:  cpu time    0.01: real time    0.01
    --------------------------------------------
      LOOP:  cpu time    6.04: real time    6.04

 eigenvalue-minimisations  :  3474
 total energy-change (2. order) : 0.5549568E-04  (-0.2905873E-04)
 number of electron      95.0000001 magnetization 
 augmentation part        5.6221065 magnetization 

 Broyden mixing:
  rms(total) = 0.15364E-02    rms(broyden)= 0.15359E-02
  rms(prec ) = 0.16272E-02
  weight for this iteration     100.00

 eigenvalues of (default mixing * dielectric matrix)
  average eigenvalue GAMMA=   1.5649
  5.5318  2.8288  2.3162  1.8005  0.9916  0.9916  1.0417  1.0417  0.8528  0.8528
  0.8598  0.6376  0.5971

 Free energy of the ion-electron system (eV)
  ---------------------------------------------------
  alpha Z        PSCENC =       115.55426389
  Ewald energy   TEWEN  =     19292.26758253
  -Hartree energ DENC   =    -24172.47258382
  -exchange      EXHF   =         0.00000000
  -V(xc)+E(xc)   XCENC  =      -406.24028464
  PAW double counting   =      5646.15168731    -4922.40933224
  entropy T*S    EENTRO =        -0.00113443
  eigenvalues    EBANDS =      -181.38060750
  atomic energy  EATOM  =      4496.35971583
  ---------------------------------------------------
  free energy    TOTEN  =      -132.17069308 eV

  energy without entropy =     -132.16955864  energy(sigma->0) =     -132.17012586


--------------------------------------------------------------------------------------------------------




----------------------------------------- Iteration    1(  19)  ---------------------------------------


    POTLOK:  cpu time    0.10: real time    0.10
    SETDIJ:  cpu time    0.10: real time    0.10
     EDDAV:  cpu time    4.75: real time    4.75
       DOS:  cpu time    0.00: real time    0.00
    CHARGE:  cpu time    0.38: real time    0.38
    MIXING:  cpu time    0.01: real time    0.01
    --------------------------------------------
      LOOP:  cpu time    5.34: real time    5.35

 eigenvalue-minimisations  :  2888
 total energy-change (2. order) :-0.6553410E-05  (-0.2127511E-04)
 number of electron      95.0000001 magnetization 
 augmentation part        5.6222159 magnetization 

 Broyden mixing:
  rms(total) = 0.15734E-02    rms(broyden)= 0.15731E-02
  rms(prec ) = 0.16066E-02
  weight for this iteration     100.00

 eigenvalues of (default mixing * dielectric matrix)
  average eigenvalue GAMMA=   1.4949
  5.1614  2.8103  2.3217  0.7944  1.7153  1.0226  1.0226  1.0635  1.0635  0.9135
  0.9135  0.8691  0.6384  0.6182

 Free energy of the ion-electron system (eV)
  ---------------------------------------------------
  alpha Z        PSCENC =       115.55426389
  Ewald energy   TEWEN  =     19292.26758253
  -Hartree energ DENC   =    -24172.70854305
  -exchange      EXHF   =         0.00000000
  -V(xc)+E(xc)   XCENC  =      -406.23929486
  PAW double counting   =      5646.20783289    -4922.46646347
  entropy T*S    EENTRO =        -0.00112897
  eigenvalues    EBANDS =      -181.14466442
  atomic energy  EATOM  =      4496.35971583
  ---------------------------------------------------
  free energy    TOTEN  =      -132.17069963 eV

  energy without entropy =     -132.16957066  energy(sigma->0) =     -132.17013515


--------------------------------------------------------------------------------------------------------




----------------------------------------- Iteration    1(  20)  ---------------------------------------


    POTLOK:  cpu time    0.10: real time    0.10
    SETDIJ:  cpu time    0.10: real time    0.10
     EDDAV:  cpu time    4.11: real time    4.11
       DOS:  cpu time    0.00: real time    0.00
    --------------------------------------------
      LOOP:  cpu time    4.31: real time    4.32

 eigenvalue-minimisations  :  2290
 total energy-change (2. order) : 0.9071236E-06  (-0.2838820E-05)
 number of electron      95.0000001 magnetization 
 augmentation part        5.6222159 magnetization 

 Free energy of the ion-electron system (eV)
  ---------------------------------------------------
  alpha Z        PSCENC =       115.55426389
  Ewald energy   TEWEN  =     19292.26758253
  -Hartree energ DENC   =    -24172.70947255
  -exchange      EXHF   =         0.00000000
  -V(xc)+E(xc)   XCENC  =      -406.23859455
  PAW double counting   =      5646.40304667    -4922.66227876
  entropy T*S    EENTRO =        -0.00112884
  eigenvalues    EBANDS =      -181.14383294
  atomic energy  EATOM  =      4496.35971583
  ---------------------------------------------------
  free energy    TOTEN  =      -132.17069872 eV

  energy without entropy =     -132.16956989  energy(sigma->0) =     -132.17013430


--------------------------------------------------------------------------------------------------------




 average (electrostatic) potential at core
  the test charge radii are     0.7215  1.0714  1.0406
  (the norm of the test charge is              1.0000)
       1 -70.4981       2 -70.4860       3 -70.5040       4 -70.5118       5 -70.5002
       6 -70.6051       7 -70.6139       8 -70.4937       9 -70.5138      10 -36.5788
      11 -36.1490      12 -36.1748      13 -36.5765      14 -36.1472      15 -36.1705
      16 -36.1654      17 -36.1733      18 -36.1614      19 -36.1649      20 -75.1208
      21 -75.1914      22 -75.0907      23 -75.0555      24 -75.1914      25 -75.0555
      26 -75.0908
 
 
 
 E-fermi :   5.6974     XC(G=0):  -9.9825     alpha+bet :-11.7229


 k-point     1 :       0.0000    0.0000    0.0000
  band No.  band energies     occupation 
      1     -14.7373      2.00000
      2     -14.6740      2.00000
      3     -14.5744      2.00000
      4     -14.4389      2.00000
      5     -14.2784      2.00000
      6     -14.1068      2.00000
      7     -13.9423      2.00000
      8     -13.8051      2.00000
      9     -13.7145      2.00000
     10      -4.3029      2.00000
     11      -3.9513      2.00000
     12      -3.3755      2.00000
     13      -2.6631      2.00000
     14      -2.2297      2.00000
     15      -2.0630      2.00000
     16      -1.8037      2.00000
     17      -1.7501      2.00000
     18      -1.3034      2.00000
     19      -0.8426      2.00000
     20      -0.6128      2.00000
     21      -0.1545      2.00000
     22       0.5450      2.00000
     23       0.5697      2.00000
     24       1.2470      2.00000
     25       1.7554      2.00000
     26       1.8172      2.00000
     27       1.8172      2.00000
     28       1.8519      2.00000
     29       1.8519      2.00000
     30       1.9028      2.00000
     31       1.9028      2.00000
     32       1.9727      2.00000
     33       1.9727      2.00000
     34       2.0542      2.00000
     35       2.0542      2.00000
     36       2.0769      2.00000
     37       2.1399      2.00000
     38       2.1399      2.00000
     39       2.2207      2.00000
     40       2.2207      2.00000
     41       2.2861      2.00000
     42       2.2861      2.00000
     43       2.3300      2.00000
     44       2.3300      2.00000
     45       2.9033      2.00000
     46       3.5179      2.00000
     47       4.4632      2.00000
     48       5.8665      0.00000
     49       6.6274      0.00000
     50       7.1969      0.00000
     51       7.2745      0.00000
     52       8.0702      0.00000
     53       8.2785      0.00000
     54       9.0751      0.00000
     55       9.1235      0.00000
     56       9.7218      0.00000
     57       9.8153      0.00000
     58      10.0253      0.00000
     59      10.2657      0.00000
     60      11.6514      0.00000
     61      13.0408      0.00000
     62      13.8044      0.00000

 k-point     2 :       0.0769   -0.0000    0.0000
  band No.  band energies     occupation 
      1     -14.6848      2.00000
      2     -14.6230      2.00000
      3     -14.5259      2.00000
      4     -14.3938      2.00000
      5     -14.2372      2.00000
      6     -14.0703      2.00000
      7     -13.9103      2.00000
      8     -13.7770      2.00000
      9     -13.6893      2.00000
     10      -4.1726      2.00000
     11      -3.8212      2.00000
     12      -3.2458      2.00000
     13      -2.5340      2.00000
     14      -2.1486      2.00000
     15      -1.9845      2.00000
     16      -1.6840      2.00000
     17      -1.6794      2.00000
     18      -1.2534      2.00000
     19      -0.7909      2.00000
     20      -0.5159      2.00000
     21      -0.1594      2.00000
     22       0.4934      2.00000
     23       0.6787      2.00000
     24       1.1451      2.00000
     25       1.5826      2.00000
     26       1.6022      2.00000
     27       1.6295      2.00000
     28       1.6936      2.00000
     29       1.7708      2.00000
     30       1.7732      2.00000
     31       1.8083      2.00000
     32       1.8596      2.00000
     33       1.8664      2.00000
     34       1.9299      2.00000
     35       1.9301      2.00000
     36       1.9914      2.00000
     37       2.0124      2.00000
     38       2.0568      2.00000
     39       2.0988      2.00000
     40       2.0988      2.00000
     41       2.1767      2.00000
     42       2.1803      2.00000
     43       2.2464      2.00000
     44       2.2907      2.00000
     45       3.0330      2.00000
     46       3.6524      2.00000
     47       4.6026      2.00000
     48       6.0152      0.00000
     49       6.9560      0.00000
     50       7.4634      0.00000
     51       7.4725      0.00000
     52       8.2676      0.00000
     53       8.4972      0.00000
     54       9.2911      0.00000
     55       9.3219      0.00000
     56       9.9692      0.00000
     57      10.0533      0.00000
     58      10.3060      0.00000
     59      10.4593      0.00000
     60      11.7381      0.00000
     61      13.0565      0.00000
     62      13.7360      0.00000

 k-point     3 :       0.1538   -0.0000    0.0000
  band No.  band energies     occupation 
      1     -14.5344      2.00000
      2     -14.4770      2.00000
      3     -14.3875      2.00000
      4     -14.2655      2.00000
      5     -14.1211      2.00000
      6     -13.9676      2.00000
      7     -13.8209      2.00000
      8     -13.6992      2.00000
      9     -13.6193      2.00000
     10      -3.7825      2.00000
     11      -3.4318      2.00000
     12      -2.8575      2.00000
     13      -2.1480      2.00000
     14      -1.9137      2.00000
     15      -1.7635      2.00000
     16      -1.5018      2.00000
     17      -1.3144      2.00000
     18      -1.1177      2.00000
     19      -0.7245      2.00000
     20      -0.2345      2.00000
     21      -0.1795      2.00000
     22       0.2627      2.00000
     23       0.6440      2.00000
     24       0.9519      2.00000
     25       1.0064      2.00000
     26       1.0584      2.00000
     27       1.0831      2.00000
     28       1.1579      2.00000
     29       1.1944      2.00000
     30       1.3477      2.00000
     31       1.5040      2.00000
     32       1.6547      2.00000
     33       1.6661      2.00000
     34       1.6905      2.00000
     35       1.7429      2.00000
     36       1.7971      2.00000
     37       1.8149      2.00000
     38       1.8989      2.00000
     39       1.9038      2.00000
     40       1.9871      2.00000
     41       2.0705      2.00000
     42       2.1381      2.00000
     43       2.1833      2.00000
     44       2.4928      2.00000
     45       3.3549      2.00000
     46       3.9894      2.00000
     47       4.9702      2.00000
     48       6.4049      0.00000
     49       7.6953      0.00000
     50       7.9470      0.00000
     51       8.1381      0.00000
     52       8.7805      0.00000
     53       9.0335      0.00000
     54       9.7714      0.00000
     55       9.8276      0.00000
     56      10.5485      0.00000
     57      10.5963      0.00000
     58      10.8745      0.00000
     59      10.9789      0.00000
     60      11.0195      0.00000
     61      11.2253      0.00000
     62      11.5843      0.00000

 k-point     4 :       0.2308    0.0000   -0.0000
  band No.  band energies     occupation 
      1     -14.3077      2.00000
      2     -14.2579      2.00000
      3     -14.1808      2.00000
      4     -14.0753      2.00000
      5     -13.9508      2.00000
      6     -13.8188      2.00000
      7     -13.6934      2.00000
      8     -13.5900      2.00000
      9     -13.5221      2.00000
     10      -3.1345      2.00000
     11      -2.7850      2.00000
     12      -2.2125      2.00000
     13      -1.5648      2.00000
     14      -1.5058      2.00000
     15      -1.4464      2.00000
     16      -1.2660      2.00000
     17      -1.0497      2.00000
     18      -0.7919      2.00000
     19      -0.6652      2.00000
     20      -0.5088      2.00000
     21      -0.2719      2.00000
     22      -0.0432      2.00000
     23       0.1368      2.00000
     24       0.2485      2.00000
     25       0.2958      2.00000
     26       0.4540      2.00000
     27       0.4684      2.00000
     28       0.6906      2.00000
     29       0.9471      2.00000
     30       1.2140      2.00000
     31       1.4416      2.00000
     32       1.4952      2.00000
     33       1.5316      2.00000
     34       1.5853      2.00000
     35       1.6081      2.00000
     36       1.6589      2.00000
     37       1.7139      2.00000
     38       1.7447      2.00000
     39       1.7807      2.00000
     40       1.8350      2.00000
     41       1.9203      2.00000
     42       1.9896      2.00000
     43       2.0359      2.00000
     44       3.0514      2.00000
     45       3.8718      2.00000
     46       4.5079      2.00000
     47       5.5299      2.00000
     48       6.9585      0.00000
     49       8.1424      0.00000
     50       8.6054      0.00000
     51       8.6229      0.00000
[...]
     45       5.1086      2.00000
     46       5.2897      2.00000
     47       5.5239      1.99993
     48       5.6899      0.46312
     49       5.9303      0.00000
     50       6.1297      0.00000
     51       6.2388      0.00000
     52       6.4551      0.00000
     53       6.9028      0.00000
     54       7.0734      0.00000
     55       7.8668      0.00000
     56       7.9003      0.00000
     57       8.3606      0.00000
     58       9.2146      0.00000
     59       9.4699      0.00000
     60       9.7275      0.00000
     61      10.4143      0.00000
     62      10.6315      0.00000

 k-point    19 :       0.3077    0.2308    0.0000
  band No.  band energies     occupation 
      1     -13.7327      2.00000
      2     -13.7198      2.00000
      3     -13.6965      2.00000
      4     -13.6624      2.00000
      5     -13.6201      2.00000
      6     -13.5797      2.00000
      7     -13.5384      2.00000
      8     -13.5064      2.00000
      9     -13.4820      2.00000
     10      -1.7033      2.00000
     11      -1.6050      2.00000
     12      -1.4656      2.00000
     13      -1.4539      2.00000
     14      -1.3960      2.00000
     15      -1.3345      2.00000
     16      -1.2821      2.00000
     17      -1.1333      2.00000
     18      -0.9788      2.00000
     19      -0.5677      2.00000
     20      -0.4169      2.00000
     21      -0.2714      2.00000
     22      -0.0926      2.00000
     23      -0.0737      2.00000
     24       0.0306      2.00000
     25       0.1078      2.00000
     26       0.1385      2.00000
     27       0.2393      2.00000
     28       0.3196      2.00000
     29       0.3765      2.00000
     30       0.4855      2.00000
     31       0.5505      2.00000
     32       0.7055      2.00000
     33       0.8745      2.00000
     34       0.9469      2.00000
     35       0.9916      2.00000
     36       1.0587      2.00000
     37       1.1656      2.00000
     38       1.2554      2.00000
     39       1.3672      2.00000
     40       1.7779      2.00000
     41       2.8015      2.00000
     42       3.1724      2.00000
     43       3.5409      2.00000
     44       3.9119      2.00000
     45       4.2843      2.00000
     46       4.7580      2.00000
     47       4.9986      2.00000
     48       5.1430      2.00000
     49       5.5564      1.99766
     50       5.8646      0.00000
     51       6.1540      0.00000
     52       6.6646      0.00000
     53       6.7489      0.00000
     54       6.9519      0.00000
     55       7.2799      0.00000
     56       7.4507      0.00000
     57       7.8545      0.00000
     58       8.7993      0.00000
     59       9.0043      0.00000
     60       9.1661      0.00000
     61       9.6311      0.00000
     62       9.7470      0.00000

 k-point    20 :       0.3846    0.2308    0.0000
  band No.  band energies     occupation 
      1     -13.6412      2.00000
      2     -13.6352      2.00000
      3     -13.6233      2.00000
      4     -13.6051      2.00000
      5     -13.5827      2.00000
      6     -13.5609      2.00000
      7     -13.5360      2.00000
      8     -13.5173      2.00000
      9     -13.5007      2.00000
     10      -1.7868      2.00000
     11      -1.6802      2.00000
     12      -1.5162      2.00000
     13      -1.3352      2.00000
     14      -1.3300      2.00000
     15      -1.3043      2.00000
     16      -1.2574      2.00000
     17      -1.2083      2.00000
     18      -1.2034      2.00000
     19      -0.3839      2.00000
     20      -0.3628      2.00000
     21      -0.3097      2.00000
     22      -0.2565      2.00000
     23      -0.2527      2.00000
     24      -0.1918      2.00000
     25      -0.0518      2.00000
     26       0.1251      2.00000
     27       0.3030      2.00000
     28       0.5953      2.00000
     29       0.6178      2.00000
     30       0.7973      2.00000
     31       0.8432      2.00000
     32       0.9187      2.00000
     33       1.0154      2.00000
     34       1.1521      2.00000
     35       1.2369      2.00000
     36       1.2435      2.00000
     37       1.4323      2.00000
     38       1.4340      2.00000
     39       1.8122      2.00000
     40       1.8250      2.00000
     41       2.4050      2.00000
     42       2.4674      2.00000
     43       3.1801      2.00000
     44       3.2846      2.00000
     45       4.1162      2.00000
     46       4.5480      2.00000
     47       4.6507      2.00000
     48       4.9957      2.00000
     49       5.4103      2.00000
     50       5.5003      2.00000
     51       5.9772      0.00000
     52       6.6240      0.00000
     53       7.1126      0.00000
     54       7.3948      0.00000
     55       7.6039      0.00000
     56       7.6885      0.00000
     57       7.6900      0.00000
     58       8.2042      0.00000
     59       8.6584      0.00000
     60       8.9082      0.00000
     61       8.9879      0.00000
     62       9.0959      0.00000

 k-point    21 :       0.3077    0.3077    0.0000
  band No.  band energies     occupation 
      1     -13.6112      2.00000
      2     -13.6064      2.00000
      3     -13.5925      2.00000
      4     -13.5782      2.00000
      5     -13.5624      2.00000
      6     -13.5473      2.00000
      7     -13.5297      2.00000
      8     -13.5179      2.00000
      9     -13.5054      2.00000
     10      -1.4317      2.00000
     11      -1.4304      2.00000
     12      -1.3398      2.00000
     13      -1.3321      2.00000
     14      -1.2270      2.00000
     15      -1.1756      2.00000
     16      -1.0356      2.00000
     17      -1.0091      2.00000
     18      -0.9200      2.00000
     19      -0.8026      2.00000
     20      -0.7501      2.00000
     21      -0.5964      2.00000
     22      -0.5451      2.00000
     23      -0.4563      2.00000
     24      -0.3201      2.00000
     25      -0.2998      2.00000
     26      -0.1437      2.00000
     27      -0.1401      2.00000
     28       0.6037      2.00000
     29       0.6225      2.00000
     30       0.8226      2.00000
     31       0.9500      2.00000
     32       1.0052      2.00000
     33       1.0579      2.00000
     34       1.0643      2.00000
     35       1.0910      2.00000
     36       1.2012      2.00000
     37       1.3088      2.00000
     38       1.6967      2.00000
     39       2.3124      2.00000
     40       2.9196      2.00000
     41       2.9246      2.00000
     42       3.1185      2.00000
     43       3.3019      2.00000
     44       3.3071      2.00000
     45       3.8707      2.00000
     46       3.9019      2.00000
     47       4.0518      2.00000
     48       4.5922      2.00000
     49       4.9178      2.00000
     50       5.4011      2.00000
     51       5.9517      0.00000
     52       6.1632      0.00000
     53       7.1193      0.00000
     54       7.1305      0.00000
     55       7.3155      0.00000
     56       7.7246      0.00000
     57       7.8187      0.00000
     58       8.3977      0.00000
     59       8.5698      0.00000
     60       8.8573      0.00000
     61       9.3944      0.00000
     62       9.5345      0.00000


--------------------------------------------------------------------------------------------------------


 soft charge-density along one line, spin component           1
         0         1         2         3         4         5         6         7         8         9
 total charge-density along one line
 
 pseudopotential strength for first ion, spin component:           1
 12.257   0.000 -14.920   0.000  -0.000   0.000  -0.000   0.000   0.000   0.000   0.000   0.000   0.000   0.000  -0.000   0.000
-14.920   0.000  18.181   0.000   0.000   0.000   0.000   0.000  -0.000   0.000  -0.000   0.000  -0.000   0.000   0.000   0.000
 -0.000   0.000   0.000   0.000  -8.415   0.000  -0.000   0.000   0.000   0.000  10.094   0.000   0.000   0.000  -0.000   0.000
 -0.000   0.000   0.000   0.000  -0.000   0.000  -8.417   0.000   0.000   0.000   0.000   0.000  10.097   0.000  -0.000   0.000
  0.000   0.000  -0.000   0.000   0.000   0.000   0.000   0.000  -8.415   0.000  -0.000   0.000  -0.000   0.000  10.094   0.000
  0.000   0.000  -0.000   0.000  10.094   0.000   0.000   0.000  -0.000   0.000 -11.953   0.000  -0.000   0.000   0.000   0.000
  0.000   0.000  -0.000   0.000   0.000   0.000  10.097   0.000  -0.000   0.000  -0.000   0.000 -11.957   0.000   0.000   0.000
 -0.000   0.000   0.000   0.000  -0.000   0.000  -0.000   0.000  10.094   0.000   0.000   0.000   0.000   0.000 -11.953   0.000
 total augmentation occupancy for first ion, spin component:           1
  2.605   0.365   0.000   0.000   0.000   0.000  -0.000   0.000
  0.365   0.068   0.000   0.000   0.000   0.000  -0.000   0.000
  0.000   0.000   2.164  -0.000   0.000   0.260  -0.000   0.000
  0.000   0.000  -0.000   2.162   0.000  -0.000   0.263  -0.000
  0.000   0.000   0.000   0.000   2.164   0.000   0.000   0.260
  0.000   0.000   0.260  -0.000   0.000   0.034  -0.000   0.000
 -0.000  -0.000  -0.000   0.263   0.000  -0.000   0.034   0.000
  0.000   0.000   0.000   0.000   0.260   0.000   0.000   0.034


------------------------ aborting loop because EDIFF is reached ----------------------------------------


    CHARGE:  cpu time    0.38: real time    0.38
    FORLOC:  cpu time    0.03: real time    0.03
    FORNL :  cpu time    3.17: real time    3.17
    STRESS:  cpu time    4.31: real time    4.31
    FORCOR:  cpu time    0.14: real time    0.14
    FORHAR:  cpu time    0.06: real time    0.06
    MIXING:  cpu time    0.00: real time    0.00
    OFIELD:  cpu time    0.00: real time    0.00

  FORCE on cell =-STRESS in cart. coord.  units (eV):
  Direction    XX          YY          ZZ          XY          YZ          ZX
  --------------------------------------------------------------------------------------
  Alpha Z   115.55426   115.55426   115.55426
  Ewald   23285.23021 23285.23049-25758.97088    -0.00002    -0.00003    -0.00013
  Hartree 24822.38973 24822.38965-23966.69673    -0.00000    -0.00000     0.00004
  E(xc)    -388.81655  -388.81656  -389.00820    -0.00000     0.00000    -0.00000
  Local  -49238.14107-49238.14059 48593.57035    -0.00016     0.00003     0.00004
  n-local   -25.09280   -35.58850   -28.87909     2.65877    -1.65305     5.29745
  augment    53.56093    53.56071    53.20812     0.00016    -0.00000     0.00000
  Kinetic  1398.48789  1355.41074  1376.13380     1.03407    -0.33403     0.94582
  Fock        0.00000     0.00000     0.00000     0.00000     0.00000     0.00000
  -------------------------------------------------------------------------------------
  Total      -3.61361    -3.61361    -5.08838     0.00000    -0.00000    -0.00000
  in kB     -16.54585   -16.54584   -23.29846     0.00000    -0.00000    -0.00000
  external pressure =      -18.80 kB  Pullay stress =        0.00 kB


 VOLUME and BASIS-vectors are now :
 -----------------------------------------------------------------------------
  energy-cutoff  :      520.00
  volume of cell :      349.92
      direct lattice vectors                 reciprocal lattice vectors
     2.591982046 -1.496481076  0.000000000     0.385805142 -0.000000000 -0.000000000
     0.000000000  2.992962152  0.000000000     0.192902571  0.334117155  0.000000000
     0.000000000 -0.000000000 45.105501487     0.000000000  0.000000000  0.022170245

  length of vectors
     2.992962836  2.992962152 45.105501487     0.385805142  0.385805230  0.022170245


 FORCES acting on ions
    electron-ion (+dipol)            ewald-force                    non-local-force                 convergence-correction
 -----------------------------------------------------------------------------------------------
   -.158E-07 -.460E-08 0.117E+04   0.528E-07 -.480E-07 -.118E+04   0.155E-18 -.888E-18 0.560E-01   -.747E-10 0.905E-10 -.809E-02
   0.106E-02 -.184E-02 0.784E+03   0.582E-04 -.101E-03 -.784E+03   -.207E-20 0.146E-19 -.286E-02   0.353E-08 -.601E-08 0.456E-02
   0.130E-08 -.809E-10 0.230E-01   0.347E-07 -.395E-07 -.323E-01   0.560E-20 0.396E-19 -.155E-01   0.125E-09 -.134E-09 0.174E-01
   0.106E-02 -.184E-02 -.392E+03   0.583E-04 -.101E-03 0.392E+03   0.297E-20 -.232E-19 -.105E-01   -.395E-08 0.693E-08 0.160E-01
   0.186E-07 0.398E-08 -.117E+04   -.504E-07 0.442E-07 0.117E+04   0.739E-18 -.128E-17 -.495E-01   -.758E-10 0.615E-10 0.257E-02
   0.107E-02 -.185E-02 -.156E+04   0.523E-04 -.871E-04 0.156E+04   0.491E-18 0.594E-18 -.161E+01   0.172E-08 -.301E-08 0.372E-03
   -.107E-02 0.185E-02 0.156E+04   -.523E-04 0.871E-04 -.156E+04   -.493E-18 -.407E-17 0.162E+01   -.407E-08 0.700E-08 -.147E-01
   -.106E-02 0.184E-02 0.392E+03   -.583E-04 0.101E-03 -.392E+03   0.315E-19 -.401E-19 -.152E-02   0.510E-09 -.837E-09 0.130E-01
   -.106E-02 0.184E-02 -.784E+03   -.582E-04 0.101E-03 0.784E+03   -.127E-19 -.526E-19 0.141E-01   -.167E-08 0.285E-08 0.754E-02
   -.974E-05 0.263E-05 0.567E+03   0.235E-04 -.248E-04 -.566E+03   -.357E-17 0.280E-16 -.731E+00   0.199E-10 -.577E-10 -.480E-02
   0.306E-08 -.117E-07 0.196E+03   0.156E-07 -.177E-07 -.196E+03   0.118E-20 0.989E-21 -.268E-02   -.239E-11 0.285E-10 0.325E-02
   0.316E-08 -.224E-08 -.196E+03   -.999E-08 0.114E-07 0.196E+03   -.337E-20 0.129E-19 0.185E-02   0.110E-09 -.233E-09 0.390E-02
   0.974E-05 -.264E-05 -.567E+03   -.235E-04 0.248E-04 0.566E+03   0.704E-17 -.558E-16 0.731E+00   -.373E-10 0.758E-10 -.381E-03
   0.441E-04 -.763E-04 0.326E+03   -.497E-04 0.860E-04 -.326E+03   0.338E-19 -.537E-19 -.137E-02   0.257E-09 -.488E-09 -.576E-03
   0.441E-04 -.764E-04 -.653E+02   -.497E-04 0.861E-04 0.653E+02   0.120E-20 -.129E-19 -.170E-02   -.151E-10 0.217E-10 0.573E-02
   0.441E-04 -.764E-04 -.457E+03   -.496E-04 0.860E-04 0.457E+03   -.121E-17 0.171E-17 0.681E-01   0.141E-09 -.270E-09 0.463E-03
   -.441E-04 0.764E-04 0.457E+03   0.496E-04 -.860E-04 -.457E+03   0.164E-17 0.349E-17 -.673E-01   -.300E-09 0.565E-09 -.435E-02
   -.441E-04 0.764E-04 0.653E+02   0.497E-04 -.861E-04 -.653E+02   0.187E-20 -.568E-19 0.688E-02   0.562E-10 -.771E-10 0.576E-02
   -.440E-04 0.763E-04 -.326E+03   0.496E-04 -.860E-04 0.326E+03   -.616E-19 0.535E-19 0.205E-02   -.252E-09 0.471E-09 0.143E-02
   0.106E-09 -.693E-10 -.477E-01   -.497E-10 0.495E-10 0.483E-01   -.605E-20 0.525E-22 -.142E-03   -.947E-13 0.216E-13 -.533E-03
   -.376E-06 -.320E-07 0.385E+03   0.216E-05 -.201E-05 -.387E+03   0.443E-16 0.550E-16 0.136E+01   -.109E-11 0.112E-12 -.459E-02
   0.149E-04 -.257E-04 0.255E+03   -.358E-05 0.627E-05 -.255E+03   0.608E-17 -.138E-16 -.111E+00   -.367E-11 0.654E-11 -.283E-02
   -.148E-04 0.257E-04 0.128E+03   0.365E-05 -.635E-05 -.128E+03   0.439E-18 0.352E-17 -.126E+00   0.162E-11 -.400E-11 -.145E-02
   0.376E-06 0.316E-07 -.385E+03   -.216E-05 0.201E-05 0.387E+03   0.112E-16 0.503E-18 -.136E+01   -.111E-11 0.396E-12 -.559E-03
   0.148E-04 -.257E-04 -.128E+03   -.365E-05 0.635E-05 0.128E+03   -.440E-18 -.525E-17 0.126E+00   -.208E-12 0.201E-12 -.137E-03
   -.149E-04 0.257E-04 -.256E+03   0.358E-05 -.627E-05 0.255E+03   0.433E-17 -.278E-16 0.111E+00   -.120E-11 0.233E-11 -.221E-03
 -----------------------------------------------------------------------------------------------
   0.555E-07 -.737E-07 -.475E-01   0.853E-13 0.380E-13 -.625E-12   0.707E-16 -.162E-16 0.913E-02   -.398E-08 0.697E-08 0.386E-01
 
 
 POSITION                                       TOTAL-FORCE (eV/Angst)
 -----------------------------------------------------------------------------------
      0.00000     -0.00000     16.30734        -0.000000      0.000000     -0.005025
      0.86399      1.49648     18.77767         0.000000     -0.000000     -0.005707
      0.00000     -0.00000     23.71623        -0.000000      0.000000     -0.007413
      0.86399      1.49648     26.18561         0.000000      0.000000     -0.005020
      0.00000     -0.00000     31.12506        -0.000000     -0.000000      0.006058
      0.86399      1.49648     33.59485        -0.000000      0.000000      0.001686
      1.72799     -0.00000     13.83758        -0.000000     -0.000000      0.002959
      1.72799     -0.00000     21.24653         0.000000      0.000000     -0.000781
      1.72799     -0.00000     28.65418        -0.000000      0.000000      0.011019
      0.00000     -0.00000     12.55054        -0.000000      0.000000     -0.002858
      0.00000     -0.00000     20.01228        -0.000000      0.000000     -0.005063
      0.00000     -0.00000     27.41978        -0.000000     -0.000000      0.003394
      0.00000     -0.00000     34.88200        -0.000000     -0.000000      0.000124
      1.72799     -0.00000     17.54246        -0.000000     -0.000000      0.000956
      1.72799     -0.00000     24.95093        -0.000000      0.000000     -0.002849
      1.72799     -0.00000     32.36072        -0.000000     -0.000000      0.012788
      0.86399      1.49648     15.07172        -0.000000      0.000000     -0.016931
      0.86399      1.49648     22.48071        -0.000000     -0.000000      0.015972
      0.86399      1.49648     29.88969        -0.000000      0.000000     -0.002963
      0.00000     -0.00000      1.16293        -0.000000     -0.000000     -0.000079
      0.00000     -0.00000      8.05244        -0.000000     -0.000000      0.005842
      1.72799     -0.00000      5.74389        -0.000000      0.000000     -0.004280
      0.86399      1.49648      3.45819        -0.000000      0.000000     -0.002521
      0.00000     -0.00000     39.37880        -0.000000      0.000000     -0.005965
      1.72799     -0.00000     43.97315        -0.000000     -0.000000      0.002411
      0.86399      1.49648     41.68740        -0.000000     -0.000000      0.004246
 -----------------------------------------------------------------------------------
    total drift:                                0.000000     -0.000000      0.000226


--------------------------------------------------------------------------------------------------------



  FREE ENERGIE OF THE ION-ELECTRON SYSTEM (eV)
  ---------------------------------------------------
  free  energy   TOTEN  =      -132.28925670 eV

  energy  without entropy=     -132.28364040  energy(sigma->0) =     -132.28644855
 
 d Force = 0.9851626E-05[ 0.454E-05, 0.152E-04]  d Energy = 0.7721793E-05 0.213E-05
 d Force =-0.4299545E+00[-0.430E+00,-0.430E+00]  d Ewald  =-0.4299545E+00 0.655E-10


--------------------------------------------------------------------------------------------------------


    POTLOK:  cpu time    0.22: real time    0.22


--------------------------------------------------------------------------------------------------------




--------------------------------------------------------------------------------------------------------


  
 reached required accuracy - stopping structural energy minimisation
     LOOP+:  cpu time   32.39: real time   32.66
    4ORBIT:  cpu time    0.00: real time    0.00

 total amount of memory used by VASP on root node   153547. kBytes
========================================================================

   base      :      30000. kBytes
   nonl-proj :      16667. kBytes
   fftplans  :      57935. kBytes
   grid      :      23224. kBytes
   one-center:         56. kBytes
   wavefun   :      25665. kBytes
 
  
  
 General timing and accounting informations for this job:
 ========================================================
  
                  Total CPU time used (sec):     2759.473
                            User time (sec):     2727.790
                          System time (sec):       31.684
                         Elapsed time (sec):     2763.141
  
                   Maximum memory used (kb):      261568.
                   Average memory used (kb):           0.
  
                          Minor page faults:       548088
                          Major page faults:            0
                 Voluntary context switches:          406
