       N       E                     dE             d eps       ncg     rms          rms(c)
DAV:   1     0.575515841712E+03    0.57552E+03   -0.36768E+04  2000   0.135E+03
DAV:   2    -0.575952563573E+02   -0.63311E+03   -0.62005E+03  2680   0.314E+02
DAV:   3    -0.119850900490E+03   -0.62256E+02   -0.61629E+02  2400   0.105E+02
DAV:   4    -0.121190265059E+03   -0.13394E+01   -0.13351E+01  2390   0.173E+01
DAV:   5    -0.121222271543E+03   -0.32006E-01   -0.31995E-01  2370   0.250E+00
DAV:   6    -0.121223359877E+03   -0.10883E-02   -0.10881E-02  2430   0.451E-01
DAV:   7    -0.121223402053E+03   -0.42177E-04   -0.42174E-04  2350   0.794E-02
DAV:   8    -0.121223403802E+03   -0.17481E-05   -0.17477E-05  1790   0.157E-02    0.212E+01
RMM:   9    -0.108311127759E+03    0.12912E+02   -0.63386E+01  2000   0.289E+01    0.761E+00
RMM:  10    -0.108434096233E+03   -0.12297E+00   -0.23691E+00  2000   0.484E+00    0.543E+00
RMM:  11    -0.108072859181E+03    0.36124E+00   -0.43834E-01  2000   0.216E+00    0.355E+00
RMM:  12    -0.108730519248E+03   -0.65766E+00   -0.12129E+00  2000   0.406E+00    0.955E+00
RMM:  13    -0.108061475085E+03    0.66904E+00   -0.81918E-01  2000   0.255E+00    0.121E+00
RMM:  14    -0.108046591596E+03    0.14883E-01   -0.15546E-02  2000   0.544E-01    0.101E+00
RMM:  15    -0.107995034537E+03    0.51557E-01   -0.94819E-02  2000   0.813E-01    0.638E-01
RMM:  16    -0.107995897303E+03   -0.86277E-03   -0.34274E-02  2000   0.597E-01    0.788E-01
RMM:  17    -0.107993491982E+03    0.24053E-02   -0.25547E-03  2009   0.209E-01    0.439E-01
RMM:  18    -0.107995296725E+03   -0.18047E-02   -0.26771E-03  2000   0.183E-01    0.334E-01
RMM:  19    -0.107991766032E+03    0.35307E-02   -0.13504E-03  1973   0.125E-01    0.273E-01
RMM:  20    -0.107989602857E+03    0.21632E-02   -0.82480E-04  1858   0.673E-02    0.228E-01
RMM:  21    -0.107987933757E+03    0.16691E-02   -0.12239E-03  1950   0.836E-02    0.133E-01
RMM:  22    -0.107987742601E+03    0.19116E-03   -0.29068E-04  1909   0.419E-02    0.113E-01
RMM:  23    -0.107987755805E+03   -0.13204E-04   -0.85811E-06  1177   0.115E-02    0.101E-01
RMM:  24    -0.107987737489E+03    0.18316E-04   -0.17167E-04  1873   0.422E-02    0.625E-02
RMM:  25    -0.107987742129E+03   -0.46397E-05   -0.30799E-05  1373   0.239E-02
   1 F= -.10798774E+03 E0= -.10797694E+03  d E =-.107988E+03
       N       E                     dE             d eps       ncg     rms          rms(c)
DAV:   1    -0.108191737821E+03   -0.20400E+00   -0.22386E+01  2230   0.190E+01
DAV:   2    -0.108230026513E+03   -0.38289E-01   -0.38284E-01  2380   0.250E+00
DAV:   3    -0.108230322870E+03   -0.29636E-03   -0.29636E-03  2530   0.203E-01
DAV:   4    -0.108230326559E+03   -0.36888E-05   -0.36886E-05  2280   0.237E-02
DAV:   5    -0.108230326687E+03   -0.12856E-06   -0.12861E-06  1590   0.416E-03
DAV:   6    -0.108230326711E+03   -0.23512E-07   -0.23497E-07  1520   0.161E-03
DAV:   7    -0.108230326719E+03   -0.77798E-08   -0.79264E-08  1470   0.868E-04
DAV:   8    -0.108230326722E+03   -0.31578E-08   -0.29031E-08  1410   0.510E-04    0.346E+00
RMM:   9    -0.108394495170E+03   -0.16417E+00   -0.72943E-01  2000   0.238E+00    0.341E+00
RMM:  10    -0.108161001657E+03    0.23349E+00   -0.20078E-01  2000   0.146E+00    0.920E-01
RMM:  11    -0.108167569021E+03   -0.65674E-02   -0.93863E-02  2000   0.795E-01    0.161E+00
RMM:  12    -0.108143633885E+03    0.23935E-01   -0.98451E-03  2000   0.383E-01    0.254E-01
RMM:  13    -0.108144344714E+03   -0.71083E-03   -0.70606E-03  1992   0.273E-01    0.890E-02
RMM:  14    -0.108144617202E+03   -0.27249E-03   -0.54019E-04  1943   0.835E-02    0.125E-01
RMM:  15    -0.108144464235E+03    0.15297E-03   -0.89380E-05  1651   0.305E-02    0.879E-02
RMM:  16    -0.108144492946E+03   -0.28711E-04   -0.40475E-04  1879   0.582E-02    0.858E-02
RMM:  17    -0.108144444202E+03    0.48744E-04   -0.61060E-05  1588   0.312E-02    0.787E-03
RMM:  18    -0.108144503692E+03   -0.59490E-04   -0.12000E-05  1171   0.112E-02    0.117E-02
RMM:  19    -0.108144543275E+03   -0.39583E-04   -0.75801E-06  1000   0.697E-03    0.798E-03
RMM:  20    -0.108144565975E+03   -0.22700E-04   -0.27479E-06   858   0.508E-03    0.116E-03
RMM:  21    -0.108144575458E+03   -0.94831E-05   -0.10471E-06   537   0.319E-03
   2 F= -.10814458E+03 E0= -.10813073E+03  d E =-.156833E+00
       N       E                     dE             d eps       ncg     rms          rms(c)
DAV:   1    -0.108452006009E+03   -0.30744E+00   -0.67216E+01  2080   0.333E+01
DAV:   2    -0.108576835034E+03   -0.12483E+00   -0.12476E+00  2380   0.469E+00
DAV:   3    -0.108577761652E+03   -0.92662E-03   -0.92660E-03  2540   0.383E-01
DAV:   4    -0.108577774586E+03   -0.12934E-04   -0.12934E-04  2430   0.450E-02
DAV:   5    -0.108577774977E+03   -0.39116E-06   -0.39107E-06  1590   0.708E-03
DAV:   6    -0.108577775031E+03   -0.53225E-07   -0.53358E-07  1490   0.254E-03
DAV:   7    -0.108577775047E+03   -0.16947E-07   -0.16894E-07  1470   0.132E-03
DAV:   8    -0.108577775054E+03   -0.61527E-08   -0.60248E-08  1450   0.769E-04    0.598E+00
RMM:   9    -0.110092347487E+03   -0.15146E+01   -0.51398E+00  2000   0.605E+00    0.740E+00
RMM:  10    -0.108694475104E+03    0.13979E+01   -0.11112E+00  2000   0.319E+00    0.341E+00
RMM:  11    -0.108554257042E+03    0.14022E+00   -0.83724E-02  2039   0.697E-01    0.277E+00
RMM:  12    -0.108270608325E+03    0.28365E+00   -0.18491E-01  2000   0.950E-01    0.109E+00
RMM:  13    -0.108286960526E+03   -0.16352E-01   -0.66875E-02  2017   0.627E-01    0.130E+00
RMM:  14    -0.108260536552E+03    0.26424E-01   -0.14305E-02  2000   0.374E-01    0.395E-01
RMM:  15    -0.108269507720E+03   -0.89712E-02   -0.55750E-03  1979   0.218E-01    0.502E-01
RMM:  16    -0.108263286832E+03    0.62209E-02   -0.33858E-03  2000   0.203E-01    0.220E-01
RMM:  17    -0.108265401219E+03   -0.21144E-02   -0.20688E-03  1943   0.143E-01    0.432E-01
RMM:  18    -0.108261642167E+03    0.37591E-02   -0.36662E-04  1847   0.572E-02    0.285E-01
RMM:  19    -0.108259052195E+03    0.25900E-02   -0.77316E-04  1914   0.718E-02    0.169E-01
RMM:  20    -0.108258301400E+03    0.75080E-03   -0.47245E-04  1929   0.595E-02    0.106E-01
RMM:  21    -0.108258114393E+03    0.18701E-03   -0.14645E-04  1735   0.312E-02    0.679E-02
RMM:  22    -0.108258137233E+03   -0.22840E-04   -0.19019E-04  1764   0.334E-02    0.420E-02
RMM:  23    -0.108258154715E+03   -0.17482E-04   -0.10783E-05  1202   0.143E-02    0.320E-02
RMM:  24    -0.108258148549E+03    0.61665E-05   -0.86680E-06  1137   0.106E-02
   3 F= -.10825815E+03 E0= -.10824437E+03  d E =-.270406E+00
       N       E                     dE             d eps       ncg     rms          rms(c)
DAV:   1    -0.108259006566E+03   -0.85185E-03   -0.21636E-01  2470   0.192E+00
DAV:   2    -0.108259374768E+03   -0.36820E-03   -0.36820E-03  2280   0.247E-01
DAV:   3    -0.108259377656E+03   -0.28882E-05   -0.28881E-05  2190   0.199E-02
DAV:   4    -0.108259377764E+03   -0.10834E-06   -0.10856E-06  1450   0.389E-03
DAV:   5    -0.108259377791E+03   -0.26977E-07   -0.27020E-07  1270   0.171E-03
DAV:   6    -0.108259377799E+03   -0.81609E-08   -0.81496E-08  1270   0.898E-04
DAV:   7    -0.108259377802E+03   -0.24984E-08   -0.25925E-08  1270   0.489E-04
DAV:   8    -0.108259377803E+03   -0.79308E-09   -0.85702E-09  1270   0.277E-04    0.330E-01
RMM:   9    -0.108267248397E+03   -0.78706E-02   -0.11587E-02  1994   0.302E-01    0.818E-01
RMM:  10    -0.108258322525E+03    0.89259E-02   -0.70063E-03  1993   0.255E-01    0.116E-01
RMM:  11    -0.108258391369E+03   -0.68844E-04   -0.85838E-05  1612   0.483E-02    0.111E-02
RMM:  12    -0.108258390267E+03    0.11025E-05   -0.18349E-05  1238   0.128E-02
   4 F= -.10825839E+03 E0= -.10824470E+03  d E =-.270648E+00
       N       E                     dE             d eps       ncg     rms          rms(c)
DAV:   1    -0.108279885946E+03   -0.21495E-01   -0.17243E+01  2050   0.184E+01
DAV:   2    -0.108309371489E+03   -0.29486E-01   -0.29483E-01  2350   0.230E+00
DAV:   3    -0.108309587301E+03   -0.21581E-03   -0.21581E-03  2620   0.173E-01
DAV:   4    -0.108309588949E+03   -0.16481E-05   -0.16483E-05  2000   0.177E-02
DAV:   5    -0.108309589040E+03   -0.90206E-07   -0.89916E-07  1550   0.431E-03
DAV:   6    -0.108309589062E+03   -0.22185E-07   -0.22270E-07  1450   0.193E-03
DAV:   7    -0.108309589069E+03   -0.68267E-08   -0.70030E-08  1380   0.103E-03
DAV:   8    -0.108309589071E+03   -0.23865E-08   -0.23314E-08  1340   0.575E-04    0.136E+00
RMM:   9    -0.108384783467E+03   -0.75194E-01   -0.15668E-01  2000   0.108E+00    0.247E+00
RMM:  10    -0.108287738426E+03    0.97045E-01   -0.89025E-02  2000   0.916E-01    0.322E-01
RMM:  11    -0.108288160493E+03   -0.42207E-03   -0.29094E-03  1963   0.187E-01    0.829E-02
RMM:  12    -0.108287956486E+03    0.20401E-03   -0.75254E-04  1947   0.825E-02    0.314E-02
RMM:  13    -0.108287935241E+03    0.21245E-04   -0.13272E-04  1703   0.322E-02    0.138E-02
RMM:  14    -0.108287953866E+03   -0.18625E-04   -0.25492E-05  1314   0.151E-02    0.207E-02
RMM:  15    -0.108287959703E+03   -0.58366E-05   -0.70981E-06  1103   0.854E-03
   5 F= -.10828796E+03 E0= -.10827437E+03  d E =-.295694E-01
       N       E                     dE             d eps       ncg     rms          rms(c)
DAV:   1    -0.108289529050E+03   -0.15752E-02   -0.42506E+00  2060   0.918E+00
DAV:   2    -0.108296667237E+03   -0.71382E-02   -0.71380E-02  2400   0.115E+00
DAV:   3    -0.108296719371E+03   -0.52135E-04   -0.52135E-04  2550   0.838E-02
DAV:   4    -0.108296719702E+03   -0.33095E-06   -0.33075E-06  1600   0.849E-03
DAV:   5    -0.108296719751E+03   -0.48796E-07   -0.48943E-07  1410   0.290E-03
DAV:   6    -0.108296719765E+03   -0.14224E-07   -0.14166E-07  1380   0.143E-03
DAV:   7    -0.108296719770E+03   -0.47676E-08   -0.47038E-08  1310   0.780E-04
DAV:   8    -0.108296719772E+03   -0.17944E-08   -0.16463E-08  1300   0.441E-04    0.670E-01
RMM:   9    -0.108312226313E+03   -0.15507E-01   -0.34333E-02  1999   0.522E-01    0.117E+00
RMM:  10    -0.108292025639E+03    0.20201E-01   -0.22297E-02  1999   0.456E-01    0.252E-01
RMM:  11    -0.108291473251E+03    0.55239E-03   -0.77651E-04  1951   0.104E-01    0.460E-02
RMM:  12    -0.108291441390E+03    0.31861E-04   -0.23188E-04  1797   0.414E-02    0.585E-02
RMM:  13    -0.108291393899E+03    0.47491E-04   -0.63095E-05  1620   0.252E-02    0.148E-02
RMM:  14    -0.108291405704E+03   -0.11805E-04   -0.11852E-05  1237   0.110E-02    0.794E-03
RMM:  15    -0.108291424853E+03   -0.19149E-04   -0.34821E-06  1027   0.624E-03    0.194E-03
RMM:  16    -0.108291442869E+03   -0.18016E-04   -0.19794E-06   783   0.419E-03    0.121E-03
RMM:  17    -0.108291462679E+03   -0.19810E-04   -0.27338E-06   777   0.421E-03    0.517E-04
RMM:  18    -0.108291467866E+03   -0.51877E-05   -0.63556E-07   521   0.304E-03
   6 F= -.10829147E+03 E0= -.10827785E+03  d E =-.330776E-01
       N       E                     dE             d eps       ncg     rms          rms(c)
DAV:   1    -0.108296044026E+03   -0.45813E-02   -0.38369E+00  2180   0.994E+00
DAV:   2    -0.108303101749E+03   -0.70577E-02   -0.70577E-02  2380   0.127E+00
DAV:   3    -0.108303146959E+03   -0.45210E-04   -0.45210E-04  2460   0.901E-02
DAV:   4    -0.108303147473E+03   -0.51340E-06   -0.51339E-06  1670   0.102E-02
DAV:   5    -0.108303147537E+03   -0.64277E-07   -0.64235E-07  1490   0.346E-03
DAV:   6    -0.108303147555E+03   -0.18657E-07   -0.18671E-07  1420   0.167E-03
DAV:   7    -0.108303147562E+03   -0.61946E-08   -0.63982E-08  1350   0.928E-04
DAV:   8    -0.108303147564E+03   -0.25075E-08   -0.22895E-08  1330   0.528E-04    0.231E-01
RMM:   9    -0.108302736686E+03    0.41088E-03   -0.65495E-03  1999   0.256E-01    0.342E-01
RMM:  10    -0.108301176956E+03    0.15597E-02   -0.20911E-03  1973   0.140E-01    0.138E-01
RMM:  11    -0.108300858558E+03    0.31840E-03   -0.10785E-03  1993   0.108E-01    0.435E-02
RMM:  12    -0.108300846915E+03    0.11642E-04   -0.73665E-05  1741   0.286E-02    0.225E-02
RMM:  13    -0.108300846247E+03    0.66835E-06   -0.26062E-05  1372   0.201E-02
   7 F= -.10830085E+03 E0= -.10828740E+03  d E =-.937838E-02
       N       E                     dE             d eps       ncg     rms          rms(c)
DAV:   1    -0.108300199512E+03    0.64740E-03   -0.15819E+00  2150   0.637E+00
DAV:   2    -0.108303108116E+03   -0.29086E-02   -0.29086E-02  2400   0.813E-01
DAV:   3    -0.108303126860E+03   -0.18743E-04   -0.18744E-04  2430   0.578E-02
DAV:   4    -0.108303127065E+03   -0.20540E-06   -0.20537E-06  1640   0.655E-03
DAV:   5    -0.108303127095E+03   -0.29802E-07   -0.29652E-07  1400   0.226E-03
DAV:   6    -0.108303127104E+03   -0.88057E-08   -0.89707E-08  1330   0.111E-03
DAV:   7    -0.108303127107E+03   -0.31305E-08   -0.31290E-08  1330   0.620E-04
DAV:   8    -0.108303127108E+03   -0.13360E-08   -0.11355E-08  1300   0.352E-04    0.147E-01
RMM:   9    -0.108302842912E+03    0.28420E-03   -0.25723E-03  1990   0.161E-01    0.198E-01
RMM:  10    -0.108302302422E+03    0.54049E-03   -0.79123E-04  1954   0.864E-02    0.873E-02
RMM:  11    -0.108302173585E+03    0.12884E-03   -0.45380E-04  1952   0.701E-02    0.263E-02
RMM:  12    -0.108302170663E+03    0.29222E-05   -0.26542E-05  1382   0.178E-02
   8 F= -.10830217E+03 E0= -.10828887E+03  d E =-.107028E-01
       N       E                     dE             d eps       ncg     rms          rms(c)
DAV:   1    -0.108303543505E+03   -0.13699E-02   -0.12151E+00  2020   0.557E+00
DAV:   2    -0.108306014840E+03   -0.24713E-02   -0.24713E-02  2400   0.737E-01
DAV:   3    -0.108306037813E+03   -0.22973E-04   -0.22972E-04  2460   0.594E-02
DAV:   4    -0.108306037986E+03   -0.17300E-06   -0.17298E-06  1600   0.638E-03
DAV:   5    -0.108306038013E+03   -0.27201E-07   -0.27354E-07  1430   0.220E-03
DAV:   6    -0.108306038021E+03   -0.81445E-08   -0.81708E-08  1330   0.108E-03
DAV:   7    -0.108306038024E+03   -0.29995E-08   -0.28235E-08  1300   0.594E-04
DAV:   8    -0.108306038025E+03   -0.94224E-09   -0.10216E-08  1270   0.340E-04    0.214E-01
RMM:   9    -0.108308532675E+03   -0.24947E-02   -0.63883E-03  1999   0.237E-01    0.493E-01
RMM:  10    -0.108305027592E+03    0.35051E-02   -0.27905E-03  1979   0.161E-01    0.560E-02
RMM:  11    -0.108305112399E+03   -0.84807E-04   -0.31566E-04  1994   0.677E-02    0.179E-02
RMM:  12    -0.108305113590E+03   -0.11907E-05   -0.21101E-05  1271   0.168E-02
   9 F= -.10830511E+03 E0= -.10829201E+03  d E =-.294293E-02
       N       E                     dE             d eps       ncg     rms          rms(c)
DAV:   1    -0.108305114856E+03   -0.24568E-05   -0.86315E-03  2430   0.471E-01
DAV:   2    -0.108305134005E+03   -0.19149E-04   -0.19149E-04  2330   0.644E-02
DAV:   3    -0.108305134146E+03   -0.14103E-06   -0.14113E-06  1520   0.534E-03
DAV:   4    -0.108305134175E+03   -0.29262E-07   -0.29326E-07  1300   0.203E-03
DAV:   5    -0.108305134185E+03   -0.97189E-08   -0.96693E-08  1240   0.998E-04
DAV:   6    -0.108305134189E+03   -0.36725E-08   -0.35153E-08  1240   0.565E-04
DAV:   7    -0.108305134190E+03   -0.12787E-08   -0.13308E-08  1240   0.314E-04
DAV:   8    -0.108305134190E+03   -0.43201E-09   -0.51892E-09  1190   0.190E-04    0.211E-02
RMM:   9    -0.108305161832E+03   -0.27642E-04   -0.60376E-05  1457   0.226E-02    0.488E-02
RMM:  10    -0.108305122938E+03    0.38894E-04   -0.25000E-05  1199   0.155E-02    0.508E-03
RMM:  11    -0.108305129530E+03   -0.65920E-05   -0.37510E-06  1126   0.780E-03
  10 F= -.10830513E+03 E0= -.10829206E+03  d E =-.295887E-02
       N       E                     dE             d eps       ncg     rms          rms(c)
DAV:   1    -0.108305014570E+03    0.10837E-03   -0.12916E+00  2110   0.583E+00
DAV:   2    -0.108307386589E+03   -0.23720E-02   -0.23720E-02  2380   0.743E-01
DAV:   3    -0.108307404373E+03   -0.17784E-04   -0.17784E-04  2510   0.553E-02
DAV:   4    -0.108307404538E+03   -0.16449E-06   -0.16437E-06  1470   0.617E-03
DAV:   5    -0.108307404564E+03   -0.25872E-07   -0.25846E-07  1390   0.215E-03
DAV:   6    -0.108307404571E+03   -0.77089E-08   -0.78127E-08  1270   0.106E-03
DAV:   7    -0.108307404574E+03   -0.28977E-08   -0.26944E-08  1270   0.591E-04
DAV:   8    -0.108307404575E+03   -0.71941E-09   -0.96855E-09  1240   0.337E-04    0.108E-01
RMM:   9    -0.108306958177E+03    0.44640E-03   -0.61566E-04  1999   0.833E-02    0.565E-02
RMM:  10    -0.108306948948E+03    0.92287E-05   -0.29675E-04  1931   0.557E-02    0.777E-02
RMM:  11    -0.108306852597E+03    0.96351E-04   -0.16945E-04  1876   0.422E-02    0.321E-02
RMM:  12    -0.108306852597E+03   -0.30286E-09   -0.23695E-05  1247   0.199E-02
  11 F= -.10830685E+03 E0= -.10829383E+03  d E =-.172307E-02
       N       E                     dE             d eps       ncg     rms          rms(c)
DAV:   1    -0.108306769951E+03    0.82646E-04   -0.83599E-02  2410   0.149E+00
DAV:   2    -0.108306928799E+03   -0.15885E-03   -0.15885E-03  2360   0.192E-01
DAV:   3    -0.108306929852E+03   -0.10532E-05   -0.10530E-05  1720   0.142E-02
DAV:   4    -0.108306929942E+03   -0.89451E-07   -0.89619E-07  1400   0.443E-03
DAV:   5    -0.108306929963E+03   -0.21459E-07   -0.21545E-07  1270   0.195E-03
DAV:   6    -0.108306929970E+03   -0.67384E-08   -0.67545E-08  1240   0.101E-03
DAV:   7    -0.108306929973E+03   -0.26721E-08   -0.22847E-08  1220   0.558E-04
DAV:   8    -0.108306929973E+03   -0.69940E-09   -0.81094E-09  1200   0.315E-04    0.278E-02
RMM:   9    -0.108306899654E+03    0.30319E-04   -0.40838E-05  1695   0.218E-02    0.161E-02
RMM:  10    -0.108306901660E+03   -0.20058E-05   -0.18268E-05  1275   0.145E-02
  12 F= -.10830690E+03 E0= -.10829395E+03  d E =-.177213E-02
       N       E                     dE             d eps       ncg     rms          rms(c)
DAV:   1    -0.108305710261E+03    0.11894E-02   -0.16824E+00  2100   0.655E+00
DAV:   2    -0.108308793766E+03   -0.30835E-02   -0.30835E-02  2350   0.840E-01
DAV:   3    -0.108308817146E+03   -0.23380E-04   -0.23380E-04  2500   0.624E-02
DAV:   4    -0.108308817372E+03   -0.22595E-06   -0.22591E-06  1540   0.701E-03
DAV:   5    -0.108308817408E+03   -0.36222E-07   -0.36219E-07  1380   0.241E-03
DAV:   6    -0.108308817419E+03   -0.11091E-07   -0.11146E-07  1300   0.119E-03
DAV:   7    -0.108308817423E+03   -0.39799E-08   -0.38642E-08  1250   0.670E-04
DAV:   8    -0.108308817425E+03   -0.15661E-08   -0.13944E-08  1210   0.381E-04    0.224E-01
RMM:   9    -0.108309025915E+03   -0.20849E-03   -0.27666E-03  2000   0.166E-01    0.284E-01
RMM:  10    -0.108308111602E+03    0.91431E-03   -0.18113E-03  1978   0.131E-01    0.124E-01
RMM:  11    -0.108307853848E+03    0.25775E-03   -0.28756E-04  1919   0.592E-02    0.286E-02
RMM:  12    -0.108307841710E+03    0.12138E-04   -0.10224E-04  1800   0.338E-02    0.887E-03
RMM:  13    -0.108307839717E+03    0.19937E-05   -0.47575E-06  1200   0.796E-03
  13 F= -.10830784E+03 E0= -.10829482E+03  d E =-.938057E-03
       N       E                     dE             d eps       ncg     rms          rms(c)
DAV:   1    -0.108307778556E+03    0.63154E-04   -0.44238E-02  2510   0.106E+00
DAV:   2    -0.108307860407E+03   -0.81851E-04   -0.81851E-04  2300   0.137E-01
DAV:   3    -0.108307860902E+03   -0.49477E-06   -0.49456E-06  1580   0.100E-02
DAV:   4    -0.108307860982E+03   -0.80527E-07   -0.80638E-07  1310   0.358E-03
DAV:   5    -0.108307861007E+03   -0.24405E-07   -0.24463E-07  1270   0.170E-03
DAV:   6    -0.108307861015E+03   -0.83883E-08   -0.84191E-08  1220   0.936E-04
DAV:   7    -0.108307861018E+03   -0.31896E-08   -0.30443E-08  1210   0.512E-04
DAV:   8    -0.108307861019E+03   -0.12569E-08   -0.11432E-08  1170   0.304E-04    0.360E-02
RMM:   9    -0.108307861235E+03   -0.21559E-06   -0.75912E-05  1733   0.276E-02
  14 F= -.10830786E+03 E0= -.10829473E+03  d E =-.959575E-03
       N       E                     dE             d eps       ncg     rms          rms(c)
DAV:   1    -0.108307810244E+03    0.50775E-04   -0.14915E-02  2100   0.615E-01
DAV:   2    -0.108307842214E+03   -0.31969E-04   -0.31969E-04  2350   0.842E-02
DAV:   3    -0.108307842445E+03   -0.23134E-06   -0.23144E-06  1260   0.675E-03
DAV:   4    -0.108307842493E+03   -0.47751E-07   -0.47496E-07  1190   0.254E-03
DAV:   5    -0.108307842508E+03   -0.15067E-07   -0.15352E-07  1160   0.124E-03
DAV:   6    -0.108307842514E+03   -0.54715E-08   -0.54528E-08  1150   0.698E-04
DAV:   7    -0.108307842516E+03   -0.21128E-08   -0.20176E-08  1150   0.383E-04
DAV:   8    -0.108307842517E+03   -0.77671E-09   -0.76947E-09  1150   0.230E-04    0.141E-02
RMM:   9    -0.108307849179E+03   -0.66625E-05   -0.17751E-05  1189   0.131E-02
  15 F= -.10830785E+03 E0= -.10829477E+03  d E =-.947519E-03
       N       E                     dE             d eps       ncg     rms          rms(c)
DAV:   1    -0.108307613407E+03    0.22911E-03   -0.38066E-01  2100   0.303E+00
DAV:   2    -0.108308324233E+03   -0.71083E-03   -0.71082E-03  2330   0.391E-01
DAV:   3    -0.108308330184E+03   -0.59511E-05   -0.59511E-05  2270   0.301E-02
DAV:   4    -0.108308330301E+03   -0.11721E-06   -0.11737E-06  1470   0.453E-03
DAV:   5    -0.108308330327E+03   -0.26052E-07   -0.26031E-07  1270   0.183E-03
DAV:   6    -0.108308330335E+03   -0.74424E-08   -0.76579E-08  1200   0.926E-04
DAV:   7    -0.108308330337E+03   -0.25884E-08   -0.24317E-08  1140   0.508E-04
DAV:   8    -0.108308330338E+03   -0.74124E-09   -0.80569E-09  1090   0.286E-04    0.637E-02
RMM:   9    -0.108308173927E+03    0.15641E-03   -0.17142E-04  1845   0.433E-02    0.256E-02
RMM:  10    -0.108308149992E+03    0.23936E-04   -0.61128E-05  1737   0.253E-02    0.167E-02
RMM:  11    -0.108308152412E+03   -0.24201E-05   -0.27832E-05  1359   0.178E-02
  16 F= -.10830815E+03 E0= -.10829525E+03  d E =-.303233E-03
       N       E                     dE             d eps       ncg     rms          rms(c)
DAV:   1    -0.108308138303E+03    0.11689E-04   -0.63048E-04  2320   0.125E-01
DAV:   2    -0.108308140437E+03   -0.21342E-05   -0.21345E-05  1730   0.223E-02
DAV:   3    -0.108308140539E+03   -0.10152E-06   -0.10143E-06  1430   0.427E-03
DAV:   4    -0.108308140557E+03   -0.18053E-07   -0.18003E-07  1260   0.162E-03
DAV:   5    -0.108308140561E+03   -0.45302E-08   -0.44935E-08  1200   0.766E-04
DAV:   6    -0.108308140563E+03   -0.11651E-08   -0.12844E-08  1180   0.384E-04
DAV:   7    -0.108308140563E+03   -0.49658E-09   -0.40602E-09  1180   0.212E-04
DAV:   8    -0.108308140563E+03   -0.14097E-09   -0.13606E-09  1170   0.116E-04    0.713E-03
RMM:   9    -0.108308144545E+03   -0.39813E-05   -0.31831E-06   920   0.647E-03
  17 F= -.10830814E+03 E0= -.10829519E+03  d E =-.295365E-03
       N       E                     dE             d eps       ncg     rms          rms(c)
DAV:   1    -0.108308150631E+03   -0.10068E-04   -0.29329E-01  2100   0.244E+00
DAV:   2    -0.108308648301E+03   -0.49767E-03   -0.49767E-03  2310   0.300E-01
DAV:   3    -0.108308653171E+03   -0.48700E-05   -0.48702E-05  2270   0.247E-02
DAV:   4    -0.108308653274E+03   -0.10377E-06   -0.10377E-06  1360   0.400E-03
DAV:   5    -0.108308653300E+03   -0.25649E-07   -0.25538E-07  1300   0.171E-03
DAV:   6    -0.108308653308E+03   -0.78480E-08   -0.77131E-08  1210   0.892E-04
DAV:   7    -0.108308653310E+03   -0.22765E-08   -0.24681E-08  1180   0.486E-04
DAV:   8    -0.108308653311E+03   -0.93769E-09   -0.81814E-09  1140   0.277E-04    0.843E-02
RMM:   9    -0.108308676414E+03   -0.23103E-04   -0.25436E-04  1829   0.479E-02    0.102E-01
RMM:  10    -0.108308586739E+03    0.89675E-04   -0.24674E-04  1812   0.481E-02    0.491E-02
RMM:  11    -0.108308548482E+03    0.38257E-04   -0.29009E-05  1343   0.194E-02    0.118E-02
RMM:  12    -0.108308552606E+03   -0.41243E-05   -0.10580E-05  1191   0.124E-02
  18 F= -.10830855E+03 E0= -.10829560E+03  d E =-.408061E-03
       N       E                     dE             d eps       ncg     rms          rms(c)
DAV:   1    -0.108305034201E+03    0.35143E-02   -0.26394E+00  2100   0.731E+00
DAV:   2    -0.108309480500E+03   -0.44463E-02   -0.44462E-02  2350   0.900E-01
DAV:   3    -0.108309523979E+03   -0.43479E-04   -0.43479E-04  2560   0.739E-02
DAV:   4    -0.108309524313E+03   -0.33409E-06   -0.33407E-06  1550   0.809E-03
DAV:   5    -0.108309524356E+03   -0.43547E-07   -0.43491E-07  1430   0.266E-03
DAV:   6    -0.108309524369E+03   -0.12508E-07   -0.12531E-07  1330   0.129E-03
DAV:   7    -0.108309524373E+03   -0.43474E-08   -0.42030E-08  1290   0.708E-04
DAV:   8    -0.108309524374E+03   -0.12806E-08   -0.14790E-08  1240   0.400E-04    0.260E-01
RMM:   9    -0.108309917367E+03   -0.39299E-03   -0.26204E-03  2000   0.153E-01    0.319E-01
RMM:  10    -0.108308846357E+03    0.10710E-02   -0.23263E-03  1974   0.148E-01    0.139E-01
RMM:  11    -0.108308556243E+03    0.29011E-03   -0.25422E-04  1894   0.567E-02    0.372E-02
RMM:  12    -0.108308552879E+03    0.33641E-05   -0.99799E-05  1741   0.361E-02
  19 F= -.10830855E+03 E0= -.10829568E+03  d E =-.408334E-03
       N       E                     dE             d eps       ncg     rms          rms(c)
DAV:   1    -0.108308189056E+03    0.36719E-03   -0.48453E-01  2070   0.313E+00
DAV:   2    -0.108309018250E+03   -0.82919E-03   -0.82919E-03  2390   0.385E-01
DAV:   3    -0.108309026550E+03   -0.82996E-05   -0.82997E-05  2150   0.319E-02
DAV:   4    -0.108309026680E+03   -0.13073E-06   -0.13074E-06  1490   0.469E-03
DAV:   5    -0.108309026710E+03   -0.29398E-07   -0.29365E-07  1310   0.191E-03
DAV:   6    -0.108309026718E+03   -0.88294E-08   -0.86620E-08  1270   0.977E-04
DAV:   7    -0.108309026721E+03   -0.27503E-08   -0.27397E-08  1250   0.533E-04
DAV:   8    -0.108309026722E+03   -0.85311E-09   -0.90053E-09  1210   0.301E-04    0.112E-01
RMM:   9    -0.108309125250E+03   -0.98528E-04   -0.52752E-04  1928   0.690E-02    0.147E-01
RMM:  10    -0.108308894313E+03    0.23094E-03   -0.46210E-04  1885   0.657E-02    0.606E-02
RMM:  11    -0.108308843527E+03    0.50786E-04   -0.45917E-05  1473   0.245E-02    0.143E-02
RMM:  12    -0.108308848041E+03   -0.45142E-05   -0.15372E-05  1273   0.146E-02
  20 F= -.10830885E+03 E0= -.10829593E+03  d E =-.703497E-03
       N       E                     dE             d eps       ncg     rms          rms(c)
DAV:   1    -0.108308637372E+03    0.20616E-03   -0.13450E-01  2130   0.165E+00
DAV:   2    -0.108308868038E+03   -0.23067E-03   -0.23067E-03  2390   0.204E-01
DAV:   3    -0.108308870263E+03   -0.22247E-05   -0.22246E-05  1870   0.169E-02
DAV:   4    -0.108308870354E+03   -0.91228E-07   -0.91182E-07  1450   0.422E-03
DAV:   5    -0.108308870376E+03   -0.22259E-07   -0.22229E-07  1320   0.188E-03
DAV:   6    -0.108308870383E+03   -0.64765E-08   -0.64513E-08  1270   0.951E-04
DAV:   7    -0.108308870385E+03   -0.20500E-08   -0.20174E-08  1260   0.500E-04
DAV:   8    -0.108308870385E+03   -0.47294E-09   -0.66192E-09  1130   0.277E-04    0.573E-02
RMM:   9    -0.108308880839E+03   -0.10453E-04   -0.12159E-04  1694   0.333E-02    0.709E-02
RMM:  10    -0.108308835244E+03    0.45594E-04   -0.11358E-04  1642   0.325E-02    0.326E-02
RMM:  11    -0.108308819619E+03    0.15625E-04   -0.12601E-05  1209   0.131E-02    0.819E-03
RMM:  12    -0.108308821781E+03   -0.21616E-05   -0.50864E-06  1166   0.887E-03
  21 F= -.10830882E+03 E0= -.10829589E+03  d E =-.677236E-03
       N       E                     dE             d eps       ncg     rms          rms(c)
DAV:   1    -0.108308807377E+03    0.12242E-04   -0.34217E-02  2230   0.832E-01
DAV:   2    -0.108308865235E+03   -0.57858E-04   -0.57858E-04  2400   0.102E-01
DAV:   3    -0.108308865760E+03   -0.52487E-06   -0.52475E-06  1560   0.842E-03
DAV:   4    -0.108308865804E+03   -0.44311E-07   -0.44351E-07  1270   0.267E-03
DAV:   5    -0.108308865815E+03   -0.10838E-07   -0.10916E-07  1240   0.119E-03
DAV:   6    -0.108308865819E+03   -0.36862E-08   -0.35455E-08  1210   0.628E-04
DAV:   7    -0.108308865820E+03   -0.11569E-08   -0.12302E-08  1210   0.345E-04
DAV:   8    -0.108308865821E+03   -0.59208E-09   -0.44515E-09  1170   0.196E-04    0.298E-02
RMM:   9    -0.108308868752E+03   -0.29315E-05   -0.36008E-05  1359   0.183E-02
  22 F= -.10830887E+03 E0= -.10829584E+03  d E =-.724208E-03
       N       E                     dE             d eps       ncg     rms          rms(c)
DAV:   1    -0.108308941008E+03   -0.75187E-04   -0.88713E-02  2170   0.151E+00
DAV:   2    -0.108309103331E+03   -0.16232E-03   -0.16232E-03  2270   0.193E-01
DAV:   3    -0.108309104440E+03   -0.11089E-05   -0.11090E-05  1700   0.142E-02
DAV:   4    -0.108309104538E+03   -0.97963E-07   -0.98064E-07  1200   0.448E-03
DAV:   5    -0.108309104562E+03   -0.23670E-07   -0.23673E-07  1130   0.197E-03
DAV:   6    -0.108309104569E+03   -0.75470E-08   -0.73400E-08  1120   0.102E-03
DAV:   7    -0.108309104572E+03   -0.23738E-08   -0.24408E-08  1120   0.559E-04
DAV:   8    -0.108309104573E+03   -0.75397E-09   -0.85040E-09  1040   0.315E-04    0.351E-02
RMM:   9    -0.108309097483E+03    0.70899E-05   -0.57115E-05  1558   0.262E-02
  23 F= -.10830910E+03 E0= -.10829609E+03  d E =-.228731E-03
       N       E                     dE             d eps       ncg     rms          rms(c)
DAV:   1    -0.108308193155E+03    0.91142E-03   -0.79911E-01  2090   0.453E+00
DAV:   2    -0.108309662494E+03   -0.14693E-02   -0.14693E-02  2370   0.578E-01
DAV:   3    -0.108309674138E+03   -0.11645E-04   -0.11645E-04  2440   0.433E-02
DAV:   4    -0.108309674249E+03   -0.11107E-06   -0.11114E-06  1540   0.493E-03
DAV:   5    -0.108309674268E+03   -0.18394E-07   -0.18394E-07  1340   0.174E-03
DAV:   6    -0.108309674273E+03   -0.55006E-08   -0.55310E-08  1240   0.861E-04
DAV:   7    -0.108309674276E+03   -0.22465E-08   -0.18663E-08  1240   0.482E-04
DAV:   8    -0.108309674276E+03   -0.45566E-09   -0.65567E-09  1210   0.271E-04    0.896E-02
RMM:   9    -0.108309497477E+03    0.17680E-03   -0.23788E-04  1987   0.584E-02    0.573E-02
RMM:  10    -0.108309524289E+03   -0.26811E-04   -0.17064E-04  1891   0.435E-02    0.682E-02
RMM:  11    -0.108309454860E+03    0.69428E-04   -0.11344E-04  1847   0.362E-02    0.292E-02
RMM:  12    -0.108309459978E+03   -0.51180E-05   -0.14171E-05  1196   0.172E-02
  24 F= -.10830946E+03 E0= -.10829655E+03  d E =-.591226E-03
       N       E                     dE             d eps       ncg     rms          rms(c)
DAV:   1    -0.108309351728E+03    0.10313E-03   -0.84431E-02  2110   0.147E+00
DAV:   2    -0.108309510570E+03   -0.15884E-03   -0.15884E-03  2400   0.190E-01
DAV:   3    -0.108309511743E+03   -0.11727E-05   -0.11728E-05  1660   0.143E-02
DAV:   4    -0.108309511834E+03   -0.91101E-07   -0.90857E-07  1360   0.435E-03
DAV:   5    -0.108309511855E+03   -0.21484E-07   -0.21596E-07  1240   0.192E-03
DAV:   6    -0.108309511862E+03   -0.66002E-08   -0.66952E-08  1240   0.988E-04
DAV:   7    -0.108309511864E+03   -0.23383E-08   -0.22311E-08  1230   0.541E-04
DAV:   8    -0.108309511865E+03   -0.72123E-09   -0.77820E-09  1180   0.303E-04    0.244E-02
RMM:   9    -0.108309495815E+03    0.16049E-04   -0.16578E-05  1124   0.160E-02    0.120E-02
RMM:  10    -0.108309496390E+03   -0.57446E-06   -0.97659E-06  1162   0.129E-02
  25 F= -.10830950E+03 E0= -.10829657E+03  d E =-.627638E-03
       N       E                     dE             d eps       ncg     rms          rms(c)
DAV:   1    -0.108308871368E+03    0.62445E-03   -0.33689E-01  2090   0.294E+00
DAV:   2    -0.108309495060E+03   -0.62369E-03   -0.62369E-03  2390   0.376E-01
DAV:   3    -0.108309499943E+03   -0.48826E-05   -0.48827E-05  2120   0.283E-02
DAV:   4    -0.108309500086E+03   -0.14359E-06   -0.14368E-06  1450   0.545E-03
DAV:   5    -0.108309500118E+03   -0.32179E-07   -0.32256E-07  1260   0.229E-03
DAV:   6    -0.108309500128E+03   -0.93933E-08   -0.91290E-08  1220   0.114E-03
DAV:   7    -0.108309500130E+03   -0.25602E-08   -0.28051E-08  1210   0.610E-04
DAV:   8    -0.108309500131E+03   -0.99044E-09   -0.90480E-09  1160   0.336E-04    0.529E-02
RMM:   9    -0.108309431242E+03    0.68889E-04   -0.76583E-05  1870   0.336E-02    0.276E-02
RMM:  10    -0.108309432866E+03   -0.16240E-05   -0.41057E-05  1499   0.240E-02
  26 F= -.10830943E+03 E0= -.10829661E+03  d E =-.564114E-03
       N       E                     dE             d eps       ncg     rms          rms(c)
DAV:   1    -0.108309309540E+03    0.12170E-03   -0.10945E-01  2230   0.168E+00
DAV:   2    -0.108309516377E+03   -0.20684E-03   -0.20684E-03  2290   0.217E-01
DAV:   3    -0.108309517826E+03   -0.14485E-05   -0.14486E-05  1790   0.161E-02
DAV:   4    -0.108309517934E+03   -0.10832E-06   -0.10830E-06  1320   0.478E-03
DAV:   5    -0.108309517960E+03   -0.26089E-07   -0.26041E-07  1220   0.210E-03
DAV:   6    -0.108309517968E+03   -0.76534E-08   -0.79504E-08  1210   0.108E-03
DAV:   7    -0.108309517971E+03   -0.28112E-08   -0.26105E-08  1210   0.586E-04
DAV:   8    -0.108309517972E+03   -0.91586E-09   -0.89872E-09  1180   0.327E-04    0.340E-02
RMM:   9    -0.108309528048E+03   -0.10077E-04   -0.78842E-05  1646   0.291E-02    0.486E-02
RMM:  10    -0.108309496653E+03    0.31395E-04   -0.41090E-05  1344   0.203E-02    0.156E-02
RMM:  11    -0.108309496552E+03    0.10087E-06   -0.64131E-06  1118   0.105E-02
  27 F= -.10830950E+03 E0= -.10829661E+03  d E =-.627800E-03
       N       E                     dE             d eps       ncg     rms          rms(c)
DAV:   1    -0.108309478801E+03    0.17852E-04   -0.14548E-02  2230   0.610E-01
DAV:   2    -0.108309505109E+03   -0.26308E-04   -0.26308E-04  2340   0.773E-02
DAV:   3    -0.108309505278E+03   -0.16864E-06   -0.16874E-06  1420   0.586E-03
DAV:   4    -0.108309505312E+03   -0.34661E-07   -0.34957E-07  1210   0.222E-03
DAV:   5    -0.108309505324E+03   -0.11679E-07   -0.11323E-07  1140   0.108E-03
DAV:   6    -0.108309505328E+03   -0.40272E-08   -0.40267E-08  1040   0.606E-04
DAV:   7    -0.108309505329E+03   -0.13861E-08   -0.14929E-08  1030   0.329E-04
DAV:   8    -0.108309505330E+03   -0.80399E-09   -0.57100E-09  1000   0.198E-04    0.109E-02
RMM:   9    -0.108309501791E+03    0.35387E-05   -0.30088E-06  1028   0.690E-03
  28 F= -.10830950E+03 E0= -.10829659E+03  d E =-.633039E-03
       N       E                     dE             d eps       ncg     rms          rms(c)
DAV:   1    -0.108309594772E+03   -0.89442E-04   -0.10430E-01  2010   0.164E+00
DAV:   2    -0.108309787117E+03   -0.19235E-03   -0.19235E-03  2400   0.208E-01
DAV:   3    -0.108309788120E+03   -0.10022E-05   -0.10023E-05  1660   0.146E-02
DAV:   4    -0.108309788214E+03   -0.94950E-07   -0.94953E-07  1270   0.447E-03
DAV:   5    -0.108309788238E+03   -0.23737E-07   -0.23569E-07  1160   0.197E-03
DAV:   6    -0.108309788245E+03   -0.72896E-08   -0.72711E-08  1090   0.102E-03
DAV:   7    -0.108309788248E+03   -0.24229E-08   -0.24192E-08  1050   0.554E-04
DAV:   8    -0.108309788248E+03   -0.56934E-09   -0.84755E-09  1030   0.312E-04    0.348E-02
RMM:   9    -0.108309783974E+03    0.42747E-05   -0.77249E-05  1688   0.279E-02
  29 F= -.10830978E+03 E0= -.10829702E+03  d E =-.282182E-03
       N       E                     dE             d eps       ncg     rms          rms(c)
DAV:   1    -0.108308676368E+03    0.11119E-02   -0.93543E-01  2000   0.491E+00
DAV:   2    -0.108310409024E+03   -0.17327E-02   -0.17327E-02  2360   0.623E-01
DAV:   3    -0.108310419308E+03   -0.10283E-04   -0.10283E-04  2410   0.443E-02
DAV:   4    -0.108310419477E+03   -0.16970E-06   -0.16965E-06  1570   0.560E-03
DAV:   5    -0.108310419508E+03   -0.30182E-07   -0.30199E-07  1340   0.205E-03
DAV:   6    -0.108310419517E+03   -0.96343E-08   -0.97959E-08  1270   0.102E-03
DAV:   7    -0.108310419521E+03   -0.36762E-08   -0.35275E-08  1270   0.590E-04
DAV:   8    -0.108310419522E+03   -0.15043E-08   -0.13145E-08  1250   0.329E-04    0.135E-01
RMM:   9    -0.108310702289E+03   -0.28277E-03   -0.15289E-03  1992   0.120E-01    0.226E-01
RMM:  10    -0.108309970979E+03    0.73131E-03   -0.73260E-04  1963   0.839E-02    0.575E-02
RMM:  11    -0.108309966733E+03    0.42458E-05   -0.15667E-04  1923   0.479E-02    0.166E-02
RMM:  12    -0.108309969314E+03   -0.25810E-05   -0.15158E-05  1200   0.166E-02
  30 F= -.10830997E+03 E0= -.10829707E+03  d E =-.467523E-03
       N       E                     dE             d eps       ncg     rms          rms(c)
DAV:   1    -0.108309793992E+03    0.17274E-03   -0.24714E-01  2110   0.254E+00
DAV:   2    -0.108310258025E+03   -0.46403E-03   -0.46403E-03  2350   0.325E-01
DAV:   3    -0.108310260156E+03   -0.21310E-05   -0.21307E-05  1860   0.217E-02
DAV:   4    -0.108310260286E+03   -0.13043E-06   -0.13070E-06  1430   0.563E-03
DAV:   5    -0.108310260314E+03   -0.28115E-07   -0.27955E-07  1270   0.232E-03
DAV:   6    -0.108310260323E+03   -0.81645E-08   -0.79839E-08  1240   0.115E-03
DAV:   7    -0.108310260325E+03   -0.21964E-08   -0.25282E-08  1240   0.625E-04
DAV:   8    -0.108310260326E+03   -0.82309E-09   -0.85451E-09  1240   0.342E-04    0.504E-02
RMM:   9    -0.108310219935E+03    0.40391E-04   -0.17692E-04  1880   0.443E-02    0.612E-02
RMM:  10    -0.108310169119E+03    0.50816E-04   -0.86027E-05  1648   0.290E-02    0.317E-02
RMM:  11    -0.108310153131E+03    0.15988E-04   -0.46437E-05  1694   0.242E-02    0.644E-03
RMM:  12    -0.108310154770E+03   -0.16391E-05   -0.42359E-06  1200   0.817E-03
  31 F= -.10831015E+03 E0= -.10829725E+03  d E =-.185456E-03
       N       E                     dE             d eps       ncg     rms          rms(c)
DAV:   1    -0.108310128698E+03    0.24434E-04   -0.24004E-02  2030   0.793E-01
DAV:   2    -0.108310173808E+03   -0.45111E-04   -0.45111E-04  2390   0.101E-01
DAV:   3    -0.108310173987E+03   -0.17899E-06   -0.17904E-06  1400   0.673E-03
DAV:   4    -0.108310174017E+03   -0.29390E-07   -0.29205E-07  1240   0.230E-03
DAV:   5    -0.108310174025E+03   -0.79244E-08   -0.79644E-08  1190   0.106E-03
DAV:   6    -0.108310174027E+03   -0.24984E-08   -0.24884E-08  1150   0.575E-04
DAV:   7    -0.108310174028E+03   -0.84037E-09   -0.83230E-09  1110   0.307E-04
DAV:   8    -0.108310174028E+03   -0.15280E-09   -0.29598E-09  1060   0.180E-04    0.159E-02
RMM:   9    -0.108310171071E+03    0.29576E-05   -0.16653E-05  1209   0.141E-02
  32 F= -.10831017E+03 E0= -.10829731E+03  d E =-.201756E-03
       N       E                     dE             d eps       ncg     rms          rms(c)
DAV:   1    -0.108310195366E+03   -0.21338E-04   -0.34751E-02  2170   0.954E-01
DAV:   2    -0.108310258786E+03   -0.63420E-04   -0.63420E-04  2400   0.124E-01
DAV:   3    -0.108310259057E+03   -0.27090E-06   -0.27081E-06  1460   0.808E-03
DAV:   4    -0.108310259109E+03   -0.52648E-07   -0.52663E-07  1250   0.301E-03
DAV:   5    -0.108310259125E+03   -0.15601E-07   -0.15867E-07  1240   0.145E-03
DAV:   6    -0.108310259130E+03   -0.54906E-08   -0.53441E-08  1180   0.795E-04
DAV:   7    -0.108310259132E+03   -0.19709E-08   -0.19013E-08  1150   0.435E-04
DAV:   8    -0.108310259133E+03   -0.79126E-09   -0.70451E-09  1090   0.256E-04    0.432E-02
RMM:   9    -0.108310281043E+03   -0.21910E-04   -0.12426E-04  1779   0.335E-02    0.658E-02
RMM:  10    -0.108310226420E+03    0.54623E-04   -0.78059E-05  1564   0.277E-02    0.187E-02
RMM:  11    -0.108310226384E+03    0.35207E-07   -0.79744E-06  1184   0.107E-02
  33 F= -.10831023E+03 E0= -.10829728E+03  d E =-.553138E-04
       N       E                     dE             d eps       ncg     rms          rms(c)
DAV:   1    -0.108310225122E+03    0.12971E-05   -0.16745E-03  2430   0.209E-01
DAV:   2    -0.108310227869E+03   -0.27469E-05   -0.27468E-05  1920   0.265E-02
DAV:   3    -0.108310227920E+03   -0.50303E-07   -0.50240E-07  1380   0.314E-03
DAV:   4    -0.108310227928E+03   -0.84501E-08   -0.84317E-08  1200   0.112E-03
DAV:   5    -0.108310227930E+03   -0.20709E-08   -0.21171E-08  1150   0.525E-04
DAV:   6    -0.108310227931E+03   -0.73032E-09   -0.62225E-09  1130   0.266E-04
DAV:   7    -0.108310227931E+03   -0.27921E-09   -0.20151E-09  1090   0.146E-04
DAV:   8    -0.108310227931E+03    0.21373E-09   -0.69126E-10  1080   0.809E-05    0.122E-02
RMM:   9    -0.108310231854E+03   -0.39228E-05   -0.11789E-05  1118   0.104E-02
  34 F= -.10831023E+03 E0= -.10829722E+03  d E =-.607833E-04
       N       E                     dE             d eps       ncg     rms          rms(c)
DAV:   1    -0.108310224629E+03    0.33016E-05   -0.68885E-04  2180   0.134E-01
DAV:   2    -0.108310226206E+03   -0.15771E-05   -0.15771E-05  1460   0.195E-02
DAV:   3    -0.108310226279E+03   -0.72736E-07   -0.72893E-07  1210   0.395E-03
DAV:   4    -0.108310226292E+03   -0.12674E-07   -0.12687E-07  1120   0.143E-03
DAV:   5    -0.108310226295E+03   -0.36453E-08   -0.33294E-08  1120   0.661E-04
DAV:   6    -0.108310226296E+03   -0.86584E-09   -0.10258E-08  1090   0.329E-04
DAV:   7    -0.108310226297E+03   -0.42473E-09   -0.34981E-09  1060   0.181E-04
DAV:   8    -0.108310226297E+03    0.14916E-09   -0.12518E-09  1060   0.992E-05    0.401E-03
RMM:   9    -0.108310227635E+03   -0.13389E-05   -0.21883E-08   213   0.180E-03
  35 F= -.10831023E+03 E0= -.10829729E+03  d E =-.565649E-04
