 vasp.5.4.4.18Apr17-6-g9f103f2a35 (build Nov 15 2019 10:10:58) complex          
  
 executed on             LinuxIFC date 2024.07.29  10:57:23
 running on   20 total cores
 distrk:  each k-point on   20 cores,    1 groups
 distr:  one band on NCORES_PER_BAND=   4 cores,    5 groups


--------------------------------------------------------------------------------------------------------


 INCAR:
 POTCAR:    PAW_PBE O 08Apr2002                   
 POTCAR:    PAW_PBE Mg 13Apr2007                  
 POTCAR:    PAW_PBE O 08Apr2002                   
   VRHFIN =O: s2p4                                                              
   LEXCH  = PE                                                                  
   EATOM  =   432.3788 eV,   31.7789 Ry                                         
                                                                                
   TITEL  = PAW_PBE O 08Apr2002                                                 
   LULTRA =        F    use ultrasoft PP ?                                      
   IUNSCR =        1    unscreen: 0-lin 1-nonlin 2-no                           
   RPACOR =    1.200    partial core radius                                     
   POMASS =   16.000; ZVAL   =    6.000    mass and valenz                      
   RCORE  =    1.520    outmost cutoff radius                                   
   RWIGS  =    1.550; RWIGS  =    0.820    wigner-seitz radius (au A)           
   ENMAX  =  400.000; ENMIN  =  300.000 eV                                      
   ICORE  =        2    local potential                                         
   LCOR   =        T    correct aug charges                                     
   LPAW   =        T    paw PP                                                  
   EAUG   =  605.392                                                            
   DEXC   =    0.000                                                            
   RMAX   =    1.553    core radius for proj-oper                               
   RAUG   =    1.300    factor for augmentation sphere                          
   RDEP   =    1.550    radius for radial grids                                 
   RDEPT  =    1.329    core radius for aug-charge                              
                                                                                
   Atomic configuration                                                         
    4 entries                                                                   
     n  l   j            E        occ.                                          
     1  0  0.50      -514.6923   2.0000                                         
     2  0  0.50       -23.9615   2.0000                                         
     2  1  0.50        -9.0305   4.0000                                         
     3  2  1.50        -9.5241   0.0000                                         
   Description                                                                  
     l       E           TYP  RCUT    TYP  RCUT                                 
     0    -23.9615318     23  1.200                                             
     0     -9.5240782     23  1.200                                             
     1     -9.0304911     23  1.520                                             
     1      8.1634956     23  1.520                                             
     2     -9.5240782      7  1.500                                             
  local pseudopotential read in
  partial core-charges read in
  partial kinetic energy density read in
  kinetic energy density of atom read in
  atomic valenz-charges read in
  non local Contribution for L=           0  read in
    real space projection operators read in
  non local Contribution for L=           0  read in
    real space projection operators read in
  non local Contribution for L=           1  read in
    real space projection operators read in
  non local Contribution for L=           1  read in
    real space projection operators read in
    PAW grid and wavefunctions read in
 
   number of l-projection  operators is LMAX  =           4
   number of lm-projection operators is LMMAX =           8
 
 POTCAR:    PAW_PBE Mg 13Apr2007                  
   VRHFIN =Mg: s2p0                                                             
   LEXCH  = PE                                                                  
   EATOM  =    23.0369 eV,    1.6932 Ry                                         
                                                                                
   TITEL  = PAW_PBE Mg 13Apr2007                                                
   LULTRA =        F    use ultrasoft PP ?                                      
   IUNSCR =        1    unscreen: 0-lin 1-nonlin 2-no                           
   RPACOR =    1.500    partial core radius                                     
   POMASS =   24.305; ZVAL   =    2.000    mass and valenz                      
   RCORE  =    2.000    outmost cutoff radius                                   
   RWIGS  =    2.880; RWIGS  =    1.524    wigner-seitz radius (au A)           
   ENMAX  =  200.000; ENMIN  =  100.000 eV                                      
   RCLOC  =    1.506    cutoff for local pot                                    
   LCOR   =        T    correct aug charges                                     
   LPAW   =        T    paw PP                                                  
   EAUG   =  454.734                                                            
   DEXC   =    0.000                                                            
   RMAX   =    2.045    core radius for proj-oper                               
   RAUG   =    1.300    factor for augmentation sphere                          
   RDEP   =    2.025    radius for radial grids                                 
   RDEPT  =    1.942    core radius for aug-charge                              
                                                                                
   Atomic configuration                                                         
    6 entries                                                                   
     n  l   j            E        occ.                                          
     1  0  0.50     -1259.6230   2.0000                                         
     2  0  0.50       -79.8442   2.0000                                         
     2  1  1.50       -46.6121   6.0000                                         
     3  0  0.50        -4.7055   2.0000                                         
     3  1  0.50        -1.3660   0.0000                                         
     3  2  1.50        -1.3606   0.0000                                         
   Description                                                                  
     l       E           TYP  RCUT    TYP  RCUT                                 
     0     -4.7054661     23  2.000                                             
     0     27.2116520     23  2.000                                             
     1      1.3605826     23  2.000                                             
     1     27.2116520     23  2.000                                             
     2     -1.3605826     23  2.000                                             
  local pseudopotential read in
  partial core-charges read in
  partial kinetic energy density read in
  atomic valenz-charges read in
  non local Contribution for L=           0  read in
    real space projection operators read in
  non local Contribution for L=           0  read in
    real space projection operators read in
  non local Contribution for L=           1  read in
    real space projection operators read in
  non local Contribution for L=           1  read in
    real space projection operators read in
  non local Contribution for L=           2  read in
    real space projection operators read in
    PAW grid and wavefunctions read in
 
   number of l-projection  operators is LMAX  =           5
   number of lm-projection operators is LMMAX =          13
 
 Optimization of the real space projectors (new method)

 maximal supplied QI-value         = 24.76
 optimisation between [QCUT,QGAM] = [ 11.64, 28.96] = [ 37.91,234.92] Ry 
 Optimized for a Real-space Cutoff    0.91 Angstroem

   l    n(q)    QCUT    max X(q) W(low)/X(q) W(high)/X(q)  e(spline) 
   0      8    11.635    20.381    0.20E-03    0.22E-03    0.69E-07
   0      8    11.635    15.268    0.22E-03    0.24E-03    0.73E-07
   1      7    11.635     5.964    0.40E-03    0.67E-03    0.12E-06
   1      7    11.635     5.382    0.33E-03    0.56E-03    0.11E-06
 Optimization of the real space projectors (new method)

 maximal supplied QI-value         = 18.90
 optimisation between [QCUT,QGAM] = [ 11.53, 29.10] = [ 37.21,237.16] Ry 
 Optimized for a Real-space Cutoff    1.12 Angstroem

   l    n(q)    QCUT    max X(q) W(low)/X(q) W(high)/X(q)  e(spline) 
   0     10    11.527    28.265    0.21E-03    0.84E-05    0.64E-06
   0     10    11.527    10.429    0.17E-03    0.65E-05    0.50E-06
   1      9    11.527    13.073    0.75E-04    0.28E-03    0.46E-06
   1      9    11.527     9.625    0.62E-04    0.23E-03    0.39E-06
   2      9    11.527     4.652    0.39E-03    0.81E-04    0.28E-06
  PAW_PBE O 08Apr2002                   :
 energy of atom  1       EATOM= -432.3788
 kinetic energy error for atom=    0.0208 (will be added to EATOM!!)
  PAW_PBE Mg 13Apr2007                  :
 energy of atom  2       EATOM=  -23.0369
 kinetic energy error for atom=    0.0000 (will be added to EATOM!!)
 
 
 POSCAR: MgO(1 1 1 (2)                           
  positions in direct lattice
  No initial velocities read in
 exchange correlation table for  LEXCH =        8
   RHO(1)=    0.500       N(1)  =     2000
   RHO(2)=  100.500       N(2)  =     4000

 VTST: version 3.2, (02/03/18)

 CHAIN: initializing optimizer
 
 OPT: Using VASP Conjugate-Gradient optimizer
 CHAIN: Read ICHAIN            0
 
 POSCAR: MgO(1 1 1 (2)                           
  positions in direct lattice
  No initial velocities read in
 


--------------------------------------------------------------------------------------------------------


 ion  position               nearest neighbor table
   1  0.000  0.000  0.027-  14 2.12  14 2.12  14 2.12
   2  0.333  0.667  0.093-  11 2.12  14 2.12  14 2.12  11 2.12  11 2.12  14 2.12
   3  0.000  0.000  0.225-  17 2.12  15 2.12  17 2.12  17 2.12  15 2.12  15 2.12
   4  0.333  0.667  0.292-  12 2.12  12 2.12  12 2.12  15 2.12  15 2.12  15 2.12
   5  0.000  0.000  0.424-  16 2.12  16 2.12  16 2.12  18 2.12  18 2.12  18 2.12
   6  0.333  0.667  0.490-  16 2.12  16 2.12  16 2.12  13 2.12  13 2.12  13 2.12
   7  0.000  0.000  0.622-  19 2.12  19 2.12  19 2.12
   8  0.667  0.333  0.159-  11 2.12  11 2.12  11 2.12  17 2.12  17 2.12  17 2.12
   9  0.667  0.333  0.358-  12 2.12  18 2.12  18 2.12  12 2.12  12 2.12  18 2.12
  10  0.667  0.333  0.556-  13 2.12  19 2.12  19 2.12  13 2.12  13 2.12  19 2.12
  11  0.000  0.000  0.126-   2 2.12   8 2.12   2 2.12   2 2.12   8 2.12   8 2.12  14 3.00  14 3.00
                            14 3.00  17 3.00  17 3.00  17 3.00
  12  0.000  0.000  0.325-   9 2.12   4 2.12   9 2.12   9 2.12   4 2.12   4 2.12  18 3.00  18 3.00
                            18 3.00  15 3.00  15 3.00  15 3.00
  13  0.000  0.000  0.523-  10 2.12  10 2.12  10 2.12   6 2.12   6 2.12   6 2.12  19 3.00  19 3.00
                            19 3.00  16 3.00  16 3.00  16 3.00
  14  0.667  0.333  0.060-   2 2.12   2 2.12   2 2.12   1 2.12   1 2.12   1 2.12  11 3.00  11 3.00
                            11 3.00
  15  0.667  0.333  0.259-   3 2.12   3 2.12   3 2.12   4 2.12   4 2.12   4 2.12  17 3.00  17 3.00
                            17 3.00  12 3.00  12 3.00  12 3.00
  16  0.667  0.333  0.457-   5 2.12   6 2.12   6 2.12   5 2.12   5 2.12   6 2.12  13 3.00  18 3.00
                            18 3.00  13 3.00  13 3.00  18 3.00
  17  0.333  0.667  0.192-   3 2.12   3 2.12   3 2.12   8 2.12   8 2.12   8 2.12  15 3.00  15 3.00
                            15 3.00  11 3.00  11 3.00  11 3.00
  18  0.333  0.667  0.391-   9 2.12   9 2.12   9 2.12   5 2.12   5 2.12   5 2.12  12 3.00  12 3.00
                            12 3.00  16 3.00  16 3.00  16 3.00
  19  0.333  0.667  0.589-   7 2.12  10 2.12  10 2.12   7 2.12   7 2.12  10 2.12  13 3.00  13 3.00
                            13 3.00
 
  LATTYP: Found a hexagonal cell.
 ALAT       =     3.0044062036
 C/A-ratio  =    12.3411345745
  
  Lattice vectors:
  
 A1 = (   2.1244360000,  -2.1244360000,   0.0000000000)
 A2 = (   0.0000000000,   2.1244360000,  -2.1244360000)
 A3 = (  21.4068670000,  21.4068670000,  21.4068670000)


Analysis of symmetry for initial positions (statically):
=====================================================================
 Subroutine PRICEL returns:
 Original cell was already a primitive cell.
 

 Routine SETGRP: Setting up the symmetry group for a 
 hexagonal supercell.


 Subroutine GETGRP returns: Found 12 space group operations
 (whereof  6 operations were pure point group operations)
 out of a pool of 24 trial point group operations.


The static configuration has the point symmetry C_3v.
 The point group associated with its full space group is D_3d.


Analysis of symmetry for dynamics (positions and initial velocities):
=====================================================================
 Subroutine PRICEL returns:
 Original cell was already a primitive cell.
 

 Routine SETGRP: Setting up the symmetry group for a 
 hexagonal supercell.


 Subroutine GETGRP returns: Found 12 space group operations
 (whereof  6 operations were pure point group operations)
 out of a pool of 24 trial point group operations.


The dynamic configuration has the point symmetry C_3v.
 The point group associated with its full space group is D_3d.


Analysis of constrained symmetry for selective dynamics:
=====================================================================
 Subroutine PRICEL returns:
 Original cell was already a primitive cell.
 

 Routine SETGRP: Setting up the symmetry group for a 
 hexagonal supercell.


 Subroutine GETGRP returns: Found 12 space group operations
 (whereof  6 operations were pure point group operations)
 out of a pool of 24 trial point group operations.


The constrained configuration has the point symmetry C_3v.
 The point group associated with its full space group is D_3d.


 Subroutine INISYM returns: Found 12 space group operations
 (whereof  6 operations are pure point group operations),
 and found     1 'primitive' translations

 
 
 KPOINTS: K-Spacing Value to Generate K-Mesh: 0.02

Automatic generation of k-mesh.
Space group operators:
 irot       det(A)        alpha          n_x          n_y          n_z        tau_x        tau_y        tau_z
    1     1.000000     0.000000     1.000000     0.000000     0.000000     0.000000     0.000000     0.000000
    2     1.000000   120.000000    -0.577350    -0.577350    -0.577350     0.000000     0.000000     0.000000
    3     1.000000   120.000000     0.577350     0.577350     0.577350     0.000000     0.000000     0.000000
    4    -1.000000   180.000000     0.707107    -0.707107    -0.000000     0.000000     0.000000     0.000000
    5    -1.000000   180.000000    -0.000000    -0.707107     0.707107     0.000000     0.000000     0.000000
    6    -1.000000   180.000000     0.707107     0.000000    -0.707107     0.000000     0.000000     0.000000
    7    -1.000000     0.000000     1.000000     0.000000     0.000000     0.000000     0.000000     0.649385
    8    -1.000000   120.000000    -0.577350    -0.577350    -0.577350     0.000000     0.000000     0.649385
    9    -1.000000   120.000000     0.577350     0.577350     0.577350     0.000001     0.000000     0.649385
   10     1.000000   180.000000     0.707107    -0.707107    -0.000000     0.000001     0.000000     0.649385
   11     1.000000   180.000000    -0.000000    -0.707107     0.707107     0.000000     0.000000     0.649385
   12     1.000000   180.000000     0.707107     0.000000    -0.707107     0.000000     0.000000     0.649385
 
 Subroutine IBZKPT returns following result:
 ===========================================
 
 Found     20 irreducible k-points:
 
 Following reciprocal coordinates:
            Coordinates               Weight
  0.062500  0.062500  0.000000     48.000000
  0.187500  0.062500 -0.000000     96.000000
  0.312500  0.062500  0.000000     96.000000
  0.437500  0.062500 -0.000000     96.000000
 -0.437500  0.062500  0.000000     96.000000
 -0.312500  0.062500  0.000000     96.000000
 -0.187500  0.062500 -0.000000     96.000000
 -0.062500  0.062500 -0.000000     48.000000
  0.187500  0.187500  0.000000     48.000000
  0.312500  0.187500  0.000000     96.000000
  0.437500  0.187500  0.000000     96.000000
 -0.437500  0.187500 -0.000000     96.000000
 -0.312500  0.187500  0.000000     96.000000
 -0.187500  0.187500  0.000000     48.000000
  0.312500  0.312500  0.000000     48.000000
  0.437500  0.312500  0.000000     96.000000
 -0.437500  0.312500 -0.000000     96.000000
 -0.312500  0.312500  0.000000     48.000000
  0.437500  0.437500  0.000000     48.000000
 -0.437500  0.437500  0.000000     48.000000
 
 Following cartesian coordinates:
            Coordinates               Weight
  0.029420  0.000000 -0.029420     48.000000
  0.068646 -0.019613 -0.049033     96.000000
  0.107872 -0.039226 -0.068646     96.000000
  0.147098 -0.058839 -0.088259     96.000000
 -0.127485  0.078452  0.049033     96.000000
 -0.088259  0.058839  0.029420     96.000000
 -0.049033  0.039226  0.009807     96.000000
 -0.009807  0.019613 -0.009807     48.000000
  0.088259  0.000000 -0.088259     48.000000
  0.127485 -0.019613 -0.107872     96.000000
  0.166711 -0.039226 -0.127485     96.000000
 -0.107872  0.098065  0.009807     96.000000
 -0.068646  0.078452 -0.009807     96.000000
 -0.029420  0.058839 -0.029420     48.000000
  0.147098  0.000000 -0.147098     48.000000
  0.186324 -0.019613 -0.166711     96.000000
 -0.088259  0.117678 -0.029420     96.000000
 -0.049033  0.098065 -0.049033     48.000000
  0.205937  0.000000 -0.205937     48.000000
 -0.068646  0.137291 -0.068646     48.000000
 


--------------------------------------------------------------------------------------------------------




 Dimension of arrays:
   k-points           NKPTS =     20   k-points in BZ     NKDIM =     20   number of bands    NBANDS=     50
   number of dos      NEDOS =    301   number of ions     NIONS =     19
   non local maximal  LDIM  =      5   non local SUM 2l+1 LMDIM =     13
   total plane-waves  NPLWV = 161280
   max r-space proj   IRMAX =   3350   max aug-charges    IRDMAX=   7703
   dimension x,y,z NGX =    24 NGY =   24 NGZ =  280
   dimension x,y,z NGXF=    32 NGYF=   32 NGZF=  400
   support grid    NGXF=    32 NGYF=   32 NGZF=  400
   ions per type =              10   9
   NGX,Y,Z   is equivalent  to a cutoff of  13.28, 13.28, 12.55 a.u.
   NGXF,Y,Z  is equivalent  to a cutoff of  17.71, 17.71, 17.93 a.u.

 SYSTEM =  Al110                                   
 POSCAR =  MgO(1 1 1 (2)                           

 Startparameter for this run:
   NWRITE =      2    write-flag & timer
   PREC   = h         normal or accurate (medium, high low for compatibility)
   ISTART =      0    job   : 0-new  1-cont  2-samecut
   ICHARG =      2    charge: 1-file 2-atom 10-const
   ISPIN  =      1    spin polarized calculation?
   LNONCOLLINEAR =      F non collinear calculations
   LSORBIT =      F    spin-orbit coupling
   INIWAV =      1    electr: 0-lowe 1-rand  2-diag
   LASPH  =      F    aspherical Exc in radial PAW
   METAGGA=      F    non-selfconsistent MetaGGA calc.

 Electronic Relaxation 1
   ENCUT  =  520.0 eV  38.22 Ry    6.18 a.u.   5.59  5.59 68.94*2*pi/ulx,y,z
   ENINI  =  520.0     initial cutoff
   ENAUG  =  605.4 eV  augmentation charge cutoff
   NELM   =    100;   NELMIN=  6; NELMDL=  8     # of ELM steps 
   EDIFF  = 0.1E-04   stopping-criterion for ELM
   LREAL  =      T    real-space projection
   NLSPLINE    = F    spline interpolate recip. space projectors
   LCOMPAT=      F    compatible to vasp.4.4
   GGA_COMPAT  = T    GGA compatible to vasp.4.4-vasp.4.6
   LMAXPAW     = -100 max onsite density
   LMAXMIX     =    2 max onsite mixed and CHGCAR
   VOSKOWN=      0    Vosko Wilk Nusair interpolation
   ROPT   =   -0.00040  -0.00040
 Ionic relaxation
   EDIFFG = -.1E-01   stopping-criterion for IOM
   NSW    =    500    number of steps for IOM
   NBLOCK =      1;   KBLOCK =    500    inner block; outer block 
   IBRION =      2    ionic relax: 0-MD 1-quasi-New 2-CG
   NFREE  =      1    steps in history (QN), initial steepest desc. (CG)
   ISIF   =      2    stress and relaxation
   IWAVPR =     11    prediction:  0-non 1-charg 2-wave 3-comb
   ISYM   =      2    0-nonsym 1-usesym 2-fastsym
   LCORR  =      T    Harris-Foulkes like correction to forces

   POTIM  = 0.5000    time-step for ionic-motion
   TEIN   =    0.0    initial temperature
   TEBEG  =    0.0;   TEEND  =   0.0 temperature during run
   SMASS  =  -3.00    Nose mass-parameter (am)
   estimated Nose-frequenzy (Omega)   =  0.10E-29 period in steps =****** mass=  -0.206E-27a.u.
   SCALEE = 1.0000    scale energy and forces
   NPACO  =    256;   APACO  = 16.0  distance and # of slots for P.C.
   PSTRESS=    0.0 pullay stress

  Mass of Ions in am
   POMASS =  16.00 24.30
  Ionic Valenz
   ZVAL   =   6.00  2.00
  Atomic Wigner-Seitz radii
   RWIGS  =  -1.00 -1.00
  virtual crystal weights 
   VCA    =   1.00  1.00
   NELECT =      78.0000    total number of electrons
   NUPDOWN=      -1.0000    fix difference up-down

 DOS related values:
   EMIN   =  10.00;   EMAX   =-10.00  energy-range for DOS
   EFERMI =   0.00
   ISMEAR =     0;   SIGMA  =   0.05  broadening in eV -4-tet -1-fermi 0-gaus

 Electronic relaxation 2 (details)
   IALGO  =     68    algorithm
   LDIAG  =      T    sub-space diagonalisation (order eigenvalues)
   LSUBROT=      F    optimize rotation matrix (better conditioning)
   TURBO    =      0    0=normal 1=particle mesh
   IRESTART =      0    0=no restart 2=restart with 2 vectors
   NREBOOT  =      0    no. of reboots
   NMIN     =      0    reboot dimension
   EREF     =   0.00    reference energy to select bands
   IMIX   =      4    mixing-type and parameters
     AMIX     =   0.40;   BMIX     =  1.00
     AMIX_MAG =   1.60;   BMIX_MAG =  1.00
     AMIN     =   0.10
     WC   =   100.;   INIMIX=   1;  MIXPRE=   1;  MAXMIX= -45

 Intra band minimization:
   WEIMIN = 0.0010     energy-eigenvalue tresh-hold
   EBREAK =  0.50E-07  absolut break condition
   DEPER  =   0.30     relativ break condition  

   TIME   =   0.40     timestep for ELM

  volume/ion in A,a.u.               =      15.25       102.94
  Fermi-wavevector in a.u.,A,eV,Ry     =   1.056945  1.997337 15.199520  1.117133
  Thomas-Fermi vector in A             =   2.192200
 
 Write flags
   LWAVE        =      F    write WAVECAR
   LDOWNSAMPLE  =      F    k-point downsampling of WAVECAR
   LCHARG       =      F    write CHGCAR
   LVTOT        =      F    write LOCPOT, total local potential
   LVHAR        =      F    write LOCPOT, Hartree potential only
   LELF         =      F    write electronic localiz. function (ELF)
   LORBIT       =      0    0 simple, 1 ext, 2 COOP (PROOUT), +10 PAW based schemes


 Dipole corrections
   LMONO  =      F    monopole corrections only (constant potential shift)
   LDIPOL =      F    correct potential (dipole corrections)
   IDIPOL =      0    1-x, 2-y, 3-z, 4-all directions 
   EPSILON=  1.0000000 bulk dielectric constant

 Exchange correlation treatment:
   GGA     =    --    GGA type
   LEXCH   =     8    internal setting for exchange type
   VOSKOWN=      0    Vosko Wilk Nusair interpolation
   LHFCALC =     F    Hartree Fock is set to
   LHFONE  =     F    Hartree Fock one center treatment
   AEXX    =    0.0000 exact exchange contribution

 Linear response parameters
   LEPSILON=     F    determine dielectric tensor
   LRPA    =     F    only Hartree local field effects (RPA)
   LNABLA  =     F    use nabla operator in PAW spheres
   LVEL    =     F    velocity operator in full k-point grid
   LINTERFAST=   F  fast interpolation
   KINTER  =     0    interpolate to denser k-point grid
   CSHIFT  =0.1000    complex shift for real part using Kramers Kronig
   OMEGAMAX=  -1.0    maximum frequency
   DEG_THRESHOLD= 0.2000000E-02 threshold for treating states as degnerate
   RTIME   =   -0.100 relaxation time in fs
  (WPLASMAI=    0.000 imaginary part of plasma frequency in eV, 0.658/RTIME)
   DFIELD  = 0.0000000 0.0000000 0.0000000 field for delta impulse in time
 
 Orbital magnetization related:
   ORBITALMAG=     F  switch on orbital magnetization
   LCHIMAG   =     F  perturbation theory with respect to B field
   DQ        =  0.001000  dq finite difference perturbation B field
   LLRAUG    =     F  two centre corrections for induced B field



--------------------------------------------------------------------------------------------------------


 conjugate gradient relaxation of ions
   using selective dynamics as specified on POSCAR
 charge density and potential will be updated during run
 non-spin polarized calculation
 RMM-DIIS sequential band-by-band and
  variant of blocked Davidson during initial phase
 perform sub-space diagonalisation
    before iterative eigenvector-optimisation
 modified Broyden-mixing scheme, WC =      100.0
 initial mixing is a Kerker type mixing with AMIX =  0.4000 and BMIX =      1.0000
 Hartree-type preconditioning will be used
 using additional bands           11
 real space projection scheme for non local part
 use partial core corrections
 calculate Harris-corrections to forces 
   (improved forces if not selfconsistent)
 use gradient corrections 
 use of overlap-Matrix (Vanderbilt PP)
 Gauss-broadening in eV      SIGMA  =   0.05


--------------------------------------------------------------------------------------------------------


  energy-cutoff  :      520.00
  volume of cell :      289.84
      direct lattice vectors                 reciprocal lattice vectors
     2.124436000 -2.124436000  0.000000000     0.313808779 -0.156904389 -0.156904389
     0.000000000  2.124436000 -2.124436000     0.156904389  0.156904389 -0.313808779
    21.406867000 21.406867000 21.406867000     0.015571327  0.015571327  0.015571327

  length of vectors
     3.004406204  3.004406204 37.077781275     0.384335692  0.384335692  0.026970330


 
 k-points in units of 2pi/SCALE and weight: K-Spacing Value to Generate K-Mesh: 0.02
   0.02941957  0.00000000 -0.02941957       0.031
   0.06864567 -0.01961305 -0.04903262       0.062
   0.10787177 -0.03922610 -0.06864567       0.062
   0.14709787 -0.05883915 -0.08825872       0.062
  -0.12748482  0.07845219  0.04903262       0.062
  -0.08825872  0.05883915  0.02941957       0.062
  -0.04903262  0.03922610  0.00980652       0.062
  -0.00980652  0.01961305 -0.00980652       0.031
   0.08825872  0.00000000 -0.08825872       0.031
   0.12748482 -0.01961305 -0.10787177       0.062
   0.16671091 -0.03922610 -0.12748482       0.062
  -0.10787177  0.09806524  0.00980652       0.062
  -0.06864567  0.07845219 -0.00980652       0.062
  -0.02941957  0.05883915 -0.02941957       0.031
   0.14709787  0.00000000 -0.14709787       0.031
   0.18632396 -0.01961305 -0.16671091       0.062
  -0.08825872  0.11767829 -0.02941957       0.062
  -0.04903262  0.09806524 -0.04903262       0.031
   0.20593701  0.00000000 -0.20593701       0.031
  -0.06864567  0.13729134 -0.06864567       0.031
 
 k-points in reciprocal lattice and weights: K-Spacing Value to Generate K-Mesh: 0.02
   0.06250000  0.06250000  0.00000000       0.031
   0.18750000  0.06250000 -0.00000000       0.062
   0.31250000  0.06250000  0.00000000       0.062
   0.43750000  0.06250000 -0.00000000       0.062
  -0.43750000  0.06250000  0.00000000       0.062
  -0.31250000  0.06250000  0.00000000       0.062
  -0.18750000  0.06250000 -0.00000000       0.062
  -0.06250000  0.06250000 -0.00000000       0.031
   0.18750000  0.18750000  0.00000000       0.031
   0.31250000  0.18750000  0.00000000       0.062
   0.43750000  0.18750000  0.00000000       0.062
  -0.43750000  0.18750000 -0.00000000       0.062
  -0.31250000  0.18750000  0.00000000       0.062
  -0.18750000  0.18750000  0.00000000       0.031
   0.31250000  0.31250000  0.00000000       0.031
   0.43750000  0.31250000  0.00000000       0.062
  -0.43750000  0.31250000 -0.00000000       0.062
  -0.31250000  0.31250000  0.00000000       0.031
   0.43750000  0.43750000  0.00000000       0.031
  -0.43750000  0.43750000  0.00000000       0.031
 
 position of ions in fractional coordinates (direct lattice) 
   0.00000000  0.00000000  0.02697000
   0.33333300  0.66666700  0.09313100
   0.00000000  0.00000000  0.22545200
   0.33333300  0.66666700  0.29161300
   0.00000000  0.00000000  0.42393400
   0.33333300  0.66666700  0.49009400
   0.00000000  0.00000000  0.62241500
   0.66666700  0.33333300  0.15929100
   0.66666700  0.33333300  0.35777300
   0.66666700  0.33333300  0.55625500
   0.00000000  0.00000000  0.12621100
   0.00000000  0.00000000  0.32469300
   0.00000000  0.00000000  0.52317500
   0.66666700  0.33333300  0.06005100
   0.66666700  0.33333300  0.25853200
   0.66666700  0.33333300  0.45701400
   0.33333300  0.66666700  0.19237200
   0.33333300  0.66666700  0.39085300
   0.33333300  0.66666700  0.58933500
 
 position of ions in cartesian coordinates  (Angst):
   0.57734320  0.57734320  0.57734320
   2.70178756  2.70178968  0.57735156
   4.82622098  4.82622098  4.82622098
   6.95066533  6.95066746  4.82622933
   9.07509875  9.07509875  9.07509875
  11.19952170 11.19952383  9.07508570
  13.32395512 13.32395512 13.32395512
   4.82621263  2.70177450  2.70177663
   9.07509040  6.95065228  6.95065440
  13.32396818 11.19953005 11.19953218
   2.70178209  2.70178209  2.70178209
   6.95065987  6.95065987  6.95065987
  11.19953764 11.19953764 11.19953764
   2.70179515  0.57735702  0.57735915
   6.95065151  4.82621339  4.82621551
  11.19952929  9.07509117  9.07509329
   4.82622644  4.82622857  2.70179044
   9.07508281  9.07508494  6.95064681
  13.32396059 13.32396271 11.19952459
 


--------------------------------------------------------------------------------------------------------


 k-point  1 :   0.0625 0.0625 0.0000  plane waves:    7893
 k-point  2 :   0.1875 0.0625-0.0000  plane waves:    7842
 k-point  3 :   0.3125 0.0625 0.0000  plane waves:    7784
 k-point  4 :   0.4375 0.0625-0.0000  plane waves:    7763
 k-point  5 :  -0.4375 0.0625 0.0000  plane waves:    7771
 k-point  6 :  -0.3125 0.0625 0.0000  plane waves:    7819
 k-point  7 :  -0.1875 0.0625-0.0000  plane waves:    7861
 k-point  8 :  -0.0625 0.0625-0.0000  plane waves:    7903
 k-point  9 :   0.1875 0.1875 0.0000  plane waves:    7811
 k-point 10 :   0.3125 0.1875 0.0000  plane waves:    7788
 k-point 11 :   0.4375 0.1875 0.0000  plane waves:    7755
 k-point 12 :  -0.4375 0.1875-0.0000  plane waves:    7798
 k-point 13 :  -0.3125 0.1875 0.0000  plane waves:    7832
 k-point 14 :  -0.1875 0.1875 0.0000  plane waves:    7864
 k-point 15 :   0.3125 0.3125 0.0000  plane waves:    7792
 k-point 16 :   0.4375 0.3125 0.0000  plane waves:    7770
 k-point 17 :  -0.4375 0.3125-0.0000  plane waves:    7791
 k-point 18 :  -0.3125 0.3125 0.0000  plane waves:    7802
 k-point 19 :   0.4375 0.4375 0.0000  plane waves:    7742
 k-point 20 :  -0.4375 0.4375 0.0000  plane waves:    7786

 maximum and minimum number of plane-waves per node :      1994     1924

 maximum number of plane-waves:      7903
 maximum index in each direction: 
   IXMAX=    6   IYMAX=    5   IZMAX=   68
   IXMIN=   -6   IYMIN=   -6   IZMIN=  -68


 real space projection operators:
  total allocation   :       4006.60 KBytes
  max/ min on nodes  :       1010.73        986.09


 parallel 3D FFT for wavefunctions:
    minimum data exchange during FFTs selected (reduces bandwidth)
 parallel 3D FFT for charge:
    minimum data exchange during FFTs selected (reduces bandwidth)


 total amount of memory used by VASP MPI-rank0    44078. kBytes
=======================================================================

   base      :      30000. kBytes
   nonlr-proj:       2315. kBytes
   fftplans  :       2110. kBytes
   grid      :       3053. kBytes
   one-center:         40. kBytes
   wavefun   :       6560. kBytes
 
     INWAV:  cpu time    0.0000: real time    0.0001
 Broyden mixing: mesh for mixing (old mesh)
   NGX = 11   NGY = 11   NGZ =137
  (NGX  = 32   NGY  = 32   NGZ  =400)
  gives a total of  16577 points

 initial charge density was supplied:
 charge density of overlapping atoms calculated
 number of electron      78.0000000 magnetization 
 keeping initial charge density in first step


--------------------------------------------------------------------------------------------------------


 Maximum index for non-local projection operator          825
 Maximum index for augmentation-charges          558 (set IRDMAX)


--------------------------------------------------------------------------------------------------------


 First call to EWALD:  gamma=   0.268
 Maximum number of real-space cells 6x 6x 1
 Maximum number of reciprocal cells 2x 2x13

    FEWALD:  cpu time    0.0013: real time    0.0013


--------------------------------------- Iteration      1(   1)  ---------------------------------------


    POTLOK:  cpu time    0.0131: real time    0.0131
    SETDIJ:  cpu time    0.0026: real time    0.0026
     EDDAV:  cpu time    1.9877: real time    2.0291
       DOS:  cpu time    0.0010: real time    0.0016
    --------------------------------------------
      LOOP:  cpu time    2.0044: real time    2.0465

 eigenvalue-minimisations  :  2000
 total energy-change (2. order) : 0.5755158E+03  (-0.3676838E+04)
 number of electron      78.0000000 magnetization 
 augmentation part       78.0000000 magnetization 

 Free energy of the ion-electron system (eV)
  ---------------------------------------------------
  alpha Z        PSCENC =       116.82591216
  Ewald energy   TEWEN  =     24148.76422335
  -Hartree energ DENC   =    -28454.84114117
  -exchange      EXHF   =         0.00000000
  -V(xc)+E(xc)   XCENC  =      -158.78780997
  PAW double counting   =      4053.25502632    -3604.47710419
  entropy T*S    EENTRO =        -0.00641612
  eigenvalues    EBANDS =       -56.12848781
  atomic energy  EATOM  =      4530.91163914
  Solvation  Ediel_sol  =         0.00000000
  ---------------------------------------------------
  free energy    TOTEN  =       575.51584171 eV

  energy without entropy =      575.52225783  energy(sigma->0) =      575.51904977


--------------------------------------------------------------------------------------------------------




--------------------------------------- Iteration      1(   2)  ---------------------------------------


     EDDAV:  cpu time    2.4558: real time    2.4742
       DOS:  cpu time    0.0008: real time    0.0008
    --------------------------------------------
      LOOP:  cpu time    2.4566: real time    2.4750

 eigenvalue-minimisations  :  2680
 total energy-change (2. order) :-0.6331111E+03  (-0.6200453E+03)
 number of electron      78.0000000 magnetization 
 augmentation part       78.0000000 magnetization 

 Free energy of the ion-electron system (eV)
  ---------------------------------------------------
  alpha Z        PSCENC =       116.82591216
  Ewald energy   TEWEN  =     24148.76422335
  -Hartree energ DENC   =    -28454.84114117
  -exchange      EXHF   =         0.00000000
  -V(xc)+E(xc)   XCENC  =      -158.78780997
  PAW double counting   =      4053.25502632    -3604.47710419
  entropy T*S    EENTRO =        -0.00254283
  eigenvalues    EBANDS =      -689.24345917
  atomic energy  EATOM  =      4530.91163914
  Solvation  Ediel_sol  =         0.00000000
  ---------------------------------------------------
  free energy    TOTEN  =       -57.59525636 eV

  energy without entropy =      -57.59271353  energy(sigma->0) =      -57.59398494


--------------------------------------------------------------------------------------------------------




--------------------------------------- Iteration      1(   3)  ---------------------------------------


     EDDAV:  cpu time    2.2445: real time    2.2601
       DOS:  cpu time    0.0009: real time    0.0014
    --------------------------------------------
      LOOP:  cpu time    2.2453: real time    2.2615

 eigenvalue-minimisations  :  2400
 total energy-change (2. order) :-0.6225564E+02  (-0.6162871E+02)
 number of electron      78.0000000 magnetization 
 augmentation part       78.0000000 magnetization 

 Free energy of the ion-electron system (eV)
  ---------------------------------------------------
  alpha Z        PSCENC =       116.82591216
  Ewald energy   TEWEN  =     24148.76422335
  -Hartree energ DENC   =    -28454.84114117
  -exchange      EXHF   =         0.00000000
  -V(xc)+E(xc)   XCENC  =      -158.78780997
  PAW double counting   =      4053.25502632    -3604.47710419
  entropy T*S    EENTRO =        -0.00848837
  eigenvalues    EBANDS =      -751.49315776
  atomic energy  EATOM  =      4530.91163914
  Solvation  Ediel_sol  =         0.00000000
  ---------------------------------------------------
  free energy    TOTEN  =      -119.85090049 eV

  energy without entropy =     -119.84241212  energy(sigma->0) =     -119.84665631


--------------------------------------------------------------------------------------------------------




--------------------------------------- Iteration      1(   4)  ---------------------------------------


     EDDAV:  cpu time    2.2265: real time    2.2429
       DOS:  cpu time    0.0008: real time    0.0008
    --------------------------------------------
      LOOP:  cpu time    2.2274: real time    2.2437

 eigenvalue-minimisations  :  2390
 total energy-change (2. order) :-0.1339365E+01  (-0.1335140E+01)
 number of electron      78.0000000 magnetization 
 augmentation part       78.0000000 magnetization 

 Free energy of the ion-electron system (eV)
  ---------------------------------------------------
  alpha Z        PSCENC =       116.82591216
  Ewald energy   TEWEN  =     24148.76422335
  -Hartree energ DENC   =    -28454.84114117
  -exchange      EXHF   =         0.00000000
  -V(xc)+E(xc)   XCENC  =      -158.78780997
  PAW double counting   =      4053.25502632    -3604.47710419
  entropy T*S    EENTRO =        -0.00772885
  eigenvalues    EBANDS =      -752.83328185
  atomic energy  EATOM  =      4530.91163914
  Solvation  Ediel_sol  =         0.00000000
  ---------------------------------------------------
  free energy    TOTEN  =      -121.19026506 eV

  energy without entropy =     -121.18253621  energy(sigma->0) =     -121.18640063


--------------------------------------------------------------------------------------------------------




--------------------------------------- Iteration      1(   5)  ---------------------------------------


     EDDAV:  cpu time    2.2208: real time    2.2350
       DOS:  cpu time    0.0008: real time    0.0016
    --------------------------------------------
      LOOP:  cpu time    2.2216: real time    2.2367

 eigenvalue-minimisations  :  2370
 total energy-change (2. order) :-0.3200648E-01  (-0.3199502E-01)
 number of electron      78.0000000 magnetization 
 augmentation part       78.0000000 magnetization 

 Free energy of the ion-electron system (eV)
  ---------------------------------------------------
  alpha Z        PSCENC =       116.82591216
  Ewald energy   TEWEN  =     24148.76422335
  -Hartree energ DENC   =    -28454.84114117
  -exchange      EXHF   =         0.00000000
  -V(xc)+E(xc)   XCENC  =      -158.78780997
  PAW double counting   =      4053.25502632    -3604.47710419
  entropy T*S    EENTRO =        -0.00767536
  eigenvalues    EBANDS =      -752.86534182
  atomic energy  EATOM  =      4530.91163914
  Solvation  Ediel_sol  =         0.00000000
  ---------------------------------------------------
  free energy    TOTEN  =      -121.22227154 eV

  energy without entropy =     -121.21459618  energy(sigma->0) =     -121.21843386


--------------------------------------------------------------------------------------------------------




--------------------------------------- Iteration      1(   6)  ---------------------------------------


     EDDAV:  cpu time    2.3306: real time    2.3476
       DOS:  cpu time    0.0008: real time    0.0008
    --------------------------------------------
      LOOP:  cpu time    2.3314: real time    2.3483

 eigenvalue-minimisations  :  2430
 total energy-change (2. order) :-0.1088333E-02  (-0.1088108E-02)
 number of electron      78.0000000 magnetization 
 augmentation part       78.0000000 magnetization 

 Free energy of the ion-electron system (eV)
  ---------------------------------------------------
  alpha Z        PSCENC =       116.82591216
  Ewald energy   TEWEN  =     24148.76422335
  -Hartree energ DENC   =    -28454.84114117
  -exchange      EXHF   =         0.00000000
  -V(xc)+E(xc)   XCENC  =      -158.78780997
  PAW double counting   =      4053.25502632    -3604.47710419
  entropy T*S    EENTRO =        -0.00767728
  eigenvalues    EBANDS =      -752.86642824
  atomic energy  EATOM  =      4530.91163914
  Solvation  Ediel_sol  =         0.00000000
  ---------------------------------------------------
  free energy    TOTEN  =      -121.22335988 eV

  energy without entropy =     -121.21568260  energy(sigma->0) =     -121.21952124


--------------------------------------------------------------------------------------------------------




--------------------------------------- Iteration      1(   7)  ---------------------------------------


     EDDAV:  cpu time    2.2306: real time    2.2453
       DOS:  cpu time    0.0008: real time    0.0008
    --------------------------------------------
      LOOP:  cpu time    2.2315: real time    2.2461

 eigenvalue-minimisations  :  2350
 total energy-change (2. order) :-0.4217690E-04  (-0.4217379E-04)
 number of electron      78.0000000 magnetization 
 augmentation part       78.0000000 magnetization 

 Free energy of the ion-electron system (eV)
  ---------------------------------------------------
  alpha Z        PSCENC =       116.82591216
  Ewald energy   TEWEN  =     24148.76422335
  -Hartree energ DENC   =    -28454.84114117
  -exchange      EXHF   =         0.00000000
  -V(xc)+E(xc)   XCENC  =      -158.78780997
  PAW double counting   =      4053.25502632    -3604.47710419
  entropy T*S    EENTRO =        -0.00767727
  eigenvalues    EBANDS =      -752.86647042
  atomic energy  EATOM  =      4530.91163914
  Solvation  Ediel_sol  =         0.00000000
  ---------------------------------------------------
  free energy    TOTEN  =      -121.22340205 eV

  energy without entropy =     -121.21572478  energy(sigma->0) =     -121.21956342


--------------------------------------------------------------------------------------------------------




--------------------------------------- Iteration      1(   8)  ---------------------------------------


     EDDAV:  cpu time    1.7717: real time    1.7830
       DOS:  cpu time    0.0008: real time    0.0008
    CHARGE:  cpu time    0.0852: real time    0.0856
    MIXING:  cpu time    0.0010: real time    0.0011
    --------------------------------------------
      LOOP:  cpu time    1.8586: real time    1.8704

 eigenvalue-minimisations  :  1790
 total energy-change (2. order) :-0.1748074E-05  (-0.1747745E-05)
 number of electron      77.9999981 magnetization 
 augmentation part        7.6903038 magnetization 

 Broyden mixing:
  rms(total) = 0.21153E+01    rms(broyden)= 0.21144E+01
  rms(prec ) = 0.21778E+01
  weight for this iteration     100.00

 Free energy of the ion-electron system (eV)
  ---------------------------------------------------
  alpha Z        PSCENC =       116.82591216
  Ewald energy   TEWEN  =     24148.76422335
  -Hartree energ DENC   =    -28454.84114117
  -exchange      EXHF   =         0.00000000
  -V(xc)+E(xc)   XCENC  =      -158.78780997
  PAW double counting   =      4053.25502632    -3604.47710419
  entropy T*S    EENTRO =        -0.00767728
  eigenvalues    EBANDS =      -752.86647216
  atomic energy  EATOM  =      4530.91163914
  Solvation  Ediel_sol  =         0.00000000
  ---------------------------------------------------
  free energy    TOTEN  =      -121.22340380 eV

  energy without entropy =     -121.21572652  energy(sigma->0) =     -121.21956516


--------------------------------------------------------------------------------------------------------




--------------------------------------- Iteration      1(   9)  ---------------------------------------


    POTLOK:  cpu time    0.0109: real time    0.0110
    SETDIJ:  cpu time    0.0022: real time    0.0031
    EDDIAG:  cpu time    0.3047: real time    0.3068
  RMM-DIIS:  cpu time    1.3092: real time    1.3179
    ORTHCH:  cpu time    0.0347: real time    0.0348
       DOS:  cpu time    0.0009: real time    0.0014
    CHARGE:  cpu time    0.0848: real time    0.0852
    MIXING:  cpu time    0.0009: real time    0.0009
    --------------------------------------------
      LOOP:  cpu time    1.7483: real time    1.7610

 eigenvalue-minimisations  :  2000
 total energy-change (2. order) : 0.1291228E+02  (-0.6338571E+01)
 number of electron      77.9999969 magnetization 
 augmentation part        6.4917925 magnetization 

 Broyden mixing:
  rms(total) = 0.76127E+00    rms(broyden)= 0.76011E+00
  rms(prec ) = 0.78923E+00
  weight for this iteration     100.00

 eigenvalues of (default mixing * dielectric matrix)
  average eigenvalue GAMMA=   0.8301
  0.8301

 Free energy of the ion-electron system (eV)
  ---------------------------------------------------
  alpha Z        PSCENC =       116.82591216
  Ewald energy   TEWEN  =     24148.76422335
  -Hartree energ DENC   =    -28622.16423987
  -exchange      EXHF   =         0.00000000
  -V(xc)+E(xc)   XCENC  =      -147.11699929
  PAW double counting   =      4683.02472983    -4237.32831400
  entropy T*S    EENTRO =        -0.01862841
  eigenvalues    EBANDS =      -581.20945068
  atomic energy  EATOM  =      4530.91163914
  Solvation  Ediel_sol  =         0.00000000
  ---------------------------------------------------
  free energy    TOTEN  =      -108.31112776 eV

  energy without entropy =     -108.29249935  energy(sigma->0) =     -108.30181355


--------------------------------------------------------------------------------------------------------




--------------------------------------- Iteration      1(  10)  ---------------------------------------


    POTLOK:  cpu time    0.0115: real time    0.0136
    SETDIJ:  cpu time    0.0022: real time    0.0029
    EDDIAG:  cpu time    0.3019: real time    0.3033
  RMM-DIIS:  cpu time    1.2986: real time    1.3070
    ORTHCH:  cpu time    0.0326: real time    0.0327
       DOS:  cpu time    0.0009: real time    0.0009
    CHARGE:  cpu time    0.0830: real time    0.0835
    MIXING:  cpu time    0.0007: real time    0.0007
    --------------------------------------------
      LOOP:  cpu time    1.7313: real time    1.7447

 eigenvalue-minimisations  :  2000
 total energy-change (2. order) :-0.1229685E+00  (-0.2369128E+00)
 number of electron      77.9999982 magnetization 
 augmentation part        6.4330463 magnetization 

 Broyden mixing:
  rms(total) = 0.54273E+00    rms(broyden)= 0.54228E+00
  rms(prec ) = 0.55462E+00
  weight for this iteration     100.00

 eigenvalues of (default mixing * dielectric matrix)
  average eigenvalue GAMMA=   0.7406
  0.7406  0.7406

 Free energy of the ion-electron system (eV)
  ---------------------------------------------------
  alpha Z        PSCENC =       116.82591216
  Ewald energy   TEWEN  =     24148.76422335
  -Hartree energ DENC   =    -28585.06095667
  -exchange      EXHF   =         0.00000000
  -V(xc)+E(xc)   XCENC  =      -146.42127943
  PAW double counting   =      4880.82122911    -4434.90186368
  entropy T*S    EENTRO =        -0.00641876
  eigenvalues    EBANDS =      -619.36658145
  atomic energy  EATOM  =      4530.91163914
  Solvation  Ediel_sol  =         0.00000000
  ---------------------------------------------------
  free energy    TOTEN  =      -108.43409623 eV

  energy without entropy =     -108.42767747  energy(sigma->0) =     -108.43088685


--------------------------------------------------------------------------------------------------------




--------------------------------------- Iteration      1(  11)  ---------------------------------------


    POTLOK:  cpu time    0.0099: real time    0.0102
    SETDIJ:  cpu time    0.0023: real time    0.0023
    EDDIAG:  cpu time    0.2782: real time    0.2794
  RMM-DIIS:  cpu time    1.1761: real time    1.1822
    ORTHCH:  cpu time    0.0763: real time    0.0765
       DOS:  cpu time    0.0008: real time    0.0008
    CHARGE:  cpu time    0.1714: real time    0.1719
    MIXING:  cpu time    0.0007: real time    0.0007
    --------------------------------------------
      LOOP:  cpu time    1.7158: real time    1.7240

 eigenvalue-minimisations  :  2000
 total energy-change (2. order) : 0.3612371E+00  (-0.4383431E-01)
 number of electron      77.9999979 magnetization 
 augmentation part        6.4488533 magnetization 

 Broyden mixing:
  rms(total) = 0.35539E+00    rms(broyden)= 0.35536E+00
  rms(prec ) = 0.36243E+00
  weight for this iteration     100.00

 eigenvalues of (default mixing * dielectric matrix)
  average eigenvalue GAMMA=   1.3303
  2.3175  0.9918  0.6816

 Free energy of the ion-electron system (eV)
  ---------------------------------------------------
  alpha Z        PSCENC =       116.82591216
  Ewald energy   TEWEN  =     24148.76422335
  -Hartree energ DENC   =    -28597.66220808
  -exchange      EXHF   =         0.00000000
  -V(xc)+E(xc)   XCENC  =      -146.23768643
  PAW double counting   =      4974.39989369    -4528.33236114
  entropy T*S    EENTRO =        -0.00755239
  eigenvalues    EBANDS =      -606.73471948
  atomic energy  EATOM  =      4530.91163914
  Solvation  Ediel_sol  =         0.00000000
  ---------------------------------------------------
  free energy    TOTEN  =      -108.07285918 eV

  energy without entropy =     -108.06530679  energy(sigma->0) =     -108.06908299


--------------------------------------------------------------------------------------------------------




--------------------------------------- Iteration      1(  12)  ---------------------------------------


    POTLOK:  cpu time    0.0188: real time    0.0190
    SETDIJ:  cpu time    0.0021: real time    0.0022
    EDDIAG:  cpu time    0.3144: real time    0.3161
  RMM-DIIS:  cpu time    1.2886: real time    1.2974
    ORTHCH:  cpu time    0.0400: real time    0.0401
       DOS:  cpu time    0.0008: real time    0.0008
    CHARGE:  cpu time    0.0846: real time    0.0848
    MIXING:  cpu time    0.0009: real time    0.0009
    --------------------------------------------
      LOOP:  cpu time    1.7503: real time    1.7613

 eigenvalue-minimisations  :  2000
 total energy-change (2. order) :-0.6576601E+00  (-0.1212901E+00)
 number of electron      77.9999957 magnetization 
 augmentation part        6.5073544 magnetization 

 Broyden mixing:
  rms(total) = 0.95505E+00    rms(broyden)= 0.95367E+00
  rms(prec ) = 0.10583E+01
  weight for this iteration     100.00

 eigenvalues of (default mixing * dielectric matrix)
  average eigenvalue GAMMA=   1.1198
  2.4351  1.0102  0.5169  0.5169

 Free energy of the ion-electron system (eV)
  ---------------------------------------------------
  alpha Z        PSCENC =       116.82591216
  Ewald energy   TEWEN  =     24148.76422335
  -Hartree energ DENC   =    -28632.21656704
  -exchange      EXHF   =         0.00000000
  -V(xc)+E(xc)   XCENC  =      -145.39798779
  PAW double counting   =      5213.86988250    -4767.53315200
  entropy T*S    EENTRO =        -0.01451120
  eigenvalues    EBANDS =      -573.93995836
  atomic energy  EATOM  =      4530.91163914
  Solvation  Ediel_sol  =         0.00000000
  ---------------------------------------------------
  free energy    TOTEN  =      -108.73051925 eV

  energy without entropy =     -108.71600805  energy(sigma->0) =     -108.72326365


--------------------------------------------------------------------------------------------------------




--------------------------------------- Iteration      1(  13)  ---------------------------------------


    POTLOK:  cpu time    0.0106: real time    0.0108
    SETDIJ:  cpu time    0.0023: real time    0.0023
    EDDIAG:  cpu time    0.2985: real time    0.2999
  RMM-DIIS:  cpu time    1.2939: real time    1.3021
    ORTHCH:  cpu time    0.0328: real time    0.0330
       DOS:  cpu time    0.0008: real time    0.0008
    CHARGE:  cpu time    0.0836: real time    0.0839
    MIXING:  cpu time    0.0008: real time    0.0008
    --------------------------------------------
      LOOP:  cpu time    1.7234: real time    1.7336

 eigenvalue-minimisations  :  2000
 total energy-change (2. order) : 0.6690442E+00  (-0.8191819E-01)
 number of electron      77.9999979 magnetization 
 augmentation part        6.4937273 magnetization 

 Broyden mixing:
  rms(total) = 0.12141E+00    rms(broyden)= 0.11792E+00
  rms(prec ) = 0.12815E+00
  weight for this iteration     100.00

 eigenvalues of (default mixing * dielectric matrix)
  average eigenvalue GAMMA=   0.9525
  2.4537  0.9849  0.4752  0.4243  0.4243

 Free energy of the ion-electron system (eV)
  ---------------------------------------------------
  alpha Z        PSCENC =       116.82591216
  Ewald energy   TEWEN  =     24148.76422335
  -Hartree energ DENC   =    -28591.99729376
  -exchange      EXHF   =         0.00000000
  -V(xc)+E(xc)   XCENC  =      -145.23335191
  PAW double counting   =      5238.83376019    -4792.47211458
  entropy T*S    EENTRO =        -0.01874158
  eigenvalues    EBANDS =      -613.67550809
  atomic energy  EATOM  =      4530.91163914
  Solvation  Ediel_sol  =         0.00000000
  ---------------------------------------------------
  free energy    TOTEN  =      -108.06147509 eV

  energy without entropy =     -108.04273350  energy(sigma->0) =     -108.05210429


--------------------------------------------------------------------------------------------------------




--------------------------------------- Iteration      1(  14)  ---------------------------------------


    POTLOK:  cpu time    0.0105: real time    0.0106
    SETDIJ:  cpu time    0.0024: real time    0.0025
    EDDIAG:  cpu time    0.3236: real time    0.3257
  RMM-DIIS:  cpu time    1.3016: real time    1.3101
    ORTHCH:  cpu time    0.0329: real time    0.0330
       DOS:  cpu time    0.0008: real time    0.0008
    CHARGE:  cpu time    0.0837: real time    0.0839
    MIXING:  cpu time    0.0009: real time    0.0009
    --------------------------------------------
      LOOP:  cpu time    1.7564: real time    1.7675

 eigenvalue-minimisations  :  2000
 total energy-change (2. order) : 0.1488349E-01  (-0.1554616E-02)
 number of electron      77.9999979 magnetization 
 augmentation part        6.4885806 magnetization 

 Broyden mixing:
  rms(total) = 0.10077E+00    rms(broyden)= 0.10066E+00
  rms(prec ) = 0.10902E+00
  weight for this iteration     100.00

 eigenvalues of (default mixing * dielectric matrix)
  average eigenvalue GAMMA=   1.0879
  2.4128  1.0309  1.0309  1.0522  0.5003  0.5003

 Free energy of the ion-electron system (eV)
  ---------------------------------------------------
  alpha Z        PSCENC =       116.82591216
  Ewald energy   TEWEN  =     24148.76422335
  -Hartree energ DENC   =    -28598.50075375
  -exchange      EXHF   =         0.00000000
  -V(xc)+E(xc)   XCENC  =      -145.16545802
  PAW double counting   =      5237.37488641    -4791.03876296
  entropy T*S    EENTRO =        -0.02006646
  eigenvalues    EBANDS =      -607.19821147
  atomic energy  EATOM  =      4530.91163914
  Solvation  Ediel_sol  =         0.00000000
  ---------------------------------------------------
  free energy    TOTEN  =      -108.04659160 eV

  energy without entropy =     -108.02652513  energy(sigma->0) =     -108.03655836


--------------------------------------------------------------------------------------------------------




--------------------------------------- Iteration      1(  15)  ---------------------------------------


    POTLOK:  cpu time    0.0105: real time    0.0106
    SETDIJ:  cpu time    0.0022: real time    0.0023
    EDDIAG:  cpu time    0.3043: real time    0.3058
  RMM-DIIS:  cpu time    1.3083: real time    1.3168
    ORTHCH:  cpu time    0.0325: real time    0.0326
       DOS:  cpu time    0.0008: real time    0.0008
    CHARGE:  cpu time    0.0850: real time    0.0853
    MIXING:  cpu time    0.0009: real time    0.0009
    --------------------------------------------
      LOOP:  cpu time    1.7445: real time    1.7551

 eigenvalue-minimisations  :  2000
 total energy-change (2. order) : 0.5155706E-01  (-0.9481923E-02)
 number of electron      77.9999977 magnetization 
 augmentation part        6.4848935 magnetization 

 Broyden mixing:
  rms(total) = 0.63768E-01    rms(broyden)= 0.63742E-01
  rms(prec ) = 0.65436E-01
  weight for this iteration     100.00

 eigenvalues of (default mixing * dielectric matrix)
  average eigenvalue GAMMA=   1.1555
  2.4900  1.3846  1.3846  0.9628  0.8635  0.5016  0.5016

 Free energy of the ion-electron system (eV)
  ---------------------------------------------------
  alpha Z        PSCENC =       116.82591216
  Ewald energy   TEWEN  =     24148.76422335
  -Hartree energ DENC   =    -28615.44436568
  -exchange      EXHF   =         0.00000000
  -V(xc)+E(xc)   XCENC  =      -145.10970059
  PAW double counting   =      5228.55896962    -4782.25467630
  entropy T*S    EENTRO =        -0.02460948
  eigenvalues    EBANDS =      -590.22242676
  atomic energy  EATOM  =      4530.91163914
  Solvation  Ediel_sol  =         0.00000000
  ---------------------------------------------------
  free energy    TOTEN  =      -107.99503454 eV

  energy without entropy =     -107.97042506  energy(sigma->0) =     -107.98272980


--------------------------------------------------------------------------------------------------------




--------------------------------------- Iteration      1(  16)  ---------------------------------------


    POTLOK:  cpu time    0.0107: real time    0.0109
    SETDIJ:  cpu time    0.0022: real time    0.0022
    EDDIAG:  cpu time    0.3263: real time    0.3284
  RMM-DIIS:  cpu time    1.2940: real time    1.3022
    ORTHCH:  cpu time    0.0327: real time    0.0328
       DOS:  cpu time    0.0008: real time    0.0008
    CHARGE:  cpu time    0.0848: real time    0.0851
    MIXING:  cpu time    0.0011: real time    0.0011
    --------------------------------------------
      LOOP:  cpu time    1.7527: real time    1.7635

 eigenvalue-minimisations  :  2000
 total energy-change (2. order) :-0.8627659E-03  (-0.3427370E-02)
 number of electron      77.9999978 magnetization 
 augmentation part        6.4745178 magnetization 

 Broyden mixing:
  rms(total) = 0.78787E-01    rms(broyden)= 0.78134E-01
  rms(prec ) = 0.80972E-01
  weight for this iteration     100.00

 eigenvalues of (default mixing * dielectric matrix)
  average eigenvalue GAMMA=   1.0299
  2.5237  1.1862  1.1862  0.8974  0.8974  0.5030  0.5030  0.5421

 Free energy of the ion-electron system (eV)
  ---------------------------------------------------
  alpha Z        PSCENC =       116.82591216
  Ewald energy   TEWEN  =     24148.76422335
  -Hartree energ DENC   =    -28619.37193055
  -exchange      EXHF   =         0.00000000
  -V(xc)+E(xc)   XCENC  =      -144.98399937
  PAW double counting   =      5227.42805475    -4781.15599129
  entropy T*S    EENTRO =        -0.01453103
  eigenvalues    EBANDS =      -586.39927447
  atomic energy  EATOM  =      4530.91163914
  Solvation  Ediel_sol  =         0.00000000
  ---------------------------------------------------
  free energy    TOTEN  =      -107.99589730 eV

  energy without entropy =     -107.98136627  energy(sigma->0) =     -107.98863179


--------------------------------------------------------------------------------------------------------




--------------------------------------- Iteration      1(  17)  ---------------------------------------


    POTLOK:  cpu time    0.0108: real time    0.0110
    SETDIJ:  cpu time    0.0022: real time    0.0022
    EDDIAG:  cpu time    0.3019: real time    0.3033
  RMM-DIIS:  cpu time    1.2885: real time    1.2975
    ORTHCH:  cpu time    0.0349: real time    0.0350
       DOS:  cpu time    0.0008: real time    0.0013
    CHARGE:  cpu time    0.0811: real time    0.0815
    MIXING:  cpu time    0.0010: real time    0.0010
    --------------------------------------------
      LOOP:  cpu time    1.7212: real time    1.7330

 eigenvalue-minimisations  :  2009
 total energy-change (2. order) : 0.2405321E-02  (-0.2554717E-03)
 number of electron      77.9999978 magnetization 
 augmentation part        6.4705603 magnetization 

 Broyden mixing:
  rms(total) = 0.43934E-01    rms(broyden)= 0.43926E-01
  rms(prec ) = 0.47576E-01
  weight for this iteration     100.00

 eigenvalues of (default mixing * dielectric matrix)
  average eigenvalue GAMMA=   1.2153
  2.5818  2.1966  1.3161  1.3161  0.4979  0.4979  0.9158  0.9158  0.6996

 Free energy of the ion-electron system (eV)
  ---------------------------------------------------
  alpha Z        PSCENC =       116.82591216
  Ewald energy   TEWEN  =     24148.76422335
  -Hartree energ DENC   =    -28618.62327668
  -exchange      EXHF   =         0.00000000
  -V(xc)+E(xc)   XCENC  =      -144.93687157
  PAW double counting   =      5228.21275066    -4781.95064839
  entropy T*S    EENTRO =        -0.01713550
  eigenvalues    EBANDS =      -587.18008516
  atomic energy  EATOM  =      4530.91163914
  Solvation  Ediel_sol  =         0.00000000
  ---------------------------------------------------
  free energy    TOTEN  =      -107.99349198 eV

  energy without entropy =     -107.97635648  energy(sigma->0) =     -107.98492423


--------------------------------------------------------------------------------------------------------




--------------------------------------- Iteration      1(  18)  ---------------------------------------


    POTLOK:  cpu time    0.0103: real time    0.0119
    SETDIJ:  cpu time    0.0022: real time    0.0027
    EDDIAG:  cpu time    0.2846: real time    0.2857
  RMM-DIIS:  cpu time    1.4612: real time    1.4720
    ORTHCH:  cpu time    0.0347: real time    0.0348
       DOS:  cpu time    0.0009: real time    0.0009
    CHARGE:  cpu time    0.0875: real time    0.0878
    MIXING:  cpu time    0.0012: real time    0.0012
    --------------------------------------------
      LOOP:  cpu time    1.8825: real time    1.8971

 eigenvalue-minimisations  :  2000
 total energy-change (2. order) :-0.1804743E-02  (-0.2677119E-03)
 number of electron      77.9999978 magnetization 
 augmentation part        6.4694495 magnetization 

 Broyden mixing:
  rms(total) = 0.33378E-01    rms(broyden)= 0.33063E-01
  rms(prec ) = 0.37262E-01
  weight for this iteration     100.00

 eigenvalues of (default mixing * dielectric matrix)
  average eigenvalue GAMMA=   1.2343
  2.6527  2.3108  1.5480  1.0654  1.0654  0.9702  0.9702  0.4970  0.4970  0.7669

 Free energy of the ion-electron system (eV)
  ---------------------------------------------------
  alpha Z        PSCENC =       116.82591216
  Ewald energy   TEWEN  =     24148.76422335
  -Hartree energ DENC   =    -28617.97437432
  -exchange      EXHF   =         0.00000000
  -V(xc)+E(xc)   XCENC  =      -144.90101585
  PAW double counting   =      5221.09292926    -4774.84167036
  entropy T*S    EENTRO =        -0.02047306
  eigenvalues    EBANDS =      -587.85246705
  atomic energy  EATOM  =      4530.91163914
  Solvation  Ediel_sol  =         0.00000000
  ---------------------------------------------------
  free energy    TOTEN  =      -107.99529673 eV

  energy without entropy =     -107.97482366  energy(sigma->0) =     -107.98506019


--------------------------------------------------------------------------------------------------------




--------------------------------------- Iteration      1(  19)  ---------------------------------------


    POTLOK:  cpu time    0.0110: real time    0.0111
    SETDIJ:  cpu time    0.0024: real time    0.0024
    EDDIAG:  cpu time    0.2842: real time    0.2854
  RMM-DIIS:  cpu time    1.3966: real time    1.4065
    ORTHCH:  cpu time    0.0348: real time    0.0349
       DOS:  cpu time    0.0008: real time    0.0008
    CHARGE:  cpu time    0.0864: real time    0.0866
    MIXING:  cpu time    0.0012: real time    0.0012
    --------------------------------------------
      LOOP:  cpu time    1.8174: real time    1.8290

 eigenvalue-minimisations  :  1973
 total energy-change (2. order) : 0.3530694E-02  (-0.1350433E-03)
 number of electron      77.9999978 magnetization 
 augmentation part        6.4705766 magnetization 

 Broyden mixing:
  rms(total) = 0.27300E-01    rms(broyden)= 0.27299E-01
  rms(prec ) = 0.30597E-01
  weight for this iteration     100.00

 eigenvalues of (default mixing * dielectric matrix)
  average eigenvalue GAMMA=   1.2926
  2.6983  2.6983  2.2511  1.0484  1.0484  0.4973  0.4973  0.8645  0.8645  0.8958
  0.8543

 Free energy of the ion-electron system (eV)
  ---------------------------------------------------
  alpha Z        PSCENC =       116.82591216
  Ewald energy   TEWEN  =     24148.76422335
  -Hartree energ DENC   =    -28620.70091294
  -exchange      EXHF   =         0.00000000
  -V(xc)+E(xc)   XCENC  =      -144.90827736
  PAW double counting   =      5218.70720222    -4772.45548765
  entropy T*S    EENTRO =        -0.02029916
  eigenvalues    EBANDS =      -585.11576580
  atomic energy  EATOM  =      4530.91163914
  Solvation  Ediel_sol  =         0.00000000
  ---------------------------------------------------
  free energy    TOTEN  =      -107.99176603 eV

  energy without entropy =     -107.97146687  energy(sigma->0) =     -107.98161645


--------------------------------------------------------------------------------------------------------




--------------------------------------- Iteration      1(  20)  ---------------------------------------


    POTLOK:  cpu time    0.0115: real time    0.0116
    SETDIJ:  cpu time    0.0024: real time    0.0024
    EDDIAG:  cpu time    0.3267: real time    0.3280
  RMM-DIIS:  cpu time    1.2035: real time    1.2089
    ORTHCH:  cpu time    0.0353: real time    0.0355
       DOS:  cpu time    0.0008: real time    0.0008
    CHARGE:  cpu time    0.0861: real time    0.0863
    MIXING:  cpu time    0.0013: real time    0.0013
    --------------------------------------------
      LOOP:  cpu time    1.6675: real time    1.6747

 eigenvalue-minimisations  :  1858
 total energy-change (2. order) : 0.2163175E-02  (-0.8248003E-04)
 number of electron      77.9999978 magnetization 
 augmentation part        6.4719920 magnetization 

 Broyden mixing:
  rms(total) = 0.22816E-01    rms(broyden)= 0.22801E-01
  rms(prec ) = 0.24713E-01
  weight for this iteration     100.00

 eigenvalues of (default mixing * dielectric matrix)
  average eigenvalue GAMMA=   1.3998
  3.2312  3.2312  2.3414  1.1197  1.1197  0.4972  0.4972  1.0668  1.0668  0.9447
  0.8411  0.8411

 Free energy of the ion-electron system (eV)
  ---------------------------------------------------
  alpha Z        PSCENC =       116.82591216
  Ewald energy   TEWEN  =     24148.76422335
  -Hartree energ DENC   =    -28622.23542161
  -exchange      EXHF   =         0.00000000
  -V(xc)+E(xc)   XCENC  =      -144.91716787
  PAW double counting   =      5218.23098085    -4771.97738472
  entropy T*S    EENTRO =        -0.02148691
  eigenvalues    EBANDS =      -583.57089726
  atomic energy  EATOM  =      4530.91163914
  Solvation  Ediel_sol  =         0.00000000
  ---------------------------------------------------
  free energy    TOTEN  =      -107.98960286 eV

  energy without entropy =     -107.96811595  energy(sigma->0) =     -107.97885940


--------------------------------------------------------------------------------------------------------




--------------------------------------- Iteration      1(  21)  ---------------------------------------


    POTLOK:  cpu time    0.0114: real time    0.0115
    SETDIJ:  cpu time    0.0024: real time    0.0024
    EDDIAG:  cpu time    0.3598: real time    0.3620
  RMM-DIIS:  cpu time    1.2535: real time    1.2620
    ORTHCH:  cpu time    0.0344: real time    0.0346
       DOS:  cpu time    0.0008: real time    0.0008
    CHARGE:  cpu time    0.0865: real time    0.0868
    MIXING:  cpu time    0.0013: real time    0.0013
    --------------------------------------------
      LOOP:  cpu time    1.7501: real time    1.7614

 eigenvalue-minimisations  :  1950
 total energy-change (2. order) : 0.1669100E-02  (-0.1223910E-03)
 number of electron      77.9999977 magnetization 
 augmentation part        6.4719041 magnetization 

 Broyden mixing:
  rms(total) = 0.13281E-01    rms(broyden)= 0.13275E-01
  rms(prec ) = 0.13788E-01
  weight for this iteration     100.00

 eigenvalues of (default mixing * dielectric matrix)
  average eigenvalue GAMMA=   1.3079
  3.2852  3.2852  2.3487  1.1217  1.1217  1.0753  1.0753  0.4972  0.4972  0.9522
  0.8378  0.8378  0.0672

 Free energy of the ion-electron system (eV)
  ---------------------------------------------------
  alpha Z        PSCENC =       116.82591216
  Ewald energy   TEWEN  =     24148.76422335
  -Hartree energ DENC   =    -28624.58555741
  -exchange      EXHF   =         0.00000000
  -V(xc)+E(xc)   XCENC  =      -144.91250626
  PAW double counting   =      5218.39135309    -4772.14004915
  entropy T*S    EENTRO =        -0.02220402
  eigenvalues    EBANDS =      -581.22074465
  atomic energy  EATOM  =      4530.91163914
  Solvation  Ediel_sol  =         0.00000000
  ---------------------------------------------------
  free energy    TOTEN  =      -107.98793376 eV

  energy without entropy =     -107.96572974  energy(sigma->0) =     -107.97683175


--------------------------------------------------------------------------------------------------------




--------------------------------------- Iteration      1(  22)  ---------------------------------------


    POTLOK:  cpu time    0.0114: real time    0.0115
    SETDIJ:  cpu time    0.0024: real time    0.0024
    EDDIAG:  cpu time    0.3233: real time    0.3247
  RMM-DIIS:  cpu time    1.1970: real time    1.2027
    ORTHCH:  cpu time    0.0322: real time    0.0323
       DOS:  cpu time    0.0009: real time    0.0009
    CHARGE:  cpu time    0.0854: real time    0.0857
    MIXING:  cpu time    0.0013: real time    0.0013
    --------------------------------------------
      LOOP:  cpu time    1.6538: real time    1.6614

 eigenvalue-minimisations  :  1909
 total energy-change (2. order) : 0.1911557E-03  (-0.2906814E-04)
 number of electron      77.9999977 magnetization 
 augmentation part        6.4718556 magnetization 

 Broyden mixing:
  rms(total) = 0.11305E-01    rms(broyden)= 0.11303E-01
  rms(prec ) = 0.11480E-01
  weight for this iteration     100.00

 eigenvalues of (default mixing * dielectric matrix)
  average eigenvalue GAMMA=   1.3157
  3.1709  3.1709  2.2829  1.1290  1.1290  1.0999  1.0999  0.4972  0.4972  0.9906
  0.8289  0.8289  0.8472  0.8472

 Free energy of the ion-electron system (eV)
  ---------------------------------------------------
  alpha Z        PSCENC =       116.82591216
  Ewald energy   TEWEN  =     24148.76422335
  -Hartree energ DENC   =    -28625.30735860
  -exchange      EXHF   =         0.00000000
  -V(xc)+E(xc)   XCENC  =      -144.91080389
  PAW double counting   =      5218.49812255    -4772.24751611
  entropy T*S    EENTRO =        -0.02244383
  eigenvalues    EBANDS =      -580.49951736
  atomic energy  EATOM  =      4530.91163914
  Solvation  Ediel_sol  =         0.00000000
  ---------------------------------------------------
  free energy    TOTEN  =      -107.98774260 eV

  energy without entropy =     -107.96529877  energy(sigma->0) =     -107.97652068


--------------------------------------------------------------------------------------------------------




--------------------------------------- Iteration      1(  23)  ---------------------------------------


    POTLOK:  cpu time    0.0107: real time    0.0108
    SETDIJ:  cpu time    0.0022: real time    0.0022
    EDDIAG:  cpu time    0.3295: real time    0.3313
  RMM-DIIS:  cpu time    0.8252: real time    0.8289
    ORTHCH:  cpu time    0.0328: real time    0.0331
       DOS:  cpu time    0.0008: real time    0.0008
    CHARGE:  cpu time    0.0826: real time    0.0829
    MIXING:  cpu time    0.0013: real time    0.0013
    --------------------------------------------
      LOOP:  cpu time    1.2851: real time    1.2914

 eigenvalue-minimisations  :  1177
 total energy-change (2. order) :-0.1320447E-04  (-0.8581100E-06)
 number of electron      77.9999977 magnetization 
 augmentation part        6.4717512 magnetization 

 Broyden mixing:
  rms(total) = 0.10119E-01    rms(broyden)= 0.10118E-01
  rms(prec ) = 0.10361E-01
  weight for this iteration     100.00

 eigenvalues of (default mixing * dielectric matrix)
  average eigenvalue GAMMA=   1.4403
  3.4203  3.4203  2.6615  2.5199  1.1328  1.1328  1.3740  0.4972  0.4972  0.9552
  0.9552  0.8633  0.8633  0.6558  0.6558

 Free energy of the ion-electron system (eV)
  ---------------------------------------------------
  alpha Z        PSCENC =       116.82591216
  Ewald energy   TEWEN  =     24148.76422335
  -Hartree energ DENC   =    -28625.16844775
  -exchange      EXHF   =         0.00000000
  -V(xc)+E(xc)   XCENC  =      -144.91057519
  PAW double counting   =      5218.45085851    -4772.20027264
  entropy T*S    EENTRO =        -0.02225214
  eigenvalues    EBANDS =      -580.63884124
  atomic energy  EATOM  =      4530.91163914
  Solvation  Ediel_sol  =         0.00000000
  ---------------------------------------------------
  free energy    TOTEN  =      -107.98775581 eV

  energy without entropy =     -107.96550367  energy(sigma->0) =     -107.97662974


--------------------------------------------------------------------------------------------------------




--------------------------------------- Iteration      1(  24)  ---------------------------------------


    POTLOK:  cpu time    0.0100: real time    0.0101
    SETDIJ:  cpu time    0.0022: real time    0.0022
    EDDIAG:  cpu time    0.2993: real time    0.3004
  RMM-DIIS:  cpu time    1.2165: real time    1.2229
    ORTHCH:  cpu time    0.0331: real time    0.0332
       DOS:  cpu time    0.0008: real time    0.0008
    CHARGE:  cpu time    0.0836: real time    0.0838
    MIXING:  cpu time    0.0015: real time    0.0015
    --------------------------------------------
      LOOP:  cpu time    1.6468: real time    1.6548

 eigenvalue-minimisations  :  1873
 total energy-change (2. order) : 0.1831641E-04  (-0.1716747E-04)
 number of electron      77.9999977 magnetization 
 augmentation part        6.4710021 magnetization 

 Broyden mixing:
  rms(total) = 0.62544E-02    rms(broyden)= 0.61835E-02
  rms(prec ) = 0.67032E-02
  weight for this iteration     100.00

 eigenvalues of (default mixing * dielectric matrix)
  average eigenvalue GAMMA=   1.4275
  3.4829  3.4829  2.6019  2.6019  1.1318  1.1318  1.1634  1.1634  0.4972  0.4972
  0.9282  0.9282  0.8596  0.8596  0.7552  0.7552

 Free energy of the ion-electron system (eV)
  ---------------------------------------------------
  alpha Z        PSCENC =       116.82591216
  Ewald energy   TEWEN  =     24148.76422335
  -Hartree energ DENC   =    -28625.69584400
  -exchange      EXHF   =         0.00000000
  -V(xc)+E(xc)   XCENC  =      -144.90489455
  PAW double counting   =      5218.48808596    -4772.23893497
  entropy T*S    EENTRO =        -0.02140203
  eigenvalues    EBANDS =      -580.11652255
  atomic energy  EATOM  =      4530.91163914
  Solvation  Ediel_sol  =         0.00000000
  ---------------------------------------------------
  free energy    TOTEN  =      -107.98773749 eV

  energy without entropy =     -107.96633546  energy(sigma->0) =     -107.97703648


--------------------------------------------------------------------------------------------------------




--------------------------------------- Iteration      1(  25)  ---------------------------------------


    POTLOK:  cpu time    0.0108: real time    0.0110
    SETDIJ:  cpu time    0.0023: real time    0.0023
    EDDIAG:  cpu time    0.3237: real time    0.3249
  RMM-DIIS:  cpu time    0.9237: real time    0.9296
    ORTHCH:  cpu time    0.0331: real time    0.0333
       DOS:  cpu time    0.0008: real time    0.0008
    --------------------------------------------
      LOOP:  cpu time    1.2944: real time    1.3018

 eigenvalue-minimisations  :  1373
 total energy-change (2. order) :-0.4639683E-05  (-0.3079907E-05)
 number of electron      77.9999977 magnetization 
 augmentation part        6.4710021 magnetization 

 Free energy of the ion-electron system (eV)
  ---------------------------------------------------
  alpha Z        PSCENC =       116.82591216
  Ewald energy   TEWEN  =     24148.76422335
  -Hartree energ DENC   =    -28625.86817862
  -exchange      EXHF   =         0.00000000
  -V(xc)+E(xc)   XCENC  =      -144.90430758
  PAW double counting   =      5218.43635272    -4772.18743053
  entropy T*S    EENTRO =        -0.02159807
  eigenvalues    EBANDS =      -579.94435468
  atomic energy  EATOM  =      4530.91163914
  Solvation  Ediel_sol  =         0.00000000
  ---------------------------------------------------
  free energy    TOTEN  =      -107.98774213 eV

  energy without entropy =     -107.96614406  energy(sigma->0) =     -107.97694309


--------------------------------------------------------------------------------------------------------




 average (electrostatic) potential at core
  the test charge radii are     0.7215  1.0714
  (the norm of the test charge is              1.0000)
       1 -75.1287       2 -74.8449       3 -74.9609       4 -74.9681       5 -74.9644
       6 -74.9402       7 -75.1358       8 -74.9356       9 -74.9696      10 -74.8508
      11 -40.4226      12 -40.5186      13 -40.4271      14 -39.9796      15 -40.5138
      16 -40.4996      17 -40.4948      18 -40.5162      19 -39.9870
 
 
 
 E-fermi :  -1.7211     XC(G=0):  -7.3191     alpha+bet : -7.8929


 k-point     1 :       0.0625    0.0625    0.0000
  band No.  band energies     occupation 
      1     -19.2030      2.00000
      2     -19.0923      2.00000
      3     -18.9413      2.00000
      4     -18.7624      2.00000
      5     -18.5692      2.00000
      6     -18.3796      2.00000
      7     -18.2188      2.00000
      8     -18.1198      2.00000
      9     -17.3247      2.00000
     10     -17.3176      2.00000
     11      -6.4535      2.00000
     12      -6.1572      2.00000
     13      -5.7291      2.00000
     14      -5.2068      2.00000
     15      -4.6294      2.00000
     16      -4.0417      2.00000
     17      -3.5005      2.00000
     18      -3.2175      2.00000
     19      -3.1336      2.00000
     20      -3.0871      2.00000
     21      -3.0165      2.00000
     22      -2.9031      2.00000
     23      -2.8852      2.00000
     24      -2.8667      2.00000
     25      -2.8052      2.00000
[...]
      1     -17.7882      2.00000
      2     -17.7580      2.00000
      3     -17.7162      2.00000
      4     -17.6729      2.00000
      5     -17.6330      2.00000
      6     -17.6018      2.00000
      7     -17.5301      2.00000
      8     -17.5240      2.00000
      9     -16.8424      2.00000
     10     -16.8347      2.00000
     11      -5.7539      2.00000
     12      -5.5990      2.00000
     13      -5.5339      2.00000
     14      -5.4419      2.00000
     15      -5.3826      2.00000
     16      -5.2332      2.00000
     17      -5.0881      2.00000
     18      -5.0009      2.00000
     19      -4.7147      2.00000
     20      -4.5903      2.00000
     21      -4.4314      2.00000
     22      -4.2409      2.00000
     23      -4.1704      2.00000
     24      -4.1040      2.00000
     25      -3.9956      2.00000
     26      -3.9180      2.00000
     27      -3.7947      2.00000
     28      -3.7352      2.00000
     29      -3.4080      2.00000
     30      -3.1754      2.00000
     31      -3.0715      2.00000
     32      -2.9909      2.00000
     33      -2.9122      2.00000
     34      -2.7976      2.00000
     35      -2.7265      2.00000
     36      -2.7169      2.00000
     37      -2.3246      2.00000
     38      -2.3175      2.00000
     39      -1.6408      1.88053
     40      -1.6333      1.82148
     41       7.5745      0.00000
     42       7.8031      0.00000
     43       8.0066      0.00000
     44       8.0909      0.00000
     45       8.3350      0.00000
     46       8.6310      0.00000
     47       9.0076      0.00000
     48       9.3396      0.00000
     49       9.4628      0.00000
     50       9.6166      0.00000

 k-point    17 :      -0.4375    0.3125   -0.0000
  band No.  band energies     occupation 
      1     -18.0611      2.00000
      2     -18.0061      2.00000
      3     -17.9275      2.00000
      4     -17.8395      2.00000
      5     -17.7482      2.00000
      6     -17.6650      2.00000
      7     -17.6022      2.00000
      8     -17.5845      2.00000
      9     -16.9207      2.00000
     10     -16.9131      2.00000
     11      -5.8869      2.00000
     12      -5.7200      2.00000
     13      -5.5956      2.00000
     14      -5.4928      2.00000
     15      -5.4442      2.00000
     16      -5.3059      2.00000
     17      -5.1933      2.00000
     18      -5.0803      2.00000
     19      -4.6237      2.00000
     20      -4.3689      2.00000
     21      -4.0782      2.00000
     22      -3.7879      2.00000
     23      -3.5673      2.00000
     24      -3.4246      2.00000
     25      -3.3783      2.00000
     26      -3.3254      2.00000
     27      -3.2622      2.00000
     28      -3.1743      2.00000
     29      -3.0714      2.00000
     30      -3.0011      2.00000
     31      -2.9161      2.00000
     32      -2.8369      2.00000
     33      -2.6939      2.00000
     34      -2.6269      2.00000
     35      -2.5904      2.00000
     36      -2.5181      2.00000
     37      -1.9538      2.00000
     38      -1.9462      2.00000
     39      -1.6429      1.89358
     40      -1.6355      1.84024
     41       6.3133      0.00000
     42       6.6909      0.00000
     43       7.1352      0.00000
     44       7.5237      0.00000
     45       7.8350      0.00000
     46       8.1224      0.00000
     47       8.3502      0.00000
     48       8.4014      0.00000
     49       8.6667      0.00000
     50       8.7892      0.00000

 k-point    18 :      -0.3125    0.3125    0.0000
  band No.  band energies     occupation 
      1     -18.3329      2.00000
      2     -18.2614      2.00000
      3     -18.1571      2.00000
      4     -18.0367      2.00000
      5     -17.9077      2.00000
      6     -17.7874      2.00000
      7     -17.6948      2.00000
      8     -17.6481      2.00000
      9     -17.0080      2.00000
     10     -17.0004      2.00000
     11      -5.5827      2.00000
     12      -5.5481      2.00000
     13      -5.4227      2.00000
     14      -5.3603      2.00000
     15      -5.2092      2.00000
     16      -5.0927      2.00000
     17      -4.9174      2.00000
     18      -4.7384      2.00000
     19      -4.6422      2.00000
     20      -4.3857      2.00000
     21      -4.0152      2.00000
     22      -3.6557      2.00000
     23      -3.3418      2.00000
     24      -3.0648      2.00000
     25      -3.0499      2.00000
     26      -2.9770      2.00000
     27      -2.8731      2.00000
     28      -2.8399      2.00000
     29      -2.7553      2.00000
     30      -2.6537      2.00000
     31      -2.6307      2.00000
     32      -2.5151      2.00000
     33      -2.5075      2.00000
     34      -2.4268      2.00000
     35      -2.4230      2.00000
     36      -2.3960      2.00000
     37      -1.6715      1.98465
     38      -1.6638      1.97275
     39      -1.6407      1.87995
     40      -1.6334      1.82163
     41       5.5213      0.00000
     42       5.9053      0.00000
     43       6.3685      0.00000
     44       6.8574      0.00000
     45       7.3327      0.00000
     46       7.7114      0.00000
     47       7.9304      0.00000
     48       8.0863      0.00000
     49       8.2782      0.00000
     50       8.7346      0.00000

 k-point    19 :       0.4375    0.4375    0.0000
  band No.  band energies     occupation 
      1     -17.8215      2.00000
      2     -17.7930      2.00000
      3     -17.7524      2.00000
      4     -17.7081      2.00000
      5     -17.6649      2.00000
      6     -17.6285      2.00000
      7     -17.5595      2.00000
      8     -17.5534      2.00000
      9     -16.8654      2.00000
     10     -16.8577      2.00000
     11      -6.2403      2.00000
     12      -6.0665      2.00000
     13      -5.8274      2.00000
     14      -5.7400      2.00000
     15      -5.6156      2.00000
     16      -5.5968      2.00000
     17      -5.4203      2.00000
     18      -5.3927      2.00000
     19      -4.3475      2.00000
     20      -4.3270      2.00000
     21      -3.9062      2.00000
     22      -3.8402      2.00000
     23      -3.7011      2.00000
     24      -3.6091      2.00000
     25      -3.6025      2.00000
     26      -3.4577      2.00000
     27      -3.2971      2.00000
     28      -3.2880      2.00000
     29      -3.1974      2.00000
     30      -3.1119      2.00000
     31      -3.0367      2.00000
     32      -2.9302      2.00000
     33      -2.7748      2.00000
     34      -2.6999      2.00000
     35      -2.6821      2.00000
     36      -2.6697      2.00000
     37      -2.0295      2.00000
     38      -2.0220      2.00000
     39      -1.6773      1.99033
     40      -1.6698      1.98252
     41       6.4846      0.00000
     42       6.9283      0.00000
     43       7.4834      0.00000
     44       7.6685      0.00000
     45       8.0192      0.00000
     46       8.0972      0.00000
     47       8.3324      0.00000
     48       8.4314      0.00000
     49       8.5475      0.00000
     50       8.6322      0.00000

 k-point    20 :      -0.4375    0.4375    0.0000
  band No.  band energies     occupation 
      1     -17.9409      2.00000
      2     -17.8986      2.00000
      3     -17.8387      2.00000
      4     -17.7731      2.00000
      5     -17.7066      2.00000
      6     -17.6469      2.00000
      7     -17.5897      2.00000
      8     -17.5825      2.00000
      9     -16.8987      2.00000
     10     -16.8910      2.00000
     11      -6.2926      2.00000
     12      -6.1164      2.00000
     13      -5.8726      2.00000
     14      -5.8255      2.00000
     15      -5.6753      2.00000
     16      -5.6299      2.00000
     17      -5.4599      2.00000
     18      -5.4212      2.00000
     19      -4.4310      2.00000
     20      -4.3778      2.00000
     21      -4.0355      2.00000
     22      -3.6545      2.00000
     23      -3.3676      2.00000
     24      -3.3256      2.00000
     25      -3.2218      2.00000
     26      -3.1479      2.00000
     27      -3.1041      2.00000
     28      -3.0423      2.00000
     29      -2.9225      2.00000
     30      -2.8546      2.00000
     31      -2.7957      2.00000
     32      -2.6939      2.00000
     33      -2.6780      2.00000
     34      -2.6023      2.00000
     35      -2.5879      2.00000
     36      -2.5572      2.00000
     37      -1.7886      2.00000
     38      -1.7810      2.00000
     39      -1.7145      1.99973
     40      -1.7070      1.99939
     41       5.9441      0.00000
     42       6.4178      0.00000
     43       6.9817      0.00000
     44       7.3768      0.00000
     45       7.4662      0.00000
     46       7.6657      0.00000
     47       7.7973      0.00000
     48       7.9616      0.00000
     49       8.0353      0.00000
     50       8.3075      0.00000


--------------------------------------------------------------------------------------------------------


 soft charge-density along one line, spin component           1
         0         1         2         3         4         5         6         7         8         9
 total charge-density along one line
 
 pseudopotential strength for first ion, spin component:           1
 12.884 -15.733  -0.021  -0.021  -0.021   0.026   0.026   0.026
-15.733  19.235   0.027   0.027   0.027  -0.034  -0.034  -0.034
 -0.021   0.027  -9.258   0.002   0.002  11.277  -0.002  -0.002
 -0.021   0.027   0.002  -9.258   0.002  -0.002  11.277  -0.002
 -0.021   0.027   0.002   0.002  -9.258  -0.002  -0.002  11.277
  0.026  -0.034  11.277  -0.002  -0.002 -13.619   0.003   0.003
  0.026  -0.034  -0.002  11.277  -0.002   0.003 -13.619   0.003
  0.026  -0.034  -0.002  -0.002  11.277   0.003   0.003 -13.619
 total augmentation occupancy for first ion, spin component:           1
  2.452   0.256   0.091   0.091   0.091   0.031   0.031   0.031
  0.256   0.043   0.072   0.072   0.072   0.010   0.010   0.010
  0.091   0.072   1.869  -0.029  -0.029   0.161  -0.009  -0.009
  0.091   0.072  -0.029   1.869  -0.029  -0.009   0.161  -0.009
  0.091   0.072  -0.029  -0.029   1.869  -0.009  -0.009   0.161
  0.031   0.010   0.161  -0.009  -0.009   0.016  -0.001  -0.001
  0.031   0.010  -0.009   0.161  -0.009  -0.001   0.016  -0.001
  0.031   0.010  -0.009  -0.009   0.161  -0.001  -0.001   0.016


------------------------ aborting loop because EDIFF is reached ----------------------------------------


    CHARGE:  cpu time    0.0713: real time    0.0713
    FORLOC:  cpu time    0.0019: real time    0.0019
    FORNL :  cpu time    0.3086: real time    0.3088
    STRESS:  cpu time    0.9333: real time    0.9339
    FORCOR:  cpu time    0.0098: real time    0.0098
    FORHAR:  cpu time    0.0035: real time    0.0035
    MIXING:  cpu time    0.0004: real time    0.0004
    OFIELD:  cpu time    0.0000: real time    0.0000

  FORCE on cell =-STRESS in cart. coord.  units (eV):
  Direction    XX          YY          ZZ          XY          YZ          ZX
  --------------------------------------------------------------------------------------
  Alpha Z   116.82591   116.82591   116.82591
  Ewald    8336.59211  8336.59229  8336.59211-19003.44708-19003.44708-19003.44697
  Hartree  9834.93687  9834.93687  9834.93687-18730.27278-18730.27278-18730.27278
  E(xc)    -355.36288  -355.36291  -355.36288     0.02720     0.02720     0.02721
  Local  -19211.91215-19211.91170-19211.91215 37733.15955 37733.15955 37733.16001
  n-local  -182.21277  -187.75957  -193.28319    -1.62993     1.08010    -0.14934
  augment    67.24451    67.24455    67.24451    -0.18685    -0.18685    -0.18682
  Kinetic  1387.70098  1401.98379  1416.19691    13.70477   -14.26621    -0.72257
  Fock        0.00000     0.00000     0.00000     0.00000     0.00000     0.00000
  -------------------------------------------------------------------------------------
  Total       2.53330     2.53330     2.53330    -1.38081    -1.38081    -1.38081
  in kB      14.00348    14.00348    14.00348    -7.63276    -7.63276    -7.63276
  external pressure =       14.00 kB  Pullay stress =        0.00 kB


 VOLUME and BASIS-vectors are now :
 -----------------------------------------------------------------------------
  energy-cutoff  :      520.00
  volume of cell :      289.84
      direct lattice vectors                 reciprocal lattice vectors
     2.124436000 -2.124436000  0.000000000     0.313808779 -0.156904389 -0.156904389
     0.000000000  2.124436000 -2.124436000     0.156904389  0.156904389 -0.313808779
    21.406867000 21.406867000 21.406867000     0.015571327  0.015571327  0.015571327

  length of vectors
     3.004406204  3.004406204 37.077781275     0.384335692  0.384335692  0.026970330


 FORCES acting on ions
    electron-ion (+dipol)            ewald-force                    non-local-force                 convergence-correction
 -----------------------------------------------------------------------------------------------
   0.103E+04 0.103E+04 0.103E+04   -.104E+04 -.104E+04 -.104E+04   0.854E+01 0.854E+01 0.854E+01   0.446E-02 0.446E-02 0.446E-02
   0.801E+03 0.801E+03 0.801E+03   -.802E+03 -.802E+03 -.802E+03   0.121E+01 0.121E+01 0.121E+01   0.169E-02 0.169E-02 0.169E-02
   0.342E+03 0.342E+03 0.342E+03   -.342E+03 -.342E+03 -.342E+03   0.386E-01 0.386E-01 0.386E-01   0.651E-03 0.651E-03 0.651E-03
   0.114E+03 0.114E+03 0.114E+03   -.114E+03 -.114E+03 -.114E+03   0.188E-01 0.188E-01 0.188E-01   -.171E-02 -.171E-02 -.171E-02
   -.342E+03 -.342E+03 -.342E+03   0.342E+03 0.342E+03 0.342E+03   -.386E-01 -.386E-01 -.386E-01   -.650E-03 -.650E-03 -.650E-03
   -.570E+03 -.570E+03 -.570E+03   0.570E+03 0.570E+03 0.570E+03   -.255E+00 -.255E+00 -.255E+00   -.316E-02 -.316E-02 -.316E-02
   -.103E+04 -.103E+04 -.103E+04   0.104E+04 0.104E+04 0.104E+04   -.854E+01 -.854E+01 -.854E+01   -.446E-02 -.446E-02 -.446E-02
   0.570E+03 0.570E+03 0.570E+03   -.570E+03 -.570E+03 -.570E+03   0.255E+00 0.255E+00 0.255E+00   0.316E-02 0.316E-02 0.316E-02
   -.114E+03 -.114E+03 -.114E+03   0.114E+03 0.114E+03 0.114E+03   -.188E-01 -.188E-01 -.188E-01   0.171E-02 0.171E-02 0.171E-02
   -.801E+03 -.801E+03 -.801E+03   0.802E+03 0.802E+03 0.802E+03   -.121E+01 -.121E+01 -.121E+01   -.169E-02 -.169E-02 -.169E-02
   0.228E+03 0.228E+03 0.228E+03   -.229E+03 -.229E+03 -.229E+03   0.284E+00 0.284E+00 0.284E+00   0.881E-03 0.881E-03 0.881E-03
   0.360E-04 0.673E-04 0.360E-04   -.356E-03 -.356E-03 -.356E-03   0.136E-18 0.244E-18 -.108E-18   0.731E-06 0.731E-06 0.731E-06
   -.228E+03 -.228E+03 -.228E+03   0.229E+03 0.229E+03 0.229E+03   -.284E+00 -.284E+00 -.284E+00   -.880E-03 -.880E-03 -.880E-03
   0.309E+03 0.309E+03 0.309E+03   -.311E+03 -.311E+03 -.311E+03   0.127E+01 0.127E+01 0.127E+01   0.166E-02 0.166E-02 0.166E-02
   0.759E+02 0.759E+02 0.759E+02   -.759E+02 -.759E+02 -.759E+02   0.977E-02 0.977E-02 0.977E-02   -.312E-03 -.312E-03 -.312E-03
   -.152E+03 -.152E+03 -.152E+03   0.152E+03 0.152E+03 0.152E+03   -.554E-01 -.554E-01 -.554E-01   -.281E-03 -.281E-03 -.281E-03
   0.152E+03 0.152E+03 0.152E+03   -.152E+03 -.152E+03 -.152E+03   0.554E-01 0.554E-01 0.554E-01   0.282E-03 0.282E-03 0.282E-03
   -.759E+02 -.759E+02 -.759E+02   0.759E+02 0.759E+02 0.759E+02   -.977E-02 -.977E-02 -.977E-02   0.314E-03 0.314E-03 0.314E-03
   -.309E+03 -.309E+03 -.309E+03   0.311E+03 0.311E+03 0.311E+03   -.127E+01 -.127E+01 -.127E+01   -.166E-02 -.166E-02 -.166E-02
 -----------------------------------------------------------------------------------------------
   -.889E-01 -.882E-01 -.889E-01   0.568E-12 0.227E-12 0.455E-12   -.444E-15 -.466E-14 -.666E-15   0.159E-04 0.159E-04 0.159E-04
 
 
 POSITION                                       TOTAL-FORCE (eV/Angst)
 -----------------------------------------------------------------------------------
      0.70912      0.70912      0.70912        -0.004605     -0.004605     -0.004605
      2.72973      2.72973      0.60529        -0.002990     -0.002990     -0.002990
      4.82723      4.82723      4.82723         0.001329      0.001329      0.001329
      6.95000      6.95001      4.82557         0.004140      0.004140      0.004140
      9.07409      9.07409      9.07409        -0.001329     -0.001329     -0.001329
     11.19561     11.19561      9.07117         0.004015      0.004015      0.004015
     13.19217     13.19217     13.19217         0.004605      0.004605      0.004605
      4.83013      2.70569      2.70569        -0.004015     -0.004015     -0.004015
      9.07575      6.95131      6.95132        -0.004140     -0.004140     -0.004140
     13.29603     11.17159     11.17159         0.002990      0.002990      0.002990
      2.69272      2.69272      2.69272        -0.002662     -0.002662     -0.002662
      6.95066      6.95066      6.95066         0.000000     -0.000000     -0.000000
     11.20860     11.20860     11.20860         0.002662      0.002662      0.002662
      2.65555      0.53111      0.53111         0.001080      0.001080      0.001080
      6.94974      4.82530      4.82530         0.001371      0.001371      0.001371
     11.20193      9.07749      9.07749        -0.004128     -0.004128     -0.004128
      4.82383      4.82383      2.69939         0.004128      0.004128      0.004128
      9.07599      9.07600      6.95156        -0.001371     -0.001371     -0.001371
     13.37021     13.37021     11.24577        -0.001080     -0.001080     -0.001080
 -----------------------------------------------------------------------------------
    total drift:                               -0.088870     -0.088162     -0.088875


--------------------------------------------------------------------------------------------------------



  FREE ENERGIE OF THE ION-ELECTRON SYSTEM (eV)
  ---------------------------------------------------
  free  energy   TOTEN  =      -108.31022764 eV

  energy  without entropy=     -108.28434282  energy(sigma->0) =     -108.29728523
 
 d Force = 0.3256607E-05[ 0.116E-05, 0.535E-05]  d Energy =-0.4218310E-05 0.747E-05
 d Force = 0.3011909E+00[ 0.301E+00, 0.301E+00]  d Ewald  = 0.3011909E+00 0.116E-09


--------------------------------------------------------------------------------------------------------


    POTLOK:  cpu time    0.0102: real time    0.0102


--------------------------------------------------------------------------------------------------------


 stress matrix after NEB project (eV)
      2.53330     -1.38081     -1.38081
     -1.38081      2.53330     -1.38081
     -1.38081     -1.38081      2.53330
  FORCES: max atom, RMS     0.007976    0.005400
  FORCE total and by dimension    0.023540    0.004605
  Stress total and by dimension    5.540092    2.533302


--------------------------------------------------------------------------------------------------------


  
 reached required accuracy - stopping structural energy minimisation
     LOOP+:  cpu time    9.7232: real time    9.7311
    4ORBIT:  cpu time    0.0000: real time    0.0000

 total amount of memory used by VASP MPI-rank0    44078. kBytes
=======================================================================

   base      :      30000. kBytes
   nonlr-proj:       2315. kBytes
   fftplans  :       2110. kBytes
   grid      :       3053. kBytes
   one-center:         40. kBytes
   wavefun   :       6560. kBytes
 
  
  
 General timing and accounting informations for this job:
 ========================================================
  
                  Total CPU time used (sec):      558.445
                            User time (sec):      557.408
                          System time (sec):        1.037
                         Elapsed time (sec):      559.671
  
                   Maximum memory used (kb):      143396.
                   Average memory used (kb):           0.
  
                          Minor page faults:       101228
                          Major page faults:            0
                 Voluntary context switches:          650
