       N       E                     dE             d eps       ncg     rms          rms(c)
DAV:   1     0.500657974599E+03    0.50066E+03   -0.44471E+04  6288   0.135E+03
DAV:   2    -0.102691178901E+03   -0.60335E+03   -0.57575E+03  8136   0.260E+02
DAV:   3    -0.155613949458E+03   -0.52923E+02   -0.52623E+02  7400   0.836E+01
DAV:   4    -0.156260758447E+03   -0.64681E+00   -0.64576E+00  7368   0.101E+01
DAV:   5    -0.156270070183E+03   -0.93117E-02   -0.93085E-02  7480   0.119E+00    0.229E+01
DAV:   6    -0.140848372580E+03    0.15422E+02   -0.87845E+01  7584   0.321E+01    0.789E+00
DAV:   7    -0.140737819465E+03    0.11055E+00   -0.22621E+00  7144   0.625E+00    0.480E+00
DAV:   8    -0.140666676420E+03    0.71143E-01   -0.81984E-01  7328   0.458E+00    0.131E+00
DAV:   9    -0.140629429165E+03    0.37247E-01   -0.15203E-01  7280   0.165E+00    0.602E-01
DAV:  10    -0.140633602248E+03   -0.41731E-02   -0.10820E-01  7160   0.130E+00    0.439E-01
DAV:  11    -0.140630505199E+03    0.30970E-02   -0.10376E-02  7640   0.486E-01    0.268E-01
DAV:  12    -0.140630390559E+03    0.11464E-03   -0.15127E-02  7264   0.532E-01    0.145E-01
DAV:  13    -0.140630066848E+03    0.32371E-03   -0.16870E-03  8024   0.231E-01    0.724E-02
DAV:  14    -0.140629961714E+03    0.10513E-03   -0.91555E-04  7472   0.146E-01    0.199E-02
DAV:  15    -0.140629868134E+03    0.93581E-04   -0.88567E-05  8040   0.863E-02    0.117E-02
DAV:  16    -0.140629807913E+03    0.60221E-04   -0.61540E-05  7024   0.683E-02    0.130E-02
DAV:  17    -0.140629769529E+03    0.38383E-04   -0.37414E-05  6424   0.586E-02    0.130E-02
DAV:  18    -0.140629706468E+03    0.63061E-04   -0.60321E-05  7568   0.120E-01    0.134E-02
DAV:  19    -0.140629682437E+03    0.24031E-04   -0.83250E-05  7632   0.816E-02    0.746E-03
DAV:  20    -0.140629656596E+03    0.25841E-04   -0.56326E-05  7552   0.116E-01    0.948E-03
DAV:  21    -0.140629656228E+03    0.36725E-06   -0.72873E-05  6528   0.427E-02
   1 F= -.14062966E+03 E0= -.14062681E+03  d E =-.140630E+03
       N       E                     dE             d eps       ncg     rms          rms(c)
DAV:   1    -0.140632541581E+03   -0.28850E-02   -0.57801E-02  6512   0.101E+00    0.650E-02
DAV:   2    -0.140632514540E+03    0.27040E-04   -0.35842E-03  7392   0.266E-01    0.585E-02
DAV:   3    -0.140632454197E+03    0.60343E-04   -0.43434E-04  7264   0.861E-02    0.470E-02
DAV:   4    -0.140632405727E+03    0.48470E-04   -0.12733E-04  7328   0.477E-02    0.250E-02
DAV:   5    -0.140632353158E+03    0.52569E-04   -0.11105E-04  7336   0.566E-02    0.123E-02
DAV:   6    -0.140632344270E+03    0.88883E-05   -0.49365E-05  7368   0.385E-02
   2 F= -.14063234E+03 E0= -.14062960E+03  d E =-.268804E-02
       N       E                     dE             d eps       ncg     rms          rms(c)
DAV:   1    -0.140632801608E+03   -0.44845E-03   -0.18361E-02  6552   0.569E-01    0.354E-02
DAV:   2    -0.140632791306E+03    0.10303E-04   -0.11647E-03  7360   0.143E-01    0.332E-02
DAV:   3    -0.140632762415E+03    0.28891E-04   -0.11451E-04  7208   0.458E-02    0.255E-02
DAV:   4    -0.140632735657E+03    0.26758E-04   -0.68612E-05  7176   0.390E-02    0.117E-02
DAV:   5    -0.140632711735E+03    0.23921E-04   -0.35540E-05  6688   0.387E-02    0.899E-03
DAV:   6    -0.140632700482E+03    0.11254E-04   -0.18968E-05  5648   0.254E-02    0.541E-03
DAV:   7    -0.140632695083E+03    0.53983E-05   -0.81114E-06  4696   0.182E-02
   3 F= -.14063270E+03 E0= -.14063000E+03  d E =-.303886E-02
       N       E                     dE             d eps       ncg     rms          rms(c)
DAV:   1    -0.140633514801E+03   -0.81432E-03   -0.30605E-01  6288   0.233E+00    0.756E-02
DAV:   2    -0.140634195089E+03   -0.68029E-03   -0.78454E-03  7264   0.325E-01    0.458E-02
DAV:   3    -0.140634144675E+03    0.50414E-04   -0.95037E-05  7472   0.589E-02    0.312E-02
DAV:   4    -0.140634111111E+03    0.33564E-04   -0.50954E-05  7224   0.473E-02    0.144E-02
DAV:   5    -0.140634094207E+03    0.16904E-04   -0.29763E-05  6320   0.465E-02    0.537E-03
DAV:   6    -0.140634090757E+03    0.34507E-05   -0.27650E-05  5568   0.279E-02
   4 F= -.14063409E+03 E0= -.14063143E+03  d E =-.139567E-02
       N       E                     dE             d eps       ncg     rms          rms(c)
DAV:   1    -0.140632906022E+03    0.11882E-02   -0.11970E+00  6272   0.463E+00    0.152E-01
DAV:   2    -0.140635637541E+03   -0.27315E-02   -0.31373E-02  7264   0.649E-01    0.959E-02
DAV:   3    -0.140635422765E+03    0.21478E-03   -0.35162E-04  7528   0.121E-01    0.637E-02
DAV:   4    -0.140635293943E+03    0.12882E-03   -0.27210E-04  7352   0.102E-01    0.276E-02
DAV:   5    -0.140635254770E+03    0.39173E-04   -0.13192E-04  7576   0.765E-02    0.107E-02
DAV:   6    -0.140635236452E+03    0.18319E-04   -0.42625E-05  6600   0.473E-02    0.846E-03
DAV:   7    -0.140635217619E+03    0.18832E-04   -0.75987E-06  4584   0.328E-02    0.558E-03
DAV:   8    -0.140635198514E+03    0.19105E-04   -0.70268E-06  4648   0.366E-02    0.417E-03
DAV:   9    -0.140635159925E+03    0.38590E-04   -0.25155E-05  5992   0.953E-02    0.445E-03
DAV:  10    -0.140635135082E+03    0.24843E-04   -0.57456E-05  7304   0.999E-02    0.543E-03
DAV:  11    -0.140635126891E+03    0.81905E-05   -0.49654E-05  6888   0.757E-02
   5 F= -.14063513E+03 E0= -.14063255E+03  d E =-.243181E-02
       N       E                     dE             d eps       ncg     rms          rms(c)
DAV:   1    -0.140635642358E+03   -0.50728E-03   -0.17963E-01  6472   0.183E+00    0.595E-02
DAV:   2    -0.140636060559E+03   -0.41820E-03   -0.45984E-03  7120   0.257E-01    0.326E-02
DAV:   3    -0.140636034201E+03    0.26358E-04   -0.41765E-05  7248   0.362E-02    0.226E-02
DAV:   4    -0.140636012468E+03    0.21733E-04   -0.44619E-05  6880   0.424E-02    0.794E-03
DAV:   5    -0.140636008703E+03    0.37645E-05   -0.24135E-05  5928   0.280E-02    0.602E-03
DAV:   6    -0.140636005915E+03    0.27879E-05   -0.92030E-06  4328   0.194E-02
   6 F= -.14063601E+03 E0= -.14063346E+03  d E =-.879024E-03
       N       E                     dE             d eps       ncg     rms          rms(c)
DAV:   1    -0.140634282926E+03    0.17258E-02   -0.16157E+00  6344   0.550E+00    0.174E-01
DAV:   2    -0.140638106554E+03   -0.38236E-02   -0.41491E-02  7096   0.766E-01    0.101E-01
DAV:   3    -0.140637864620E+03    0.24193E-03   -0.32955E-04  7504   0.102E-01    0.682E-02
DAV:   4    -0.140637667590E+03    0.19703E-03   -0.39739E-04  7624   0.124E-01    0.227E-02
DAV:   5    -0.140637631621E+03    0.35969E-04   -0.20361E-04  7432   0.771E-02    0.149E-02
DAV:   6    -0.140637599893E+03    0.31728E-04   -0.48699E-05  6776   0.468E-02    0.836E-03
DAV:   7    -0.140637565553E+03    0.34340E-04   -0.10694E-05  4960   0.455E-02    0.610E-03
DAV:   8    -0.140637530224E+03    0.35329E-04   -0.29855E-05  6000   0.537E-02    0.607E-03
DAV:   9    -0.140637480529E+03    0.49695E-04   -0.30459E-05  5864   0.891E-02    0.739E-03
DAV:  10    -0.140637456443E+03    0.24086E-04   -0.56310E-05  7152   0.803E-02    0.796E-03
DAV:  11    -0.140637443056E+03    0.13387E-04   -0.43393E-05  6624   0.798E-02    0.108E-02
DAV:  12    -0.140637434860E+03    0.81953E-05   -0.38484E-05  6168   0.516E-02
   7 F= -.14063743E+03 E0= -.14063497E+03  d E =-.230797E-02
       N       E                     dE             d eps       ncg     rms          rms(c)
DAV:   1    -0.140637341965E+03    0.10109E-03   -0.82455E-02  6456   0.124E+00    0.415E-02
DAV:   2    -0.140637537089E+03   -0.19512E-03   -0.21161E-03  7096   0.171E-01    0.220E-02
DAV:   3    -0.140637525848E+03    0.11241E-04   -0.18090E-05  5568   0.211E-02    0.150E-02
DAV:   4    -0.140637516689E+03    0.91587E-05   -0.18712E-05  5048   0.243E-02    0.491E-03
DAV:   5    -0.140637514605E+03    0.20839E-05   -0.81885E-06  4264   0.166E-02    0.359E-03
DAV:   6    -0.140637511557E+03    0.30486E-05   -0.21494E-06  4264   0.174E-02
   8 F= -.14063751E+03 E0= -.14063507E+03  d E =-.238467E-02
       N       E                     dE             d eps       ncg     rms          rms(c)
DAV:   1    -0.140638131132E+03   -0.61653E-03   -0.10373E-01  6392   0.138E+00    0.372E-02
DAV:   2    -0.140638306423E+03   -0.17529E-03   -0.20141E-03  7264   0.180E-01    0.234E-02
DAV:   3    -0.140638291615E+03    0.14808E-04   -0.18529E-05  5336   0.259E-02    0.161E-02
DAV:   4    -0.140638279116E+03    0.12499E-04   -0.47350E-05  6608   0.375E-02    0.578E-03
DAV:   5    -0.140638279112E+03    0.36207E-08   -0.14200E-05  4392   0.181E-02    0.494E-03
DAV:   6    -0.140638278065E+03    0.10467E-05   -0.38699E-06  4088   0.126E-02
   9 F= -.14063828E+03 E0= -.14063584E+03  d E =-.766509E-03
       N       E                     dE             d eps       ncg     rms          rms(c)
DAV:   1    -0.140638355196E+03   -0.76084E-04   -0.93343E-01  6320   0.414E+00    0.113E-01
DAV:   2    -0.140639933660E+03   -0.15785E-02   -0.18188E-02  7328   0.540E-01    0.706E-02
DAV:   3    -0.140639807221E+03    0.12644E-03   -0.19139E-04  7480   0.782E-02    0.483E-02
DAV:   4    -0.140639720040E+03    0.87181E-04   -0.37768E-04  7296   0.967E-02    0.180E-02
DAV:   5    -0.140639721182E+03   -0.11415E-05   -0.94339E-05  7080   0.457E-02    0.151E-02
DAV:   6    -0.140639716905E+03    0.42763E-05   -0.51289E-05  6288   0.419E-02
  10 F= -.14063972E+03 E0= -.14063731E+03  d E =-.220535E-02
       N       E                     dE             d eps       ncg     rms          rms(c)
DAV:   1    -0.140633137791E+03    0.65834E-02   -0.37325E+00  6360   0.827E+00    0.229E-01
DAV:   2    -0.140639500974E+03   -0.63632E-02   -0.73429E-02  7328   0.108E+00    0.142E-01
DAV:   3    -0.140638994525E+03    0.50645E-03   -0.78465E-04  7472   0.155E-01    0.972E-02
DAV:   4    -0.140638651621E+03    0.34290E-03   -0.15876E-03  7304   0.194E-01    0.375E-02
DAV:   5    -0.140638656481E+03   -0.48599E-05   -0.37401E-04  7408   0.899E-02    0.318E-02
DAV:   6    -0.140638639691E+03    0.16790E-04   -0.18215E-04  7200   0.748E-02    0.131E-02
DAV:   7    -0.140638632542E+03    0.71493E-05   -0.21236E-05  5504   0.362E-02
  11 F= -.14063863E+03 E0= -.14063629E+03  d E =-.112099E-02
       N       E                     dE             d eps       ncg     rms          rms(c)
DAV:   1    -0.140637388602E+03    0.12511E-02   -0.16963E+00  6328   0.554E+00    0.153E-01
DAV:   2    -0.140640290317E+03   -0.29017E-02   -0.33362E-02  7328   0.717E-01    0.935E-02
DAV:   3    -0.140640062123E+03    0.22819E-03   -0.31279E-04  7576   0.102E-01    0.629E-02
DAV:   4    -0.140639918445E+03    0.14368E-03   -0.66954E-04  7344   0.136E-01    0.202E-02
DAV:   5    -0.140639927879E+03   -0.94335E-05   -0.17153E-04  7248   0.542E-02    0.185E-02
DAV:   6    -0.140639924354E+03    0.35246E-05   -0.67413E-05  6608   0.415E-02
  12 F= -.14063992E+03 E0= -.14063754E+03  d E =-.241280E-02
       N       E                     dE             d eps       ncg     rms          rms(c)
DAV:   1    -0.140640410516E+03   -0.48264E-03   -0.89427E-02  6320   0.133E+00    0.406E-02
DAV:   2    -0.140640602139E+03   -0.19162E-03   -0.22251E-03  7184   0.193E-01    0.246E-02
DAV:   3    -0.140640591250E+03    0.10889E-04   -0.40916E-05  6944   0.322E-02    0.187E-02
DAV:   4    -0.140640582130E+03    0.91191E-05   -0.29961E-05  6120   0.295E-02    0.804E-03
DAV:   5    -0.140640578838E+03    0.32923E-05   -0.94695E-06  4488   0.242E-02    0.636E-03
DAV:   6    -0.140640577483E+03    0.13552E-05   -0.86217E-06  4296   0.204E-02
  13 F= -.14064058E+03 E0= -.14063820E+03  d E =-.653129E-03
       N       E                     dE             d eps       ncg     rms          rms(c)
DAV:   1    -0.140640082253E+03    0.49658E-03   -0.80365E-01  6280   0.399E+00    0.123E-01
DAV:   2    -0.140641818291E+03   -0.17360E-02   -0.19603E-02  7136   0.569E-01    0.694E-02
DAV:   3    -0.140641725392E+03    0.92899E-04   -0.33122E-04  7432   0.931E-02    0.510E-02
DAV:   4    -0.140641646392E+03    0.79000E-04   -0.22988E-04  7344   0.837E-02    0.221E-02
DAV:   5    -0.140641613523E+03    0.32869E-04   -0.65949E-05  7432   0.714E-02    0.183E-02
DAV:   6    -0.140641589870E+03    0.23653E-04   -0.79204E-05  7144   0.747E-02    0.887E-03
DAV:   7    -0.140641587806E+03    0.20643E-05   -0.53577E-05  6328   0.329E-02
  14 F= -.14064159E+03 E0= -.14063923E+03  d E =-.166345E-02
       N       E                     dE             d eps       ncg     rms          rms(c)
DAV:   1    -0.140641530241E+03    0.59630E-04   -0.50613E-02  6320   0.101E+00    0.340E-02
DAV:   2    -0.140641624234E+03   -0.93993E-04   -0.12335E-03  7112   0.145E-01    0.167E-02
DAV:   3    -0.140641608336E+03    0.15899E-04   -0.21900E-05  5112   0.352E-02    0.121E-02
DAV:   4    -0.140641578141E+03    0.30195E-04   -0.17014E-05  5040   0.585E-02    0.584E-03
DAV:   5    -0.140641562700E+03    0.15441E-04   -0.21796E-05  5272   0.433E-02    0.876E-03
DAV:   6    -0.140641554340E+03    0.83602E-05   -0.23180E-05  5352   0.317E-02
  15 F= -.14064155E+03 E0= -.14063920E+03  d E =-.162999E-02
       N       E                     dE             d eps       ncg     rms          rms(c)
DAV:   1    -0.140641910640E+03   -0.34794E-03   -0.36283E-01  6328   0.270E+00    0.789E-02
DAV:   2    -0.140642688564E+03   -0.77792E-03   -0.86829E-03  7208   0.380E-01    0.478E-02
DAV:   3    -0.140642641081E+03    0.47482E-04   -0.10118E-04  7400   0.517E-02    0.325E-02
DAV:   4    -0.140642607767E+03    0.33314E-04   -0.12819E-04  7096   0.577E-02    0.123E-02
DAV:   5    -0.140642605262E+03    0.25055E-05   -0.32677E-05  6160   0.285E-02    0.107E-02
DAV:   6    -0.140642600646E+03    0.46154E-05   -0.13698E-05  4352   0.261E-02
  16 F= -.14064260E+03 E0= -.14064027E+03  d E =-.104631E-02
       N       E                     dE             d eps       ncg     rms          rms(c)
DAV:   1    -0.140638351894E+03    0.42534E-02   -0.32567E+00  6280   0.809E+00    0.229E-01
DAV:   2    -0.140645004094E+03   -0.66522E-02   -0.72808E-02  7184   0.109E+00    0.131E-01
DAV:   3    -0.140644629708E+03    0.37439E-03   -0.67551E-04  7512   0.135E-01    0.878E-02
DAV:   4    -0.140644393356E+03    0.23635E-03   -0.84396E-04  7392   0.164E-01    0.260E-02
DAV:   5    -0.140644411641E+03   -0.18285E-04   -0.32064E-04  7184   0.734E-02    0.242E-02
DAV:   6    -0.140644405968E+03    0.56729E-05   -0.35174E-05  6016   0.287E-02
  17 F= -.14064441E+03 E0= -.14064214E+03  d E =-.285163E-02
       N       E                     dE             d eps       ncg     rms          rms(c)
DAV:   1    -0.140643787079E+03    0.62456E-03   -0.38405E-01  6296   0.278E+00    0.804E-02
DAV:   2    -0.140644571224E+03   -0.78414E-03   -0.85632E-03  7176   0.375E-01    0.438E-02
DAV:   3    -0.140644528752E+03    0.42472E-04   -0.85772E-05  7440   0.491E-02    0.292E-02
DAV:   4    -0.140644503609E+03    0.25143E-04   -0.93110E-05  7016   0.530E-02    0.943E-03
DAV:   5    -0.140644504846E+03   -0.12378E-05   -0.34184E-05  6104   0.255E-02    0.802E-03
DAV:   6    -0.140644504096E+03    0.75025E-06   -0.62029E-06  4072   0.138E-02
  18 F= -.14064450E+03 E0= -.14064226E+03  d E =-.294976E-02
       N       E                     dE             d eps       ncg     rms          rms(c)
DAV:   1    -0.140644399473E+03    0.10537E-03   -0.69806E-01  6440   0.374E+00    0.107E-01
DAV:   2    -0.140645880667E+03   -0.14812E-02   -0.15790E-02  7144   0.514E-01    0.613E-02
DAV:   3    -0.140645795085E+03    0.85582E-04   -0.12146E-04  7488   0.598E-02    0.414E-02
DAV:   4    -0.140645720816E+03    0.74269E-04   -0.22461E-04  7272   0.103E-01    0.118E-02
DAV:   5    -0.140645725241E+03   -0.44247E-05   -0.12085E-04  6880   0.492E-02    0.148E-02
DAV:   6    -0.140645722658E+03    0.25824E-05   -0.90203E-06  4200   0.131E-02
  19 F= -.14064572E+03 E0= -.14064351E+03  d E =-.121856E-02
       N       E                     dE             d eps       ncg     rms          rms(c)
DAV:   1    -0.140640031068E+03    0.56942E-02   -0.35582E+00  6432   0.845E+00    0.244E-01
DAV:   2    -0.140647582394E+03   -0.75513E-02   -0.81065E-02  7160   0.117E+00    0.141E-01
DAV:   3    -0.140647109618E+03    0.47278E-03   -0.67034E-04  7480   0.145E-01    0.950E-02
DAV:   4    -0.140646648413E+03    0.46121E-03   -0.10253E-03  7400   0.238E-01    0.288E-02
DAV:   5    -0.140646633235E+03    0.15177E-04   -0.66881E-04  7336   0.130E-01    0.332E-02
DAV:   6    -0.140646611347E+03    0.21888E-04   -0.10086E-04  6832   0.426E-02    0.242E-02
DAV:   7    -0.140646545069E+03    0.66278E-04   -0.38059E-05  6504   0.484E-02    0.167E-02
DAV:   8    -0.140646449781E+03    0.95288E-04   -0.37724E-05  6504   0.797E-02    0.156E-02
DAV:   9    -0.140646332287E+03    0.11749E-03   -0.95163E-05  8728   0.140E-01    0.188E-02
DAV:  10    -0.140646202695E+03    0.12959E-03   -0.27484E-04 10272   0.263E-01    0.422E-02
DAV:  11    -0.140646145703E+03    0.56992E-04   -0.33383E-04  8360   0.161E-01    0.423E-02
DAV:  12    -0.140646097055E+03    0.48648E-04   -0.32701E-04  7288   0.109E-01    0.284E-02
DAV:  13    -0.140646064916E+03    0.32139E-04   -0.11198E-04  7296   0.686E-02    0.240E-02
DAV:  14    -0.140646043299E+03    0.21617E-04   -0.62788E-05  7360   0.110E-01    0.254E-02
DAV:  15    -0.140646032100E+03    0.11199E-04   -0.94029E-05  6872   0.690E-02    0.956E-03
DAV:  16    -0.140646035976E+03   -0.38768E-05   -0.93918E-05  6704   0.410E-02
  20 F= -.14064604E+03 E0= -.14064387E+03  d E =-.153188E-02
       N       E                     dE             d eps       ncg     rms          rms(c)
DAV:   1    -0.140645418310E+03    0.61379E-03   -0.47146E-01  6520   0.307E+00    0.870E-02
DAV:   2    -0.140646427412E+03   -0.10091E-02   -0.10750E-02  7176   0.422E-01    0.505E-02
DAV:   3    -0.140646367619E+03    0.59793E-04   -0.80114E-05  7496   0.495E-02    0.342E-02
DAV:   4    -0.140646310921E+03    0.56698E-04   -0.14042E-04  7232   0.852E-02    0.843E-03
DAV:   5    -0.140646313155E+03   -0.22344E-05   -0.85879E-05  6808   0.420E-02    0.114E-02
DAV:   6    -0.140646311628E+03    0.15274E-05   -0.60971E-06  4120   0.104E-02
  21 F= -.14064631E+03 E0= -.14064413E+03  d E =-.180753E-02
       N       E                     dE             d eps       ncg     rms          rms(c)
DAV:   1    -0.140646491862E+03   -0.17871E-03   -0.47464E-01  6328   0.310E+00    0.854E-02
DAV:   2    -0.140647441370E+03   -0.94951E-03   -0.10498E-02  7184   0.422E-01    0.502E-02
DAV:   3    -0.140647386293E+03    0.55077E-04   -0.11864E-04  7480   0.531E-02    0.347E-02
DAV:   4    -0.140647337554E+03    0.48739E-04   -0.12720E-04  7080   0.607E-02    0.132E-02
DAV:   5    -0.140647330917E+03    0.66371E-05   -0.47576E-05  6680   0.382E-02    0.132E-02
DAV:   6    -0.140647320957E+03    0.99599E-05   -0.26530E-05  5616   0.360E-02
  22 F= -.14064732E+03 E0= -.14064516E+03  d E =-.100933E-02
       N       E                     dE             d eps       ncg     rms          rms(c)
DAV:   1    -0.140642467164E+03    0.48638E-02   -0.30596E+00  6320   0.787E+00    0.225E-01
DAV:   2    -0.140648728060E+03   -0.62609E-02   -0.68559E-02  7184   0.108E+00    0.127E-01
DAV:   3    -0.140648389448E+03    0.33861E-03   -0.71986E-04  7488   0.131E-01    0.859E-02
DAV:   4    -0.140648142672E+03    0.24678E-03   -0.87137E-04  7344   0.152E-01    0.305E-02
DAV:   5    -0.140648130314E+03    0.12358E-04   -0.26774E-04  7360   0.792E-02    0.294E-02
DAV:   6    -0.140648099280E+03    0.31034E-04   -0.11397E-04  7456   0.653E-02    0.137E-02
DAV:   7    -0.140648076285E+03    0.22995E-04   -0.20793E-05  5384   0.428E-02    0.117E-02
DAV:   8    -0.140648038248E+03    0.38037E-04   -0.10244E-05  4752   0.560E-02    0.758E-03
DAV:   9    -0.140647994024E+03    0.44225E-04   -0.27299E-05  5960   0.699E-02    0.493E-03
DAV:  10    -0.140647915366E+03    0.78658E-04   -0.44419E-05  6784   0.154E-01    0.655E-03
DAV:  11    -0.140647861891E+03    0.53475E-04   -0.16799E-04  9264   0.227E-01    0.670E-03
DAV:  12    -0.140647879714E+03   -0.17823E-04   -0.22836E-04  6680   0.749E-02    0.731E-03
DAV:  13    -0.140647883131E+03   -0.34173E-05   -0.43612E-05  5928   0.243E-02
  23 F= -.14064788E+03 E0= -.14064576E+03  d E =-.157150E-02
       N       E                     dE             d eps       ncg     rms          rms(c)
DAV:   1    -0.140647663083E+03    0.21663E-03   -0.17133E-01  6400   0.186E+00    0.545E-02
DAV:   2    -0.140648010056E+03   -0.34697E-03   -0.38287E-03  7192   0.255E-01    0.281E-02
DAV:   3    -0.140647994349E+03    0.15707E-04   -0.49072E-05  7216   0.334E-02    0.196E-02
DAV:   4    -0.140647984126E+03    0.10223E-04   -0.34902E-05  6384   0.298E-02    0.809E-03
DAV:   5    -0.140647982539E+03    0.15871E-05   -0.10696E-05  4224   0.181E-02    0.626E-03
DAV:   6    -0.140647981353E+03    0.11861E-05   -0.60900E-06  4192   0.170E-02
  24 F= -.14064798E+03 E0= -.14064585E+03  d E =-.166973E-02
       N       E                     dE             d eps       ncg     rms          rms(c)
DAV:   1    -0.140648179236E+03   -0.19670E-03   -0.31068E-01  6320   0.253E+00    0.790E-02
DAV:   2    -0.140648899020E+03   -0.71978E-03   -0.82391E-03  7200   0.376E-01    0.483E-02
DAV:   3    -0.140648861604E+03    0.37416E-04   -0.15692E-04  7360   0.560E-02    0.371E-02
DAV:   4    -0.140648836005E+03    0.25598E-04   -0.10132E-04  7008   0.457E-02    0.157E-02
DAV:   5    -0.140648828374E+03    0.76318E-05   -0.32222E-05  5952   0.296E-02    0.116E-02
DAV:   6    -0.140648825700E+03    0.26736E-05   -0.15776E-05  4704   0.258E-02
  25 F= -.14064883E+03 E0= -.14064669E+03  d E =-.844347E-03
       N       E                     dE             d eps       ncg     rms          rms(c)
DAV:   1    -0.140648623884E+03    0.20449E-03   -0.19874E-01  6288   0.203E+00    0.662E-02
DAV:   2    -0.140649096062E+03   -0.47218E-03   -0.53853E-03  7192   0.303E-01    0.389E-02
DAV:   3    -0.140649070376E+03    0.25687E-04   -0.96303E-05  7352   0.450E-02    0.293E-02
DAV:   4    -0.140649053808E+03    0.16567E-04   -0.83867E-05  6912   0.408E-02    0.115E-02
DAV:   5    -0.140649049904E+03    0.39039E-05   -0.15746E-05  4496   0.218E-02    0.938E-03
DAV:   6    -0.140649047881E+03    0.20232E-05   -0.11214E-05  4552   0.234E-02
  26 F= -.14064905E+03 E0= -.14064692E+03  d E =-.106653E-02
       N       E                     dE             d eps       ncg     rms          rms(c)
DAV:   1    -0.140649119957E+03   -0.70053E-04   -0.78297E-02  6688   0.122E+00    0.363E-02
DAV:   2    -0.140649258070E+03   -0.13811E-03   -0.17089E-03  7176   0.170E-01    0.214E-02
DAV:   3    -0.140649243070E+03    0.15001E-04   -0.29521E-05  6464   0.281E-02    0.147E-02
DAV:   4    -0.140649232354E+03    0.10716E-04   -0.15983E-05  4752   0.249E-02    0.674E-03
DAV:   5    -0.140649227739E+03    0.46151E-05   -0.13209E-05  4576   0.247E-02    0.276E-03
DAV:   6    -0.140649227191E+03    0.54825E-06   -0.82026E-06  4120   0.133E-02
  27 F= -.14064923E+03 E0= -.14064710E+03  d E =-.179310E-03
