 vasp.5.3.5 31Mar14 (build Apr 08 2024 10:12:10) complex                        
  
 executed on             LinuxIFC date 2024.07.29  14:02:59
 running on    8 total cores
 distrk:  each k-point on    8 cores,    1 groups
 distr:  one band on NCORES_PER_BAND=   4 cores,    2 groups


--------------------------------------------------------------------------------------------------------


 INCAR:
 POTCAR:    PAW_PBE O 08Apr2002                   
 POTCAR:    PAW_PBE Mg 13Apr2007                  
 POTCAR:    PAW_PBE Al 04Jan2001                  
 POTCAR:    PAW_PBE O 08Apr2002                   
   VRHFIN =O: s2p4                                                              
   LEXCH  = PE                                                                  
   EATOM  =   432.3788 eV,   31.7789 Ry                                         
                                                                                
   TITEL  = PAW_PBE O 08Apr2002                                                 
   LULTRA =        F    use ultrasoft PP ?                                      
   IUNSCR =        1    unscreen: 0-lin 1-nonlin 2-no                           
   RPACOR =    1.200    partial core radius                                     
   POMASS =   16.000; ZVAL   =    6.000    mass and valenz                      
   RCORE  =    1.520    outmost cutoff radius                                   
   RWIGS  =    1.550; RWIGS  =    0.820    wigner-seitz radius (au A)           
   ENMAX  =  400.000; ENMIN  =  300.000 eV                                      
   ICORE  =        2    local potential                                         
   LCOR   =        T    correct aug charges                                     
   LPAW   =        T    paw PP                                                  
   EAUG   =  605.392                                                            
   DEXC   =    0.000                                                            
   RMAX   =    1.553    core radius for proj-oper                               
   RAUG   =    1.300    factor for augmentation sphere                          
   RDEP   =    1.550    radius for radial grids                                 
   RDEPT  =    1.329    core radius for aug-charge                              
                                                                                
   Atomic configuration                                                         
    4 entries                                                                   
     n  l   j            E        occ.                                          
     1  0  0.50      -514.6923   2.0000                                         
     2  0  0.50       -23.9615   2.0000                                         
     2  1  0.50        -9.0305   4.0000                                         
     3  2  1.50        -9.5241   0.0000                                         
   Description                                                                  
     l       E           TYP  RCUT    TYP  RCUT                                 
     0    -23.9615318     23  1.200                                             
     0     -9.5240782     23  1.200                                             
     1     -9.0304911     23  1.520                                             
     1      8.1634956     23  1.520                                             
     2     -9.5240782      7  1.500                                             
  local pseudopotential read in
  partial core-charges read in
  partial kinetic energy density read in
  kinetic energy density of atom read in
  atomic valenz-charges read in
  non local Contribution for L=           0  read in
    real space projection operators read in
  non local Contribution for L=           0  read in
    real space projection operators read in
  non local Contribution for L=           1  read in
    real space projection operators read in
  non local Contribution for L=           1  read in
    real space projection operators read in
    PAW grid and wavefunctions read in
 
   number of l-projection  operators is LMAX  =           4
   number of lm-projection operators is LMMAX =           8
 
 POTCAR:    PAW_PBE Mg 13Apr2007                  
   VRHFIN =Mg: s2p0                                                             
   LEXCH  = PE                                                                  
   EATOM  =    23.0369 eV,    1.6932 Ry                                         
                                                                                
   TITEL  = PAW_PBE Mg 13Apr2007                                                
   LULTRA =        F    use ultrasoft PP ?                                      
   IUNSCR =        1    unscreen: 0-lin 1-nonlin 2-no                           
   RPACOR =    1.500    partial core radius                                     
   POMASS =   24.305; ZVAL   =    2.000    mass and valenz                      
   RCORE  =    2.000    outmost cutoff radius                                   
   RWIGS  =    2.880; RWIGS  =    1.524    wigner-seitz radius (au A)           
   ENMAX  =  200.000; ENMIN  =  100.000 eV                                      
   RCLOC  =    1.506    cutoff for local pot                                    
   LCOR   =        T    correct aug charges                                     
   LPAW   =        T    paw PP                                                  
   EAUG   =  454.734                                                            
   DEXC   =    0.000                                                            
   RMAX   =    2.045    core radius for proj-oper                               
   RAUG   =    1.300    factor for augmentation sphere                          
   RDEP   =    2.025    radius for radial grids                                 
   RDEPT  =    1.942    core radius for aug-charge                              
                                                                                
   Atomic configuration                                                         
    6 entries                                                                   
     n  l   j            E        occ.                                          
     1  0  0.50     -1259.6230   2.0000                                         
     2  0  0.50       -79.8442   2.0000                                         
     2  1  1.50       -46.6121   6.0000                                         
     3  0  0.50        -4.7055   2.0000                                         
     3  1  0.50        -1.3660   0.0000                                         
     3  2  1.50        -1.3606   0.0000                                         
   Description                                                                  
     l       E           TYP  RCUT    TYP  RCUT                                 
     0     -4.7054661     23  2.000                                             
     0     27.2116520     23  2.000                                             
     1      1.3605826     23  2.000                                             
     1     27.2116520     23  2.000                                             
     2     -1.3605826     23  2.000                                             
  local pseudopotential read in
  partial core-charges read in
  partial kinetic energy density read in
  atomic valenz-charges read in
  non local Contribution for L=           0  read in
    real space projection operators read in
  non local Contribution for L=           0  read in
    real space projection operators read in
  non local Contribution for L=           1  read in
    real space projection operators read in
  non local Contribution for L=           1  read in
    real space projection operators read in
  non local Contribution for L=           2  read in
    real space projection operators read in
    PAW grid and wavefunctions read in
 
   number of l-projection  operators is LMAX  =           5
   number of lm-projection operators is LMMAX =          13
 
 POTCAR:    PAW_PBE Al 04Jan2001                  
   VRHFIN =Al: s2p1                                                             
   LEXCH  = PE                                                                  
   EATOM  =    53.5387 eV,    3.9350 Ry                                         
                                                                                
   TITEL  = PAW_PBE Al 04Jan2001                                                
   LULTRA =        F    use ultrasoft PP ?                                      
   IUNSCR =        1    unscreen: 0-lin 1-nonlin 2-no                           
   RPACOR =    1.500    partial core radius                                     
   POMASS =   26.981; ZVAL   =    3.000    mass and valenz                      
   RCORE  =    1.900    outmost cutoff radius                                   
   RWIGS  =    2.650; RWIGS  =    1.402    wigner-seitz radius (au A)           
   ENMAX  =  240.300; ENMIN  =  180.225 eV                                      
   ICORE  =        2    local potential                                         
   LCOR   =        T    correct aug charges                                     
   LPAW   =        T    paw PP                                                  
   EAUG   =  291.052                                                            
   DEXC   =    0.000                                                            
   RMAX   =    1.939    core radius for proj-oper                               
   RAUG   =    1.300    factor for augmentation sphere                          
   RDEP   =    1.966    radius for radial grids                                 
   RDEPT  =    1.856    core radius for aug-charge                              
                                                                                
   Atomic configuration                                                         
    6 entries                                                                   
     n  l   j            E        occ.                                          
     1  0  0.50     -1511.1048   2.0000                                         
     2  0  0.50      -108.1629   2.0000                                         
     2  1  1.50       -69.6402   6.0000                                         
     3  0  0.50        -7.7528   2.0000                                         
     3  1  1.50        -2.7121   1.0000                                         
     3  2  2.50        -2.7212   0.0000                                         
   Description                                                                  
     l       E           TYP  RCUT    TYP  RCUT                                 
     0     -7.7528455     23  1.900                                             
     0     -3.3096929     23  1.900                                             
     1     -2.7120682     23  1.900                                             
     1     13.6058260     23  1.900                                             
     2     -2.7211652      7  1.900                                             
  local pseudopotential read in
  partial core-charges read in
  partial kinetic energy density read in
  atomic valenz-charges read in
  non local Contribution for L=           0  read in
    real space projection operators read in
  non local Contribution for L=           0  read in
    real space projection operators read in
  non local Contribution for L=           1  read in
    real space projection operators read in
  non local Contribution for L=           1  read in
    real space projection operators read in
    PAW grid and wavefunctions read in
 
   number of l-projection  operators is LMAX  =           4
   number of lm-projection operators is LMMAX =           8
 

 ----------------------------------------------------------------------------- 
|                                                                             |
|  ADVICE TO THIS USER RUNNING 'VASP/VAMP'   (HEAR YOUR MASTER'S VOICE ...):  |
|                                                                             |
|      You have a (more or less) 'large supercell' and for larger cells       |
|      it might be more efficient to use real space projection opertators     |
|      So try LREAL= Auto  in the INCAR   file.                               |
|      Mind: At the moment your POTCAR file does not contain real space       |
|       projectors, and has to be modified,  BUT if you                       |
|      want to do an extremely  accurate calculation you might also keep the  |
|      reciprocal projection scheme          (i.e. LREAL=.FALSE.)             |
|                                                                             |
 ----------------------------------------------------------------------------- 

  PAW_PBE O 08Apr2002                   :
 energy of atom  1       EATOM= -432.3788
 kinetic energy error for atom=    0.0208 (will be added to EATOM!!)
  PAW_PBE Mg 13Apr2007                  :
 energy of atom  2       EATOM=  -23.0369
 kinetic energy error for atom=    0.0000 (will be added to EATOM!!)
  PAW_PBE Al 04Jan2001                  :
 energy of atom  3       EATOM=  -53.5387
 kinetic energy error for atom=    0.0002 (will be added to EATOM!!)
 
 
 POSCAR: OT hollow                               
  positions in direct lattice
  velocities in cartesian coordinates
 exchange correlation table for  LEXCH =        8
   RHO(1)=    0.500       N(1)  =     2000
   RHO(2)=  100.500       N(2)  =     4000
 


--------------------------------------------------------------------------------------------------------


 ion  position               nearest neighbor table
   1  0.507  0.493  0.244-  21 2.10  21 2.10  14 2.10  14 2.15  14 2.15
   2  0.506  0.494  0.432-  15 2.13  15 2.13  16 2.13  16 2.13  16 2.17  15 2.17
   3  0.494  0.506  0.620-  18 2.13  18 2.13  17 2.13  17 2.13  17 2.17  18 2.17
   4  0.493  0.507  0.808-  24 2.10  24 2.10  19 2.10  19 2.15  19 2.15
   5  0.849  0.151  0.307-  14 2.12  14 2.12  11 2.13  11 2.13  11 2.17  14 2.17
   6  0.177  0.823  0.369-  11 2.13  11 2.13  15 2.13  15 2.13  11 2.17  15 2.17
   7  0.835  0.165  0.495-  12 2.13  12 2.13  16 2.13  16 2.13  12 2.17  16 2.17
   8  0.165  0.835  0.557-  12 2.13  12 2.13  17 2.13  17 2.13  12 2.17  17 2.17
   9  0.823  0.177  0.683-  13 2.13  13 2.13  18 2.13  18 2.13  13 2.17  18 2.17
  10  0.151  0.849  0.745-  19 2.12  19 2.12  13 2.13  13 2.13  13 2.17  19 2.17
  11  0.513  0.487  0.338-   6 2.13   6 2.13   5 2.13   5 2.13   6 2.17   5 2.17  15 3.07  15 3.07
                            14 3.07  14 3.07  14 3.07  15 3.08
  12  0.500  0.500  0.526-   8 2.13   8 2.13   7 2.13   7 2.13   8 2.17   7 2.17  17 3.07  17 3.07
                            16 3.07  16 3.07  17 3.07  16 3.07
  13  0.487  0.513  0.714-   9 2.13   9 2.13  10 2.13  10 2.13   9 2.17  10 2.17  18 3.07  18 3.07
                            19 3.07  19 3.07  19 3.07  18 3.08
  14  0.185  0.815  0.275-   1 2.10   5 2.12   5 2.12   1 2.15   1 2.15   5 2.17  21 2.95  11 3.07
                            11 3.07  11 3.07  21 3.51  21 3.51
  15  0.842  0.158  0.401-   2 2.13   2 2.13   6 2.13   6 2.13   2 2.17   6 2.17  16 3.07  16 3.07
                            11 3.07  11 3.07  16 3.08  11 3.08
  16  0.171  0.829  0.463-   7 2.13   7 2.13   2 2.13   2 2.13   2 2.17   7 2.17  12 3.07  12 3.07
                            15 3.07  15 3.07  12 3.07  15 3.08
  17  0.829  0.171  0.589-   3 2.13   3 2.13   8 2.13   8 2.13   3 2.17   8 2.17  12 3.07  12 3.07
                            18 3.07  18 3.07  12 3.07  18 3.08
  18  0.158  0.842  0.651-   3 2.13   3 2.13   9 2.13   9 2.13   3 2.17   9 2.17  17 3.07  17 3.07
                            13 3.07  13 3.07  17 3.08  13 3.08
  19  0.815  0.185  0.777-   4 2.10  10 2.12  10 2.12   4 2.15   4 2.15  10 2.17  24 2.95  13 3.07
                            13 3.07  13 3.07  24 3.51  24 3.51
  20  0.000  1.000  0.026-  23 3.01  23 3.01  23 3.01  25 3.01  25 3.01  25 3.01
  21  0.991  0.009  0.207-   1 2.10   1 2.10  22 2.89  14 2.95  22 2.99  22 2.99  14 3.51  14 3.51

  22  0.684  0.316  0.148-  21 2.89  21 2.99  21 2.99  23 2.99  23 2.99  23 3.12
  23  0.328  0.672  0.087-  22 2.99  22 2.99  20 3.01  20 3.01  20 3.01  22 3.12
  24  0.009  0.991  0.845-   4 2.10   4 2.10  26 2.89  19 2.95  26 2.99  26 2.99  19 3.51  19 3.51

  25  0.672  0.328  0.965-  26 2.99  26 2.99  20 3.01  20 3.01  20 3.01  26 3.12
  26  0.316  0.684  0.904-  24 2.89  24 2.99  24 2.99  25 2.99  25 2.99  25 3.12
 
  LATTYP: Found a base centered monoclinic cell.
 ALAT       =     5.2353752010
 B/A-ratio  =     0.5612349741
 C/A-ratio  =     7.8174891180
 COS(beta)  =    -0.1096963697
  
  Lattice vectors:
  
 A1 = (  -2.5811541393,   1.5324138014,  -0.0027477724)
 A2 = (  -0.0365325771,   3.0015513009,  -0.0027477717)
 A3 = (   2.5954821263,  -4.4955056313, -40.5969608449)


Analysis of symmetry for initial positions (statically):
=====================================================================
 Subroutine PRICEL returns:
 Original cell was already a primitive cell.
 

 Routine SETGRP: Setting up the symmetry group for a 
 base centered monoclinic supercell.


 Subroutine GETGRP returns: Found  2 space group operations
 (whereof  2 operations were pure point group operations)
 out of a pool of  4 trial point group operations.


The static configuration has the point symmetry C_1h.


Analysis of symmetry for dynamics (positions and initial velocities):
=====================================================================
 Subroutine PRICEL returns:
 Original cell was already a primitive cell.
 

 Routine SETGRP: Setting up the symmetry group for a 
 base centered monoclinic supercell.


 Subroutine GETGRP returns: Found  2 space group operations
 (whereof  2 operations were pure point group operations)
 out of a pool of  4 trial point group operations.


The dynamic configuration has the point symmetry C_1h.


Analysis of constrained symmetry for selective dynamics:
=====================================================================
 Subroutine PRICEL returns:
 Original cell was already a primitive cell.
 

 Routine SETGRP: Setting up the symmetry group for a 
 base centered monoclinic supercell.


 Subroutine GETGRP returns: Found  2 space group operations
 (whereof  2 operations were pure point group operations)
 out of a pool of  4 trial point group operations.


The constrained configuration has the point symmetry C_1h.
 
 
 KPOINTS: K-Spacing Value to Generate K-Mesh: 0.02

Automatic generation of k-mesh.
Space group operators:
 irot       det(A)        alpha          n_x          n_y          n_z        tau_x        tau_y        tau_z
    1     1.000000     0.000001     1.000000     0.000000     0.000000     0.000000     0.000000     0.000000
    2    -1.000000   179.999999     0.866025     0.500000     0.000000     0.000000     0.000000     0.000000
 
 Subroutine IBZKPT returns following result:
 ===========================================
 
 Found     49 irreducible k-points:
 
 Following reciprocal coordinates:
            Coordinates               Weight
  0.000000  0.000000  0.000000      1.000000
  0.076923  0.000000  0.000000      4.000000
  0.153846  0.000000  0.000000      4.000000
  0.230769  0.000000  0.000000      4.000000
  0.307692  0.000000  0.000000      4.000000
  0.384615  0.000000  0.000000      4.000000
  0.461538  0.000000  0.000000      4.000000
  0.076923  0.076923  0.000000      2.000000
  0.153846  0.076923  0.000000      4.000000
  0.230769  0.076923  0.000000      4.000000
  0.307692  0.076923  0.000000      4.000000
  0.384615  0.076923  0.000000      4.000000
  0.461538  0.076923  0.000000      4.000000
 -0.461538  0.076923 -0.000000      4.000000
 -0.384615  0.076923  0.000000      4.000000
 -0.307692  0.076923 -0.000000      4.000000
 -0.230769  0.076923 -0.000000      4.000000
 -0.153846  0.076923  0.000000      4.000000
 -0.076923  0.076923  0.000000      2.000000
  0.153846  0.153846  0.000000      2.000000
  0.230769  0.153846  0.000000      4.000000
  0.307692  0.153846  0.000000      4.000000
  0.384615  0.153846  0.000000      4.000000
  0.461538  0.153846  0.000000      4.000000
 -0.461538  0.153846  0.000000      4.000000
 -0.384615  0.153846  0.000000      4.000000
 -0.307692  0.153846 -0.000000      4.000000
 -0.230769  0.153846 -0.000000      4.000000
 -0.153846  0.153846  0.000000      2.000000
  0.230769  0.230769 -0.000000      2.000000
  0.307692  0.230769  0.000000      4.000000
  0.384615  0.230769 -0.000000      4.000000
  0.461538  0.230769  0.000000      4.000000
 -0.461538  0.230769 -0.000000      4.000000
 -0.384615  0.230769 -0.000000      4.000000
 -0.307692  0.230769 -0.000000      4.000000
 -0.230769  0.230769 -0.000000      2.000000
  0.307692  0.307692  0.000000      2.000000
  0.384615  0.307692  0.000000      4.000000
  0.461538  0.307692 -0.000000      4.000000
 -0.461538  0.307692 -0.000000      4.000000
 -0.384615  0.307692  0.000000      4.000000
 -0.307692  0.307692 -0.000000      2.000000
  0.384615  0.384615 -0.000000      2.000000
  0.461538  0.384615 -0.000000      4.000000
 -0.461538  0.384615  0.000000      4.000000
 -0.384615  0.384615  0.000000      2.000000
  0.461538  0.461538 -0.000000      2.000000
 -0.461538  0.461538 -0.000000      2.000000
 
 Following cartesian coordinates:
            Coordinates               Weight
  0.000000  0.000000  0.000000      1.000000
  0.030019  0.000365 -0.000016      4.000000
  0.060037  0.000731 -0.000032      4.000000
  0.090056  0.001096 -0.000048      4.000000
  0.120075  0.001461 -0.000064      4.000000
  0.150094  0.001827 -0.000080      4.000000
  0.180112  0.002192 -0.000096      4.000000
  0.045345  0.026180  0.000000      2.000000
  0.075363  0.026545 -0.000016      4.000000
  0.105382  0.026910 -0.000032      4.000000
  0.135401  0.027276 -0.000048      4.000000
  0.165419  0.027641 -0.000064      4.000000
  0.195438  0.028006 -0.000080      4.000000
 -0.164787  0.023622  0.000112      4.000000
 -0.134768  0.023988  0.000096      4.000000
 -0.104749  0.024353  0.000080      4.000000
 -0.074730  0.024718  0.000064      4.000000
 -0.044712  0.025084  0.000048      4.000000
 -0.014693  0.025449  0.000032      2.000000
  0.090689  0.052359  0.000000      2.000000
  0.120708  0.052725 -0.000016      4.000000
  0.150726  0.053090 -0.000032      4.000000
  0.180745  0.053455 -0.000048      4.000000
  0.210764  0.053821 -0.000064      4.000000
 -0.149461  0.049437  0.000129      4.000000
 -0.119442  0.049802  0.000112      4.000000
 -0.089423  0.050167  0.000096      4.000000
 -0.059405  0.050533  0.000080      4.000000
 -0.029386  0.050898  0.000064      2.000000
  0.136034  0.078539  0.000000      2.000000
  0.166052  0.078904 -0.000016      4.000000
  0.196071  0.079270 -0.000032      4.000000
  0.226090  0.079635 -0.000048      4.000000
 -0.134135  0.075251  0.000145      4.000000
 -0.104116  0.075616  0.000129      4.000000
 -0.074098  0.075982  0.000112      4.000000
 -0.044079  0.076347  0.000096      2.000000
  0.181378  0.104719  0.000000      2.000000
  0.211397  0.105084 -0.000016      4.000000
  0.241416  0.105449 -0.000032      4.000000
 -0.118809  0.101065  0.000161      4.000000
 -0.088791  0.101431  0.000145      4.000000
 -0.058772  0.101796  0.000129      2.000000
  0.226723  0.130898  0.000000      2.000000
  0.256741  0.131264 -0.000016      4.000000
 -0.103484  0.126880  0.000177      4.000000
 -0.073465  0.127245  0.000161      2.000000
  0.272067  0.157078  0.000000      2.000000
 -0.088158  0.152694  0.000193      2.000000
 


--------------------------------------------------------------------------------------------------------




 Dimension of arrays:
   k-points           NKPTS =     49   k-points in BZ     NKDIM =     49   number of bands    NBANDS=     64
   number of dos      NEDOS =    301   number of ions     NIONS =     26
   non local maximal  LDIM  =      5   non local SUM 2l+1 LMDIM =     13
   total plane-waves  NPLWV = 184320
   max r-space proj   IRMAX =      1   max aug-charges    IRDMAX= 200754
   dimension x,y,z NGX =    24 NGY =   24 NGZ =  320
   dimension x,y,z NGXF=    48 NGYF=   48 NGZF=  640
   support grid    NGXF=    96 NGYF=   96 NGZF= 1280
   ions per type =              10   9   7
 NGX,Y,Z   is equivalent  to a cutoff of  13.29, 13.29, 13.10 a.u.
 NGXF,Y,Z  is equivalent  to a cutoff of  26.58, 26.58, 26.20 a.u.


 I would recommend the setting:
   dimension x,y,z NGX =    22 NGY =   22 NGZ =  302
 SYSTEM =  unknown system                          
 POSCAR =  OT hollow                               

 Startparameter for this run:
   NWRITE =      2    write-flag & timer
   PREC   = accura    normal or accurate (medium, high low for compatibility)
   ISTART =      0    job   : 0-new  1-cont  2-samecut
   ICHARG =      2    charge: 1-file 2-atom 10-const
   ISPIN  =      1    spin polarized calculation?
   LNONCOLLINEAR =      F non collinear calculations
   LSORBIT =      F    spin-orbit coupling
   INIWAV =      1    electr: 0-lowe 1-rand  2-diag
   LASPH  =      F    aspherical Exc in radial PAW
   METAGGA=      F    non-selfconsistent MetaGGA calc.

 Electronic Relaxation 1
   ENCUT  =  520.0 eV  38.22 Ry    6.18 a.u.   5.58  5.58 75.49*2*pi/ulx,y,z
   ENINI  =  520.0     initial cutoff
   ENAUG  =  605.4 eV  augmentation charge cutoff
   NELM   =    100;   NELMIN=  6; NELMDL=  0     # of ELM steps 
   EDIFF  = 0.1E-04   stopping-criterion for ELM
   LREAL  =      F    real-space projection
   NLSPLINE    = F    spline interpolate recip. space projectors
   LCOMPAT=      F    compatible to vasp.4.4
   GGA_COMPAT  = T    GGA compatible to vasp.4.4-vasp.4.6
   LMAXPAW     = -100 max onsite density
   LMAXMIX     =    2 max onsite mixed and CHGCAR
   VOSKOWN=      0    Vosko Wilk Nusair interpolation
   ROPT   =    0.00000   0.00000   0.00000
 Ionic relaxation
   EDIFFG = -.2E-01   stopping-criterion for IOM
   NSW    =    500    number of steps for IOM
   NBLOCK =      1;   KBLOCK =    500    inner block; outer block 
   IBRION =      2    ionic relax: 0-MD 1-quasi-New 2-CG
   NFREE  =      1    steps in history (QN), initial steepest desc. (CG)
   ISIF   =      2    stress and relaxation
   IWAVPR =     11    prediction:  0-non 1-charg 2-wave 3-comb
   ISYM   =      2    0-nonsym 1-usesym 2-fastsym
   LCORR  =      T    Harris-Foulkes like correction to forces

   POTIM  = 0.5000    time-step for ionic-motion
   TEIN   =    0.0    initial temperature
   TEBEG  =    0.0;   TEEND  =   0.0 temperature during run
   SMASS  =  -3.00    Nose mass-parameter (am)
   estimated Nose-frequenzy (Omega)   =  0.10E-29 period in steps =****** mass=  -0.206E-27a.u.
   SCALEE = 1.0000    scale energy and forces
   NPACO  =    256;   APACO  = 16.0  distance and # of slots for P.C.
   PSTRESS=    0.0 pullay stress

  Mass of Ions in am
   POMASS =  16.00 24.30 26.98
  Ionic Valenz
   ZVAL   =   6.00  2.00  3.00
  Atomic Wigner-Seitz radii
   RWIGS  =  -1.00 -1.00 -1.00
  virtual crystal weights 
   VCA    =   1.00  1.00  1.00
   NELECT =      99.0000    total number of electrons
   NUPDOWN=      -1.0000    fix difference up-down

 DOS related values:
   EMIN   =  10.00;   EMAX   =-10.00  energy-range for DOS
   EFERMI =   0.00
   ISMEAR =     0;   SIGMA  =   0.05  broadening in eV -4-tet -1-fermi 0-gaus

 Electronic relaxation 2 (details)
   IALGO  =     38    algorithm
   LDIAG  =      T    sub-space diagonalisation (order eigenvalues)
   LSUBROT=      F    optimize rotation matrix (better conditioning)
   TURBO    =      0    0=normal 1=particle mesh
   IRESTART =      0    0=no restart 2=restart with 2 vectors
   NREBOOT  =      0    no. of reboots
   NMIN     =      0    reboot dimension
   EREF     =   0.00    reference energy to select bands
   IMIX   =      4    mixing-type and parameters
     AMIX     =   0.40;   BMIX     =  1.00
     AMIX_MAG =   1.60;   BMIX_MAG =  1.00
     AMIN     =   0.01
     WC   =   100.;   INIMIX=   1;  MIXPRE=   1;  MAXMIX= -45

 Intra band minimization:
   WEIMIN = 0.0010     energy-eigenvalue tresh-hold
   EBREAK =  0.39E-07  absolut break condition
   DEPER  =   0.30     relativ break condition  

   TIME   =   0.40     timestep for ELM

  volume/ion in A,a.u.               =      12.01        81.06
  Fermi-wavevector in a.u.,A,eV,Ry     =   1.116261  2.109428 16.953398  1.246040
  Thomas-Fermi vector in A             =   2.252874
 
 Write flags
   LWAVE  =      F    write WAVECAR
   LCHARG =      T    write CHGCAR
   LVTOT  =      F    write LOCPOT, total local potential
   LVHAR  =      F    write LOCPOT, Hartree potential only
   LELF   =      F    write electronic localiz. function (ELF)
   LORBIT =      0    0 simple, 1 ext, 2 COOP (PROOUT)


 Dipole corrections
   LMONO  =      F    monopole corrections only (constant potential shift)
   LDIPOL =      F    correct potential (dipole corrections)
   IDIPOL =      0    1-x, 2-y, 3-z, 4-all directions 
   EPSILON=  1.0000000 bulk dielectric constant

 Exchange correlation treatment:
   GGA     =    --    GGA type
   LEXCH   =     8    internal setting for exchange type
   VOSKOWN=      0    Vosko Wilk Nusair interpolation
   LHFCALC =     F    Hartree Fock is set to
   LHFONE  =     F    Hartree Fock one center treatment
   AEXX    =    0.0000 exact exchange contribution

 Linear response parameters
   LEPSILON=     F    determine dielectric tensor
   LRPA    =     F    only Hartree local field effects (RPA)
   LNABLA  =     F    use nabla operator in PAW spheres
   LVEL    =     F    velocity operator in full k-point grid
   LINTERFAST=   F  fast interpolation
   KINTER  =     0    interpolate to denser k-point grid
   CSHIFT  =0.1000    complex shift for real part using Kramers Kronig
   OMEGAMAX=  -1.0    maximum frequency
   DEG_THRESHOLD= 0.2000000E-02 threshold for treating states as degnerate
   RTIME   =    0.100 relaxation time in fs

 Orbital magnetization related:
   ORBITALMAG=     F  switch on orbital magnetization
   LCHIMAG   =     F  perturbation theory with respect to B field
   DQ        =  0.001000  dq finite difference perturbation B field



--------------------------------------------------------------------------------------------------------


 conjugate gradient relaxation of ions
   using selective dynamics as specified on POSCAR
 charge density and potential will be updated during run
 non-spin polarized calculation
 Variant of blocked Davidson
 Davidson routine will perform the subspace rotation
 perform sub-space diagonalisation
    after iterative eigenvector-optimisation
 modified Broyden-mixing scheme, WC =      100.0
 initial mixing is a Kerker type mixing with AMIX =  0.4000 and BMIX =      1.0000
 Hartree-type preconditioning will be used
 using additional bands           14
 reciprocal scheme for non local part
 use partial core corrections
 calculate Harris-corrections to forces 
   (improved forces if not selfconsistent)
 use gradient corrections 
 use of overlap-Matrix (Vanderbilt PP)
 Gauss-broadening in eV      SIGMA  =   0.05


--------------------------------------------------------------------------------------------------------


  energy-cutoff  :      520.00
  volume of cell :      312.29
      direct lattice vectors                 reciprocal lattice vectors
     2.581154139 -1.532413801  0.002747772     0.390243589  0.004749554 -0.000208917
    -0.036532577  3.001551301 -0.002747772     0.199235031  0.335586183  0.000208917
     0.022204590 -0.038459471 40.602456389    -0.000012927  0.000022389  0.024629080

  length of vectors
     3.001775525  3.001774874 40.602480675     0.390272547  0.390272632  0.024629094


 
 k-points in units of 2pi/SCALE and weight: K-Spacing Value to Generate K-Mesh: 0.02
   0.00000000  0.00000000  0.00000000       0.006
   0.03001874  0.00036535 -0.00001607       0.024
   0.06003748  0.00073070 -0.00003214       0.024
   0.09005621  0.00109605 -0.00004821       0.024
   0.12007495  0.00146140 -0.00006428       0.024
   0.15009369  0.00182675 -0.00008035       0.024
   0.18011243  0.00219210 -0.00009642       0.024
   0.04534451  0.02617967  0.00000000       0.012
   0.07536325  0.02654502 -0.00001607       0.024
   0.10538198  0.02691037 -0.00003214       0.024
   0.13540072  0.02727572 -0.00004821       0.024
   0.16541946  0.02764107 -0.00006428       0.024
   0.19543820  0.02800642 -0.00008035       0.024
  -0.16478665  0.02362222  0.00011249       0.024
  -0.13476792  0.02398757  0.00009642       0.024
  -0.10474918  0.02435292  0.00008035       0.024
  -0.07473044  0.02471827  0.00006428       0.024
  -0.04471170  0.02508362  0.00004821       0.024
  -0.01469297  0.02544897  0.00003214       0.012
   0.09068902  0.05235934  0.00000000       0.012
   0.12070776  0.05272469 -0.00001607       0.024
   0.15072649  0.05309004 -0.00003214       0.024
   0.18074523  0.05345540 -0.00004821       0.024
   0.21076397  0.05382075 -0.00006428       0.024
  -0.14946088  0.04943654  0.00012856       0.024
  -0.11944215  0.04980189  0.00011249       0.024
  -0.08942341  0.05016724  0.00009642       0.024
  -0.05940467  0.05053259  0.00008035       0.024
  -0.02938593  0.05089794  0.00006428       0.012
   0.13603353  0.07853902  0.00000000       0.012
   0.16605227  0.07890437 -0.00001607       0.024
   0.19607100  0.07926972 -0.00003214       0.024
   0.22608974  0.07963507 -0.00004821       0.024
  -0.13413511  0.07525086  0.00014463       0.024
  -0.10411637  0.07561621  0.00012856       0.024
  -0.07409764  0.07598156  0.00011249       0.024
  -0.04407890  0.07634691  0.00009642       0.012
   0.18137804  0.10471869  0.00000000       0.012
   0.21139677  0.10508404 -0.00001607       0.024
   0.24141551  0.10544939 -0.00003214       0.024
  -0.11880934  0.10106519  0.00016071       0.024
  -0.08879060  0.10143054  0.00014463       0.024
  -0.05877186  0.10179589  0.00012856       0.012
   0.22672255  0.13089836  0.00000000       0.012
   0.25674128  0.13126371 -0.00001607       0.024
  -0.10348357  0.12687951  0.00017678       0.024
  -0.07346483  0.12724486  0.00016071       0.012
   0.27206706  0.15707803  0.00000000       0.012
  -0.08815780  0.15269383  0.00019285       0.012
 
 k-points in reciprocal lattice and weights: K-Spacing Value to Generate K-Mesh: 0.02
   0.00000000  0.00000000  0.00000000       0.006
   0.07692308  0.00000000  0.00000000       0.024
   0.15384615  0.00000000  0.00000000       0.024
   0.23076923  0.00000000  0.00000000       0.024
   0.30769231  0.00000000  0.00000000       0.024
   0.38461538  0.00000000  0.00000000       0.024
   0.46153846  0.00000000  0.00000000       0.024
   0.07692308  0.07692308  0.00000000       0.012
   0.15384615  0.07692308  0.00000000       0.024
   0.23076923  0.07692308  0.00000000       0.024
   0.30769231  0.07692308  0.00000000       0.024
   0.38461538  0.07692308  0.00000000       0.024
   0.46153846  0.07692308  0.00000000       0.024
  -0.46153846  0.07692308 -0.00000000       0.024
  -0.38461538  0.07692308  0.00000000       0.024
  -0.30769231  0.07692308 -0.00000000       0.024
  -0.23076923  0.07692308 -0.00000000       0.024
  -0.15384615  0.07692308  0.00000000       0.024
  -0.07692308  0.07692308  0.00000000       0.012
   0.15384615  0.15384615  0.00000000       0.012
   0.23076923  0.15384615  0.00000000       0.024
   0.30769231  0.15384615  0.00000000       0.024
   0.38461538  0.15384615  0.00000000       0.024
   0.46153846  0.15384615  0.00000000       0.024
  -0.46153846  0.15384615  0.00000000       0.024
  -0.38461538  0.15384615  0.00000000       0.024
  -0.30769231  0.15384615 -0.00000000       0.024
  -0.23076923  0.15384615 -0.00000000       0.024
  -0.15384615  0.15384615  0.00000000       0.012
   0.23076923  0.23076923 -0.00000000       0.012
   0.30769231  0.23076923  0.00000000       0.024
   0.38461538  0.23076923 -0.00000000       0.024
   0.46153846  0.23076923  0.00000000       0.024
  -0.46153846  0.23076923 -0.00000000       0.024
  -0.38461538  0.23076923 -0.00000000       0.024
  -0.30769231  0.23076923 -0.00000000       0.024
  -0.23076923  0.23076923 -0.00000000       0.012
   0.30769231  0.30769231  0.00000000       0.012
   0.38461538  0.30769231  0.00000000       0.024
   0.46153846  0.30769231 -0.00000000       0.024
  -0.46153846  0.30769231 -0.00000000       0.024
  -0.38461538  0.30769231  0.00000000       0.024
  -0.30769231  0.30769231 -0.00000000       0.012
   0.38461538  0.38461538 -0.00000000       0.012
   0.46153846  0.38461538 -0.00000000       0.024
  -0.46153846  0.38461538  0.00000000       0.024
  -0.38461538  0.38461538  0.00000000       0.012
   0.46153846  0.46153846 -0.00000000       0.012
  -0.46153846  0.46153846 -0.00000000       0.012
 
 position of ions in fractional coordinates (direct lattice) 
   0.50697782  0.49302218  0.24422400
   0.50636016  0.49363984  0.43207206
   0.49363094  0.50636906  0.62000593
   0.49301978  0.50698022  0.80784648
   0.84860841  0.15139159  0.30665392
   0.17727645  0.82272355  0.36937652
   0.83545522  0.16454478  0.49474145
   0.16453439  0.83546561  0.55733663
   0.82271973  0.17728027  0.68269651
   0.15137951  0.84862049  0.74541770
   0.51289265  0.48710735  0.33805419
   0.49999695  0.50000305  0.52604406
   0.48709941  0.51290059  0.71401694
   0.18525548  0.81474452  0.27534608
   0.84183881  0.15816119  0.40073942
   0.17091615  0.82908385  0.46340747
   0.82907500  0.17092500  0.58867276
   0.15815599  0.84184401  0.65133726
   0.81473656  0.18526344  0.77672139
   0.00001675  0.99998325  0.02603954
   0.99075897  0.00924103  0.20733090
   0.68423172  0.31576828  0.14822920
   0.32774740  0.67225260  0.08676500
   0.00925348  0.99074652  0.84473774
   0.67227751  0.32772249  0.96531258
   0.31578478  0.68421522  0.90384128
 
 position of ions in cartesian coordinates  (Angst):
   1.29599942  0.69353883  9.91613257
   1.29855366  0.68911475 17.54322176
   1.26940555  0.73960075 25.17372877
   1.27197664  0.73514749 32.80051299
   2.19166751 -0.85780337 12.45281824
   0.43572347  2.18358006 14.99582061
   2.16141298 -0.80540100 20.08956181
   0.40654234  2.23412325 22.62739265
   2.13224893 -0.75488740 27.72092879
   0.37628324  2.28653353 30.26387383
   1.31356605  0.66311255 13.72590125
   1.28398339  0.71435120 21.35868116
   1.25439554  0.76559885 28.99077060
   0.45452217  2.15101977 11.17799736
   2.17603594 -0.83072869 16.27288348
   0.42116212  2.20880105 18.81367324
   2.14679727 -0.78008585 23.90336850
   0.39193292  2.25942750 26.44401390
   2.11343927 -0.72230812 31.53852588
  -0.03591053  3.00047389  1.05452172
   2.56156772 -1.49848914  8.42084093
   1.75786308 -0.10643227  6.01948197
   0.82333403  1.51221907  3.52192532
   0.00644720  2.92710817 34.29573047
   1.74471370 -0.08365688 39.19500879
   0.81016247  1.53503288 36.69716360
 


--------------------------------------------------------------------------------------------------------


 k-point  1 :   0.0000 0.0000 0.0000  plane waves:    8529
 k-point  2 :   0.0769 0.0000 0.0000  plane waves:    8523
 k-point  3 :   0.1538 0.0000 0.0000  plane waves:    8491
 k-point  4 :   0.2308 0.0000 0.0000  plane waves:    8423
 k-point  5 :   0.3077 0.0000 0.0000  plane waves:    8424
 k-point  6 :   0.3846 0.0000 0.0000  plane waves:    8395
 k-point  7 :   0.4615 0.0000 0.0000  plane waves:    8340
 k-point  8 :   0.0769 0.0769 0.0000  plane waves:    8497
 k-point  9 :   0.1538 0.0769 0.0000  plane waves:    8435
 k-point 10 :   0.2308 0.0769 0.0000  plane waves:    8420
 k-point 11 :   0.3077 0.0769 0.0000  plane waves:    8385
 k-point 12 :   0.3846 0.0769 0.0000  plane waves:    8346
 k-point 13 :   0.4615 0.0769 0.0000  plane waves:    8345
 k-point 14 :  -0.4615 0.0769-0.0000  plane waves:    8392
 k-point 15 :  -0.3846 0.0769 0.0000  plane waves:    8403
 k-point 16 :  -0.3077 0.0769-0.0000  plane waves:    8443
 k-point 17 :  -0.2308 0.0769-0.0000  plane waves:    8465
 k-point 18 :  -0.1538 0.0769 0.0000  plane waves:    8516
 k-point 19 :  -0.0769 0.0769 0.0000  plane waves:    8529
 k-point 20 :   0.1538 0.1538 0.0000  plane waves:    8383
 k-point 21 :   0.2308 0.1538 0.0000  plane waves:    8406
 k-point 22 :   0.3077 0.1538 0.0000  plane waves:    8375
 k-point 23 :   0.3846 0.1538 0.0000  plane waves:    8349
 k-point 24 :   0.4615 0.1538 0.0000  plane waves:    8331
 k-point 25 :  -0.4615 0.1538 0.0000  plane waves:    8403
 k-point 26 :  -0.3846 0.1538 0.0000  plane waves:    8420
 k-point 27 :  -0.3077 0.1538-0.0000  plane waves:    8438
 k-point 28 :  -0.2308 0.1538-0.0000  plane waves:    8495
 k-point 29 :  -0.1538 0.1538 0.0000  plane waves:    8513
 k-point 30 :   0.2308 0.2308-0.0000  plane waves:    8371
 k-point 31 :   0.3077 0.2308 0.0000  plane waves:    8371
 k-point 32 :   0.3846 0.2308-0.0000  plane waves:    8376
 k-point 33 :   0.4615 0.2308 0.0000  plane waves:    8388
 k-point 34 :  -0.4615 0.2308-0.0000  plane waves:    8412
 k-point 35 :  -0.3846 0.2308-0.0000  plane waves:    8402
 k-point 36 :  -0.3077 0.2308-0.0000  plane waves:    8426
 k-point 37 :  -0.2308 0.2308-0.0000  plane waves:    8499
 k-point 38 :   0.3077 0.3077 0.0000  plane waves:    8388
 k-point 39 :   0.3846 0.3077 0.0000  plane waves:    8398
 k-point 40 :   0.4615 0.3077-0.0000  plane waves:    8394
 k-point 41 :  -0.4615 0.3077-0.0000  plane waves:    8400
 k-point 42 :  -0.3846 0.3077 0.0000  plane waves:    8370
 k-point 43 :  -0.3077 0.3077-0.0000  plane waves:    8408
 k-point 44 :   0.3846 0.3846-0.0000  plane waves:    8392
 k-point 45 :   0.4615 0.3846-0.0000  plane waves:    8373
 k-point 46 :  -0.4615 0.3846 0.0000  plane waves:    8365
 k-point 47 :  -0.3846 0.3846 0.0000  plane waves:    8355
 k-point 48 :   0.4615 0.4615-0.0000  plane waves:    8358
 k-point 49 :  -0.4615 0.4615-0.0000  plane waves:    8328

 maximum and minimum number of plane-waves per node :      2147     2059

 maximum number of plane-waves:      8529
 maximum index in each direction: 
   IXMAX=    6   IYMAX=    5   IZMAX=   75
   IXMIN=   -6   IYMIN=   -6   IZMIN=  -75

 WARNING: aliasing errors must be expected set NGX to  26 to avoid them
 NGY is ok and might be reduce to  24
 NGZ is ok and might be reduce to 302
 aliasing errors are usually negligible using standard VASP settings
 and one can safely disregard these warnings

 parallel 3D FFT for wavefunctions:
    minimum data exchange during FFTs selected (reduces bandwidth)
 parallel 3D FFT for charge:
    minimum data exchange during FFTs selected (reduces bandwidth)


 total amount of memory used by VASP on root node   196620. kBytes
========================================================================

   base      :      30000. kBytes
   nonl-proj :      33732. kBytes
   fftplans  :      55170. kBytes
   grid      :      22118. kBytes
   one-center:         56. kBytes
   wavefun   :      55544. kBytes
 
     INWAV:  cpu time    0.00: real time    0.00
 Broyden mixing: mesh for mixing (old mesh)
   NGX = 11   NGY = 11   NGZ =151
  (NGX  = 48   NGY  = 48   NGZ  =640)
  gives a total of  18271 points

 initial charge density was supplied:
 charge density of overlapping atoms calculated
 number of electron      99.0000000 magnetization 
 keeping initial charge density in first step


--------------------------------------------------------------------------------------------------------


 Maximum index for augmentation-charges        24336 (set IRDMAX)


--------------------------------------------------------------------------------------------------------


 First call to EWALD:  gamma=   0.261
 Maximum number of real-space cells 6x 6x 1
 Maximum number of reciprocal cells 1x 1x14

 FEWALD executed in parallel
    FEWALD:  cpu time    0.00: real time    0.00


----------------------------------------- Iteration    1(   1)  ---------------------------------------


    POTLOK:  cpu time    0.10: real time    0.10
    SETDIJ:  cpu time    0.10: real time    0.10
     EDDAV:  cpu time    9.37: real time    9.40
       DOS:  cpu time    0.00: real time    0.00
    --------------------------------------------
      LOOP:  cpu time    9.58: real time    9.62

 eigenvalue-minimisations  :  6288
 total energy-change (2. order) : 0.5006580E+03  (-0.4447068E+04)
 number of electron      99.0000000 magnetization 
 augmentation part       99.0000000 magnetization 

 Free energy of the ion-electron system (eV)
  ---------------------------------------------------
  alpha Z        PSCENC =       135.13487502
  Ewald energy   TEWEN  =      9396.05749711
  -Hartree energ DENC   =    -14587.99491901
  -exchange      EXHF   =         0.00000000
  -V(xc)+E(xc)   XCENC  =      -342.45987366
  PAW double counting   =      4516.65612620    -3844.19644948
  entropy T*S    EENTRO =        -0.00339449
  eigenvalues    EBANDS =       321.78327434
  atomic energy  EATOM  =      4905.68083858
  ---------------------------------------------------
  free energy    TOTEN  =       500.65797460 eV

  energy without entropy =      500.66136909  energy(sigma->0) =      500.65967185


--------------------------------------------------------------------------------------------------------




----------------------------------------- Iteration    1(   2)  ---------------------------------------


     EDDAV:  cpu time   11.03: real time   11.04
       DOS:  cpu time    0.00: real time    0.00
    --------------------------------------------
      LOOP:  cpu time   11.04: real time   11.05

 eigenvalue-minimisations  :  8136
 total energy-change (2. order) :-0.6033492E+03  (-0.5757540E+03)
 number of electron      99.0000000 magnetization 
 augmentation part       99.0000000 magnetization 

 Free energy of the ion-electron system (eV)
  ---------------------------------------------------
  alpha Z        PSCENC =       135.13487502
  Ewald energy   TEWEN  =      9396.05749711
  -Hartree energ DENC   =    -14587.99491901
  -exchange      EXHF   =         0.00000000
  -V(xc)+E(xc)   XCENC  =      -342.45987366
  PAW double counting   =      4516.65612620    -3844.19644948
  entropy T*S    EENTRO =        -0.00219680
  eigenvalues    EBANDS =      -281.56707686
  atomic energy  EATOM  =      4905.68083858
  ---------------------------------------------------
  free energy    TOTEN  =      -102.69117890 eV

  energy without entropy =     -102.68898210  energy(sigma->0) =     -102.69008050


--------------------------------------------------------------------------------------------------------




----------------------------------------- Iteration    1(   3)  ---------------------------------------


     EDDAV:  cpu time   10.43: real time   10.44
       DOS:  cpu time    0.00: real time    0.00
    --------------------------------------------
      LOOP:  cpu time   10.43: real time   10.44

 eigenvalue-minimisations  :  7400
 total energy-change (2. order) :-0.5292277E+02  (-0.5262293E+02)
 number of electron      99.0000000 magnetization 
 augmentation part       99.0000000 magnetization 

 Free energy of the ion-electron system (eV)
  ---------------------------------------------------
  alpha Z        PSCENC =       135.13487502
  Ewald energy   TEWEN  =      9396.05749711
  -Hartree energ DENC   =    -14587.99491901
  -exchange      EXHF   =         0.00000000
  -V(xc)+E(xc)   XCENC  =      -342.45987366
  PAW double counting   =      4516.65612620    -3844.19644948
  entropy T*S    EENTRO =        -0.00541431
  eigenvalues    EBANDS =      -334.48662991
  atomic energy  EATOM  =      4905.68083858
  ---------------------------------------------------
  free energy    TOTEN  =      -155.61394946 eV

  energy without entropy =     -155.60853515  energy(sigma->0) =     -155.61124230


--------------------------------------------------------------------------------------------------------




----------------------------------------- Iteration    1(   4)  ---------------------------------------


     EDDAV:  cpu time   10.41: real time   10.42
       DOS:  cpu time    0.00: real time    0.00
    --------------------------------------------
      LOOP:  cpu time   10.41: real time   10.42

 eigenvalue-minimisations  :  7368
 total energy-change (2. order) :-0.6468090E+00  (-0.6457641E+00)
 number of electron      99.0000000 magnetization 
 augmentation part       99.0000000 magnetization 

 Free energy of the ion-electron system (eV)
  ---------------------------------------------------
  alpha Z        PSCENC =       135.13487502
  Ewald energy   TEWEN  =      9396.05749711
  -Hartree energ DENC   =    -14587.99491901
  -exchange      EXHF   =         0.00000000
  -V(xc)+E(xc)   XCENC  =      -342.45987366
  PAW double counting   =      4516.65612620    -3844.19644948
  entropy T*S    EENTRO =        -0.00533841
  eigenvalues    EBANDS =      -335.13351479
  atomic energy  EATOM  =      4905.68083858
  ---------------------------------------------------
  free energy    TOTEN  =      -156.26075845 eV

  energy without entropy =     -156.25542004  energy(sigma->0) =     -156.25808924


--------------------------------------------------------------------------------------------------------




----------------------------------------- Iteration    1(   5)  ---------------------------------------


     EDDAV:  cpu time   10.57: real time   10.58
       DOS:  cpu time    0.00: real time    0.00
    CHARGE:  cpu time    0.71: real time    0.72
    MIXING:  cpu time    0.00: real time    0.00
    --------------------------------------------
      LOOP:  cpu time   11.29: real time   11.31

 eigenvalue-minimisations  :  7480
 total energy-change (2. order) :-0.9311736E-02  (-0.9308507E-02)
 number of electron      99.0000001 magnetization 
 augmentation part        7.7051896 magnetization 

 Broyden mixing:
  rms(total) = 0.22940E+01    rms(broyden)= 0.22934E+01
  rms(prec ) = 0.23527E+01
  weight for this iteration     100.00

 Free energy of the ion-electron system (eV)
  ---------------------------------------------------
  alpha Z        PSCENC =       135.13487502
  Ewald energy   TEWEN  =      9396.05749711
  -Hartree energ DENC   =    -14587.99491901
  -exchange      EXHF   =         0.00000000
  -V(xc)+E(xc)   XCENC  =      -342.45987366
  PAW double counting   =      4516.65612620    -3844.19644948
  entropy T*S    EENTRO =        -0.00533613
  eigenvalues    EBANDS =      -335.14282881
  atomic energy  EATOM  =      4905.68083858
  ---------------------------------------------------
  free energy    TOTEN  =      -156.27007018 eV

  energy without entropy =     -156.26473406  energy(sigma->0) =     -156.26740212


--------------------------------------------------------------------------------------------------------




----------------------------------------- Iteration    1(   6)  ---------------------------------------


    POTLOK:  cpu time    0.10: real time    0.10
    SETDIJ:  cpu time    0.10: real time    0.10
     EDDAV:  cpu time   10.62: real time   10.63
       DOS:  cpu time    0.00: real time    0.00
    CHARGE:  cpu time    0.70: real time    0.70
    MIXING:  cpu time    0.00: real time    0.00
    --------------------------------------------
      LOOP:  cpu time   11.53: real time   11.54

 eigenvalue-minimisations  :  7584
 total energy-change (2. order) : 0.1542170E+02  (-0.8784525E+01)
 number of electron      99.0000001 magnetization 
 augmentation part        6.2149843 magnetization 

 Broyden mixing:
  rms(total) = 0.78906E+00    rms(broyden)= 0.78812E+00
  rms(prec ) = 0.79914E+00
  weight for this iteration     100.00

 eigenvalues of (default mixing * dielectric matrix)
  average eigenvalue GAMMA=   0.8358
  0.8358

 Free energy of the ion-electron system (eV)
  ---------------------------------------------------
  alpha Z        PSCENC =       135.13487502
  Ewald energy   TEWEN  =      9396.05749711
  -Hartree energ DENC   =    -14778.33824482
  -exchange      EXHF   =         0.00000000
  -V(xc)+E(xc)   XCENC  =      -329.25100705
  PAW double counting   =      5355.05809031    -4685.97994966
  entropy T*S    EENTRO =        -0.00448030
  eigenvalues    EBANDS =      -139.20599178
  atomic energy  EATOM  =      4905.68083858
  ---------------------------------------------------
  free energy    TOTEN  =      -140.84837258 eV

  energy without entropy =     -140.84389228  energy(sigma->0) =     -140.84613243


--------------------------------------------------------------------------------------------------------




----------------------------------------- Iteration    1(   7)  ---------------------------------------


    POTLOK:  cpu time    0.10: real time    0.10
    SETDIJ:  cpu time    0.10: real time    0.10
     EDDAV:  cpu time   10.13: real time   10.14
       DOS:  cpu time    0.00: real time    0.00
    CHARGE:  cpu time    0.70: real time    0.70
    MIXING:  cpu time    0.00: real time    0.00
    --------------------------------------------
      LOOP:  cpu time   11.04: real time   11.05

 eigenvalue-minimisations  :  7144
 total energy-change (2. order) : 0.1105531E+00  (-0.2262072E+00)
 number of electron      99.0000001 magnetization 
 augmentation part        6.2497917 magnetization 

 Broyden mixing:
  rms(total) = 0.47988E+00    rms(broyden)= 0.47986E+00
  rms(prec ) = 0.48530E+00
  weight for this iteration     100.00

 eigenvalues of (default mixing * dielectric matrix)
  average eigenvalue GAMMA=   1.5387
  0.9875  2.0899

 Free energy of the ion-electron system (eV)
  ---------------------------------------------------
  alpha Z        PSCENC =       135.13487502
  Ewald energy   TEWEN  =      9396.05749711
  -Hartree energ DENC   =    -14772.79925376
  -exchange      EXHF   =         0.00000000
  -V(xc)+E(xc)   XCENC  =      -329.02722492
  PAW double counting   =      5667.88727619    -4998.32263577
  entropy T*S    EENTRO =        -0.00601559
  eigenvalues    EBANDS =      -145.34317633
  atomic energy  EATOM  =      4905.68083858
  ---------------------------------------------------
  free energy    TOTEN  =      -140.73781946 eV

  energy without entropy =     -140.73180388  energy(sigma->0) =     -140.73481167


--------------------------------------------------------------------------------------------------------




----------------------------------------- Iteration    1(   8)  ---------------------------------------


    POTLOK:  cpu time    0.10: real time    0.10
    SETDIJ:  cpu time    0.10: real time    0.10
     EDDAV:  cpu time   10.33: real time   10.35
       DOS:  cpu time    0.00: real time    0.00
    CHARGE:  cpu time    0.70: real time    0.70
    MIXING:  cpu time    0.00: real time    0.00
    --------------------------------------------
      LOOP:  cpu time   11.25: real time   11.26

 eigenvalue-minimisations  :  7328
 total energy-change (2. order) : 0.7114305E-01  (-0.8198423E-01)
 number of electron      99.0000001 magnetization 
 augmentation part        6.3227229 magnetization 

 Broyden mixing:
  rms(total) = 0.13063E+00    rms(broyden)= 0.13056E+00
  rms(prec ) = 0.13818E+00
  weight for this iteration     100.00

 eigenvalues of (default mixing * dielectric matrix)
  average eigenvalue GAMMA=   1.3335
  2.2875  0.8566  0.8566

 Free energy of the ion-electron system (eV)
  ---------------------------------------------------
  alpha Z        PSCENC =       135.13487502
  Ewald energy   TEWEN  =      9396.05749711
  -Hartree energ DENC   =    -14775.10808117
  -exchange      EXHF   =         0.00000000
  -V(xc)+E(xc)   XCENC  =      -327.90550029
  PAW double counting   =      6116.78313759    -5446.82899946
  entropy T*S    EENTRO =        -0.00601924
  eigenvalues    EBANDS =      -144.47442456
  atomic energy  EATOM  =      4905.68083858
  ---------------------------------------------------
  free energy    TOTEN  =      -140.66667642 eV

  energy without entropy =     -140.66065718  energy(sigma->0) =     -140.66366680


--------------------------------------------------------------------------------------------------------




----------------------------------------- Iteration    1(   9)  ---------------------------------------


    POTLOK:  cpu time    0.10: real time    0.10
    SETDIJ:  cpu time    0.10: real time    0.10
     EDDAV:  cpu time   10.28: real time   10.30
       DOS:  cpu time    0.00: real time    0.00
    CHARGE:  cpu time    0.70: real time    0.70
    MIXING:  cpu time    0.00: real time    0.00
    --------------------------------------------
      LOOP:  cpu time   11.19: real time   11.20

 eigenvalue-minimisations  :  7280
 total energy-change (2. order) : 0.3724725E-01  (-0.1520298E-01)
 number of electron      99.0000001 magnetization 
 augmentation part        6.2896182 magnetization 

 Broyden mixing:
  rms(total) = 0.60241E-01    rms(broyden)= 0.60234E-01
  rms(prec ) = 0.61556E-01
  weight for this iteration     100.00

 eigenvalues of (default mixing * dielectric matrix)
  average eigenvalue GAMMA=   1.4447
  2.4866  0.9067  0.9067  1.4790

 Free energy of the ion-electron system (eV)
  ---------------------------------------------------
  alpha Z        PSCENC =       135.13487502
  Ewald energy   TEWEN  =      9396.05749711
  -Hartree energ DENC   =    -14780.41817298
  -exchange      EXHF   =         0.00000000
  -V(xc)+E(xc)   XCENC  =      -327.36666776
  PAW double counting   =      6162.15279269    -5492.25911678
  entropy T*S    EENTRO =        -0.00589700
  eigenvalues    EBANDS =      -139.60557803
  atomic energy  EATOM  =      4905.68083858
  ---------------------------------------------------
  free energy    TOTEN  =      -140.62942916 eV

  energy without entropy =     -140.62353216  energy(sigma->0) =     -140.62648066


--------------------------------------------------------------------------------------------------------




----------------------------------------- Iteration    1(  10)  ---------------------------------------


    POTLOK:  cpu time    0.10: real time    0.10
    SETDIJ:  cpu time    0.10: real time    0.10
     EDDAV:  cpu time   10.01: real time   10.02
       DOS:  cpu time    0.00: real time    0.00
    CHARGE:  cpu time    0.70: real time    0.70
    MIXING:  cpu time    0.00: real time    0.00
    --------------------------------------------
      LOOP:  cpu time   10.91: real time   10.92

 eigenvalue-minimisations  :  7160
 total energy-change (2. order) :-0.4173083E-02  (-0.1081968E-01)
 number of electron      99.0000001 magnetization 
 augmentation part        6.2629285 magnetization 

 Broyden mixing:
  rms(total) = 0.43911E-01    rms(broyden)= 0.43874E-01
  rms(prec ) = 0.47292E-01
  weight for this iteration     100.00

 eigenvalues of (default mixing * dielectric matrix)
  average eigenvalue GAMMA=   1.2967
  2.5178  1.4863  0.9711  0.7542  0.7542

 Free energy of the ion-electron system (eV)
  ---------------------------------------------------
  alpha Z        PSCENC =       135.13487502
  Ewald energy   TEWEN  =      9396.05749711
  -Hartree energ DENC   =    -14783.13649636
  -exchange      EXHF   =         0.00000000
  -V(xc)+E(xc)   XCENC  =      -327.04977545
  PAW double counting   =      6150.20079055    -5480.34680365
  entropy T*S    EENTRO =        -0.00619581
  eigenvalues    EBANDS =      -137.16833223
  atomic energy  EATOM  =      4905.68083858
  ---------------------------------------------------
  free energy    TOTEN  =      -140.63360225 eV

  energy without entropy =     -140.62740644  energy(sigma->0) =     -140.63050434


--------------------------------------------------------------------------------------------------------




----------------------------------------- Iteration    1(  11)  ---------------------------------------


    POTLOK:  cpu time    0.10: real time    0.10
    SETDIJ:  cpu time    0.10: real time    0.10
     EDDAV:  cpu time   10.73: real time   10.75
       DOS:  cpu time    0.00: real time    0.00
    CHARGE:  cpu time    0.71: real time    0.71
    MIXING:  cpu time    0.00: real time    0.00
    --------------------------------------------
      LOOP:  cpu time   11.65: real time   11.66

 eigenvalue-minimisations  :  7640
 total energy-change (2. order) : 0.3097049E-02  (-0.1037611E-02)
 number of electron      99.0000001 magnetization 
 augmentation part        6.2696093 magnetization 

 Broyden mixing:
  rms(total) = 0.26823E-01    rms(broyden)= 0.26823E-01
  rms(prec ) = 0.27764E-01
  weight for this iteration     100.00

 eigenvalues of (default mixing * dielectric matrix)
  average eigenvalue GAMMA=   1.3532
  2.5931  1.8302  0.9812  0.9812  1.0289  0.7043

 Free energy of the ion-electron system (eV)
  ---------------------------------------------------
  alpha Z        PSCENC =       135.13487502
  Ewald energy   TEWEN  =      9396.05749711
  -Hartree energ DENC   =    -14782.40980694
  -exchange      EXHF   =         0.00000000
  -V(xc)+E(xc)   XCENC  =      -327.06902496
  PAW double counting   =      6142.28930773    -5472.42866223
  entropy T*S    EENTRO =        -0.00596070
  eigenvalues    EBANDS =      -137.87956880
  atomic energy  EATOM  =      4905.68083858
  ---------------------------------------------------
  free energy    TOTEN  =      -140.63050520 eV

  energy without entropy =     -140.62454450  energy(sigma->0) =     -140.62752485


--------------------------------------------------------------------------------------------------------




----------------------------------------- Iteration    1(  12)  ---------------------------------------


    POTLOK:  cpu time    0.10: real time    0.10
    SETDIJ:  cpu time    0.10: real time    0.10
     EDDAV:  cpu time   10.28: real time   10.29
       DOS:  cpu time    0.00: real time    0.00
    CHARGE:  cpu time    0.71: real time    0.71
    MIXING:  cpu time    0.00: real time    0.00
    --------------------------------------------
      LOOP:  cpu time   11.20: real time   11.21

 eigenvalue-minimisations  :  7264
 total energy-change (2. order) : 0.1146399E-03  (-0.1512727E-02)
 number of electron      99.0000001 magnetization 
 augmentation part        6.2724800 magnetization 

 Broyden mixing:
  rms(total) = 0.14460E-01    rms(broyden)= 0.14445E-01
  rms(prec ) = 0.15146E-01
  weight for this iteration     100.00

 eigenvalues of (default mixing * dielectric matrix)
  average eigenvalue GAMMA=   1.3598
  2.7810  2.4510  0.9008  0.9008  0.9325  0.9325  0.6200

 Free energy of the ion-electron system (eV)
  ---------------------------------------------------
  alpha Z        PSCENC =       135.13487502
  Ewald energy   TEWEN  =      9396.05749711
  -Hartree energ DENC   =    -14782.09362678
  -exchange      EXHF   =         0.00000000
  -V(xc)+E(xc)   XCENC  =      -327.04176969
  PAW double counting   =      6119.70311387    -5449.85099481
  entropy T*S    EENTRO =        -0.00583109
  eigenvalues    EBANDS =      -138.21449276
  atomic energy  EATOM  =      4905.68083858
  ---------------------------------------------------
  free energy    TOTEN  =      -140.63039056 eV

  energy without entropy =     -140.62455947  energy(sigma->0) =     -140.62747501


--------------------------------------------------------------------------------------------------------




----------------------------------------- Iteration    1(  13)  ---------------------------------------


    POTLOK:  cpu time    0.10: real time    0.10
    SETDIJ:  cpu time    0.10: real time    0.10
     EDDAV:  cpu time   11.13: real time   11.14
       DOS:  cpu time    0.00: real time    0.00
    CHARGE:  cpu time    0.71: real time    0.71
    MIXING:  cpu time    0.01: real time    0.01
    --------------------------------------------
      LOOP:  cpu time   12.05: real time   12.06

 eigenvalue-minimisations  :  8024
 total energy-change (2. order) : 0.3237114E-03  (-0.1687024E-03)
 number of electron      99.0000001 magnetization 
 augmentation part        6.2748366 magnetization 

 Broyden mixing:
  rms(total) = 0.72365E-02    rms(broyden)= 0.72356E-02
  rms(prec ) = 0.80362E-02
  weight for this iteration     100.00

 eigenvalues of (default mixing * dielectric matrix)
  average eigenvalue GAMMA=   1.3575
  2.8794  2.4920  0.9508  0.9508  1.0689  0.9342  0.9342  0.6497

 Free energy of the ion-electron system (eV)
  ---------------------------------------------------
  alpha Z        PSCENC =       135.13487502
  Ewald energy   TEWEN  =      9396.05749711
  -Hartree energ DENC   =    -14781.68152110
  -exchange      EXHF   =         0.00000000
  -V(xc)+E(xc)   XCENC  =      -327.04779872
  PAW double counting   =      6105.71681651    -5435.86383895
  entropy T*S    EENTRO =        -0.00581337
  eigenvalues    EBANDS =      -138.62112193
  atomic energy  EATOM  =      4905.68083858
  ---------------------------------------------------
  free energy    TOTEN  =      -140.63006685 eV

  energy without entropy =     -140.62425348  energy(sigma->0) =     -140.62716016


--------------------------------------------------------------------------------------------------------




----------------------------------------- Iteration    1(  14)  ---------------------------------------


    POTLOK:  cpu time    0.10: real time    0.10
    SETDIJ:  cpu time    0.10: real time    0.10
     EDDAV:  cpu time   10.54: real time   10.55
       DOS:  cpu time    0.00: real time    0.00
    CHARGE:  cpu time    0.70: real time    0.70
    MIXING:  cpu time    0.01: real time    0.01
    --------------------------------------------
      LOOP:  cpu time   11.46: real time   11.47

 eigenvalue-minimisations  :  7472
 total energy-change (2. order) : 0.1051334E-03  (-0.9155543E-04)
 number of electron      99.0000001 magnetization 
 augmentation part        6.2748191 magnetization 

 Broyden mixing:
  rms(total) = 0.19880E-02    rms(broyden)= 0.19823E-02
  rms(prec ) = 0.35686E-02
  weight for this iteration     100.00

 eigenvalues of (default mixing * dielectric matrix)
  average eigenvalue GAMMA=   1.3986
  2.9719  2.5770  1.6984  0.8897  0.8897  1.0447  0.9285  0.9285  0.6586

 Free energy of the ion-electron system (eV)
  ---------------------------------------------------
  alpha Z        PSCENC =       135.13487502
  Ewald energy   TEWEN  =      9396.05749711
  -Hartree energ DENC   =    -14781.50767212
  -exchange      EXHF   =         0.00000000
  -V(xc)+E(xc)   XCENC  =      -327.04850327
  PAW double counting   =      6103.86782787    -5434.01433002
  entropy T*S    EENTRO =        -0.00580802
  eigenvalues    EBANDS =      -138.79468686
  atomic energy  EATOM  =      4905.68083858
  ---------------------------------------------------
  free energy    TOTEN  =      -140.62996171 eV

  energy without entropy =     -140.62415370  energy(sigma->0) =     -140.62705771


--------------------------------------------------------------------------------------------------------




----------------------------------------- Iteration    1(  15)  ---------------------------------------


    POTLOK:  cpu time    0.10: real time    0.10
    SETDIJ:  cpu time    0.10: real time    0.10
     EDDAV:  cpu time   11.12: real time   11.13
       DOS:  cpu time    0.00: real time    0.00
    CHARGE:  cpu time    0.71: real time    0.71
    MIXING:  cpu time    0.01: real time    0.01
    --------------------------------------------
      LOOP:  cpu time   12.04: real time   12.05

 eigenvalue-minimisations  :  8040
 total energy-change (2. order) : 0.9358065E-04  (-0.8856670E-05)
 number of electron      99.0000001 magnetization 
 augmentation part        6.2747369 magnetization 

 Broyden mixing:
  rms(total) = 0.11691E-02    rms(broyden)= 0.11686E-02
  rms(prec ) = 0.26522E-02
  weight for this iteration     100.00

 eigenvalues of (default mixing * dielectric matrix)
  average eigenvalue GAMMA=   1.4299
  3.0705  2.6785  2.4419  0.9050  0.9050  0.6602  0.9167  0.9167  0.9023  0.9023

 Free energy of the ion-electron system (eV)
  ---------------------------------------------------
  alpha Z        PSCENC =       135.13487502
  Ewald energy   TEWEN  =      9396.05749711
  -Hartree energ DENC   =    -14781.27809530
  -exchange      EXHF   =         0.00000000
  -V(xc)+E(xc)   XCENC  =      -327.04778728
  PAW double counting   =      6103.86665329    -5434.01175525
  entropy T*S    EENTRO =        -0.00577910
  eigenvalues    EBANDS =      -139.02631521
  atomic energy  EATOM  =      4905.68083858
  ---------------------------------------------------
  free energy    TOTEN  =      -140.62986813 eV

  energy without entropy =     -140.62408903  energy(sigma->0) =     -140.62697858


--------------------------------------------------------------------------------------------------------




----------------------------------------- Iteration    1(  16)  ---------------------------------------


    POTLOK:  cpu time    0.10: real time    0.10
    SETDIJ:  cpu time    0.10: real time    0.10
     EDDAV:  cpu time   10.04: real time   10.05
       DOS:  cpu time    0.00: real time    0.00
    CHARGE:  cpu time    0.71: real time    0.71
    MIXING:  cpu time    0.00: real time    0.00
    --------------------------------------------
      LOOP:  cpu time   10.96: real time   10.97

 eigenvalue-minimisations  :  7024
 total energy-change (2. order) : 0.6022117E-04  (-0.6153969E-05)
 number of electron      99.0000001 magnetization 
 augmentation part        6.2744260 magnetization 

 Broyden mixing:
  rms(total) = 0.12973E-02    rms(broyden)= 0.12970E-02
  rms(prec ) = 0.23750E-02
  weight for this iteration     100.00

 eigenvalues of (default mixing * dielectric matrix)
  average eigenvalue GAMMA=   1.4517
  2.9935  2.8287  2.4195  0.9143  0.9143  1.2111  1.2111  0.9720  0.9226  0.9226
  0.6593

 Free energy of the ion-electron system (eV)
  ---------------------------------------------------
  alpha Z        PSCENC =       135.13487502
  Ewald energy   TEWEN  =      9396.05749711
  -Hartree energ DENC   =    -14781.13001030
  -exchange      EXHF   =         0.00000000
  -V(xc)+E(xc)   XCENC  =      -327.04445456
  PAW double counting   =      6105.36010634    -5435.50492971
  entropy T*S    EENTRO =        -0.00575978
  eigenvalues    EBANDS =      -139.17797061
  atomic energy  EATOM  =      4905.68083858
  ---------------------------------------------------
  free energy    TOTEN  =      -140.62980791 eV

  energy without entropy =     -140.62404813  energy(sigma->0) =     -140.62692802


--------------------------------------------------------------------------------------------------------




----------------------------------------- Iteration    1(  17)  ---------------------------------------


    POTLOK:  cpu time    0.10: real time    0.10
    SETDIJ:  cpu time    0.10: real time    0.10
     EDDAV:  cpu time    9.26: real time    9.26
       DOS:  cpu time    0.00: real time    0.00
    CHARGE:  cpu time    0.70: real time    0.70
    MIXING:  cpu time    0.01: real time    0.01
    --------------------------------------------
      LOOP:  cpu time   10.17: real time   10.18

 eigenvalue-minimisations  :  6424
 total energy-change (2. order) : 0.3838322E-04  (-0.3741365E-05)
 number of electron      99.0000001 magnetization 
 augmentation part        6.2744428 magnetization 

 Broyden mixing:
  rms(total) = 0.13048E-02    rms(broyden)= 0.13046E-02
  rms(prec ) = 0.21729E-02
  weight for this iteration     100.00

 eigenvalues of (default mixing * dielectric matrix)
  average eigenvalue GAMMA=   1.5266
  3.1649  3.1649  2.4808  2.4808  0.9121  0.9121  0.9078  0.9078  0.9406  0.9406
  0.6589  0.8476

 Free energy of the ion-electron system (eV)
  ---------------------------------------------------
  alpha Z        PSCENC =       135.13487502
  Ewald energy   TEWEN  =      9396.05749711
  -Hartree energ DENC   =    -14780.97365191
  -exchange      EXHF   =         0.00000000
  -V(xc)+E(xc)   XCENC  =      -327.04401910
  PAW double counting   =      6105.55989883    -5435.70490706
  entropy T*S    EENTRO =        -0.00574581
  eigenvalues    EBANDS =      -139.33455518
  atomic energy  EATOM  =      4905.68083858
  ---------------------------------------------------
  free energy    TOTEN  =      -140.62976953 eV

  energy without entropy =     -140.62402372  energy(sigma->0) =     -140.62689663


--------------------------------------------------------------------------------------------------------




----------------------------------------- Iteration    1(  18)  ---------------------------------------


    POTLOK:  cpu time    0.10: real time    0.10
    SETDIJ:  cpu time    0.10: real time    0.10
     EDDAV:  cpu time   10.73: real time   10.74
       DOS:  cpu time    0.00: real time    0.00
    CHARGE:  cpu time    0.71: real time    0.71
    MIXING:  cpu time    0.01: real time    0.01
    --------------------------------------------
      LOOP:  cpu time   11.65: real time   11.66

 eigenvalue-minimisations  :  7568
 total energy-change (2. order) : 0.6306118E-04  (-0.6032099E-05)
 number of electron      99.0000001 magnetization 
 augmentation part        6.2745747 magnetization 

 Broyden mixing:
  rms(total) = 0.13382E-02    rms(broyden)= 0.13380E-02
  rms(prec ) = 0.18249E-02
  weight for this iteration     100.00

 eigenvalues of (default mixing * dielectric matrix)
  average eigenvalue GAMMA=   1.5367
  3.4685  3.4685  2.6773  2.3133  0.8949  0.8949  0.9795  0.9795  0.9998  0.9302
  0.9302  0.6598  0.7808

 Free energy of the ion-electron system (eV)
  ---------------------------------------------------
  alpha Z        PSCENC =       135.13487502
  Ewald energy   TEWEN  =      9396.05749711
  -Hartree energ DENC   =    -14780.63320388
  -exchange      EXHF   =         0.00000000
  -V(xc)+E(xc)   XCENC  =      -327.04395189
  PAW double counting   =      6105.63175726    -5435.77659503
  entropy T*S    EENTRO =        -0.00572083
  eigenvalues    EBANDS =      -139.67520282
  atomic energy  EATOM  =      4905.68083858
  ---------------------------------------------------
  free energy    TOTEN  =      -140.62970647 eV

  energy without entropy =     -140.62398564  energy(sigma->0) =     -140.62684605


--------------------------------------------------------------------------------------------------------




----------------------------------------- Iteration    1(  19)  ---------------------------------------


    POTLOK:  cpu time    0.10: real time    0.10
    SETDIJ:  cpu time    0.10: real time    0.10
     EDDAV:  cpu time   10.68: real time   10.69
       DOS:  cpu time    0.00: real time    0.00
    CHARGE:  cpu time    0.71: real time    0.71
    MIXING:  cpu time    0.01: real time    0.01
    --------------------------------------------
      LOOP:  cpu time   11.60: real time   11.61

 eigenvalue-minimisations  :  7632
 total energy-change (2. order) : 0.2403114E-04  (-0.8325047E-05)
 number of electron      99.0000001 magnetization 
 augmentation part        6.2745127 magnetization 

 Broyden mixing:
  rms(total) = 0.74599E-03    rms(broyden)= 0.74567E-03
  rms(prec ) = 0.12096E-02
  weight for this iteration     100.00

 eigenvalues of (default mixing * dielectric matrix)
  average eigenvalue GAMMA=   1.5467
  4.5677  3.2542  2.6543  2.3198  0.9069  0.9069  1.1311  1.1311  1.0702  0.9346
  0.9346  0.6594  0.7899  0.3930

 Free energy of the ion-electron system (eV)
  ---------------------------------------------------
  alpha Z        PSCENC =       135.13487502
  Ewald energy   TEWEN  =      9396.05749711
  -Hartree energ DENC   =    -14780.47477393
  -exchange      EXHF   =         0.00000000
  -V(xc)+E(xc)   XCENC  =      -327.04279183
  PAW double counting   =      6105.92240108    -5436.06734999
  entropy T*S    EENTRO =        -0.00571292
  eigenvalues    EBANDS =      -139.83466557
  atomic energy  EATOM  =      4905.68083858
  ---------------------------------------------------
  free energy    TOTEN  =      -140.62968244 eV

  energy without entropy =     -140.62396952  energy(sigma->0) =     -140.62682598


--------------------------------------------------------------------------------------------------------




----------------------------------------- Iteration    1(  20)  ---------------------------------------


    POTLOK:  cpu time    0.10: real time    0.10
    SETDIJ:  cpu time    0.10: real time    0.10
     EDDAV:  cpu time   10.63: real time   10.64
       DOS:  cpu time    0.00: real time    0.00
    CHARGE:  cpu time    0.71: real time    0.71
    MIXING:  cpu time    0.01: real time    0.01
    --------------------------------------------
      LOOP:  cpu time   11.54: real time   11.55

 eigenvalue-minimisations  :  7552
 total energy-change (2. order) : 0.2584128E-04  (-0.5632553E-05)
 number of electron      99.0000001 magnetization 
 augmentation part        6.2745157 magnetization 

 Broyden mixing:
  rms(total) = 0.94803E-03    rms(broyden)= 0.94768E-03
  rms(prec ) = 0.11378E-02
  weight for this iteration     100.00

 eigenvalues of (default mixing * dielectric matrix)
  average eigenvalue GAMMA=   1.6358
  6.3109  2.9120  2.5672  2.5672  1.1809  1.1809  0.9126  0.9126  1.0219  1.0219
  0.9301  0.9301  0.7949  0.6543  0.6400

 Free energy of the ion-electron system (eV)
  ---------------------------------------------------
  alpha Z        PSCENC =       135.13487502
  Ewald energy   TEWEN  =      9396.05749711
  -Hartree energ DENC   =    -14780.26268454
  -exchange      EXHF   =         0.00000000
  -V(xc)+E(xc)   XCENC  =      -327.04255834
  PAW double counting   =      6105.73839962    -5435.88391207
  entropy T*S    EENTRO =        -0.00570166
  eigenvalues    EBANDS =      -140.04641033
  atomic energy  EATOM  =      4905.68083858
  ---------------------------------------------------
  free energy    TOTEN  =      -140.62965660 eV

  energy without entropy =     -140.62395494  energy(sigma->0) =     -140.62680577


--------------------------------------------------------------------------------------------------------




----------------------------------------- Iteration    1(  21)  ---------------------------------------


    POTLOK:  cpu time    0.10: real time    0.10
    SETDIJ:  cpu time    0.10: real time    0.10
     EDDAV:  cpu time    9.45: real time    9.45
       DOS:  cpu time    0.00: real time    0.00
    --------------------------------------------
      LOOP:  cpu time    9.65: real time    9.66

 eigenvalue-minimisations  :  6528
 total energy-change (2. order) : 0.3672512E-06  (-0.7287318E-05)
 number of electron      99.0000001 magnetization 
 augmentation part        6.2745157 magnetization 

 Free energy of the ion-electron system (eV)
  ---------------------------------------------------
  alpha Z        PSCENC =       135.13487502
  Ewald energy   TEWEN  =      9396.05749711
  -Hartree energ DENC   =    -14780.18857374
  -exchange      EXHF   =         0.00000000
  -V(xc)+E(xc)   XCENC  =      -327.04282719
  PAW double counting   =      6105.52568733    -5435.67118457
  entropy T*S    EENTRO =        -0.00569588
  eigenvalues    EBANDS =      -140.12027289
  atomic energy  EATOM  =      4905.68083858
  ---------------------------------------------------
  free energy    TOTEN  =      -140.62965623 eV

  energy without entropy =     -140.62396035  energy(sigma->0) =     -140.62680829


--------------------------------------------------------------------------------------------------------




 average (electrostatic) potential at core
  the test charge radii are     0.7215  1.0714  1.0406
  (the norm of the test charge is              1.0000)
       1 -69.9731       2 -69.6837       3 -69.6876       4 -69.9738       5 -69.6911
[...]
 k-point    47 :      -0.3846    0.3846    0.0000
  band No.  band energies     occupation 
      1     -13.1828      2.00000
      2     -13.1827      2.00000
      3     -13.0826      2.00000
      4     -13.0302      2.00000
      5     -12.9671      2.00000
      6     -12.8931      2.00000
      7     -12.8178      2.00000
      8     -12.7502      2.00000
      9     -12.6922      2.00000
     10     -12.6604      2.00000
     11      -1.0917      2.00000
     12      -1.0426      2.00000
     13      -0.9601      2.00000
     14      -0.8450      2.00000
     15      -0.7378      2.00000
     16      -0.7246      2.00000
     17      -0.5972      2.00000
     18      -0.5411      2.00000
     19      -0.4635      2.00000
     20      -0.3644      2.00000
     21      -0.1251      2.00000
     22      -0.0812      2.00000
     23       0.0899      2.00000
     24       0.4204      2.00000
     25       0.6181      2.00000
     26       0.9209      2.00000
     27       1.1474      2.00000
     28       1.3707      2.00000
     29       1.5859      2.00000
     30       1.6818      2.00000
     31       1.7741      2.00000
     32       1.8742      2.00000
     33       1.8743      2.00000
     34       2.0303      2.00000
     35       2.0751      2.00000
     36       2.1010      2.00000
     37       2.1575      2.00000
     38       2.2299      2.00000
     39       2.2868      2.00000
     40       2.3186      2.00000
     41       2.4117      2.00000
     42       2.4976      2.00000
     43       2.5716      2.00000
     44       2.6142      2.00000
     45       3.1295      2.00000
     46       4.3663      2.00000
     47       4.6878      2.00000
     48       4.9801      2.00000
     49       5.3325      2.00000
     50       5.9825      2.00000
     51       6.4355      2.00000
     52       7.5195      0.00000
     53       7.5720      0.00000
     54       8.7144      0.00000
     55       9.1405      0.00000
     56       9.9110      0.00000
     57      10.5419      0.00000
     58      10.6757      0.00000
     59      10.8771      0.00000
     60      11.2057      0.00000
     61      11.4559      0.00000
     62      11.7249      0.00000
     63      11.9969      0.00000
     64      12.1311      0.00000

 k-point    48 :       0.4615    0.4615   -0.0000
  band No.  band energies     occupation 
      1     -13.0229      2.00000
      2     -13.0229      2.00000
      3     -12.8524      2.00000
      4     -12.8289      2.00000
      5     -12.8030      2.00000
      6     -12.7691      2.00000
      7     -12.7328      2.00000
      8     -12.7000      2.00000
      9     -12.6691      2.00000
     10     -12.6546      2.00000
     11      -1.3559      2.00000
     12      -1.2682      2.00000
     13      -1.1355      2.00000
     14      -0.9574      2.00000
     15      -0.8714      2.00000
     16      -0.8061      2.00000
     17      -0.7695      2.00000
     18      -0.7168      2.00000
     19      -0.6398      2.00000
     20      -0.6321      2.00000
     21       0.4000      2.00000
     22       0.4054      2.00000
     23       1.0517      2.00000
     24       1.0972      2.00000
     25       1.2408      2.00000
     26       1.3101      2.00000
     27       1.4819      2.00000
     28       1.4830      2.00000
     29       1.6059      2.00000
     30       1.6766      2.00000
     31       1.8412      2.00000
     32       1.8677      2.00000
     33       1.9311      2.00000
     34       2.0025      2.00000
     35       2.1086      2.00000
     36       2.1194      2.00000
     37       2.1232      2.00000
     38       2.1771      2.00000
     39       2.2349      2.00000
     40       2.3102      2.00000
     41       2.3758      2.00000
     42       2.3832      2.00000
     43       2.4546      2.00000
     44       2.6781      2.00000
     45       3.0522      2.00000
     46       3.1673      2.00000
     47       3.8748      2.00000
     48       3.9303      2.00000
     49       4.7065      2.00000
     50       5.4802      2.00000
     51       6.1081      2.00000
     52       6.7847      0.00304
     53       7.4248      0.00000
     54       8.0114      0.00000
     55       9.0291      0.00000
     56       9.6702      0.00000
     57      10.4619      0.00000
     58      10.5938      0.00000
     59      10.8352      0.00000
     60      10.9699      0.00000
     61      11.0664      0.00000
     62      11.3381      0.00000
     63      11.5565      0.00000
     64      11.6206      0.00000

 k-point    49 :      -0.4615    0.4615   -0.0000
  band No.  band energies     occupation 
      1     -13.0581      2.00000
      2     -13.0581      2.00000
      3     -12.9013      2.00000
      4     -12.8722      2.00000
      5     -12.8386      2.00000
      6     -12.7965      2.00000
      7     -12.7525      2.00000
      8     -12.7131      2.00000
      9     -12.6772      2.00000
     10     -12.6596      2.00000
     11      -1.3800      2.00000
     12      -1.2935      2.00000
     13      -1.1623      2.00000
     14      -0.9862      2.00000
     15      -0.9088      2.00000
     16      -0.8434      2.00000
     17      -0.8007      2.00000
     18      -0.7429      2.00000
     19      -0.6688      2.00000
     20      -0.6477      2.00000
     21       0.3007      2.00000
     22       0.3143      2.00000
     23       0.8886      2.00000
     24       1.1609      2.00000
     25       1.2784      2.00000
     26       1.3293      2.00000
     27       1.3658      2.00000
     28       1.4864      2.00000
     29       1.6397      2.00000
     30       1.7195      2.00000
     31       1.8129      2.00000
     32       1.8130      2.00000
     33       1.9771      2.00000
     34       2.0379      2.00000
     35       2.0943      2.00000
     36       2.1668      2.00000
     37       2.1783      2.00000
     38       2.2555      2.00000
     39       2.3302      2.00000
     40       2.3486      2.00000
     41       2.4346      2.00000
     42       2.5087      2.00000
     43       2.5514      2.00000
     44       2.8759      2.00000
     45       3.1538      2.00000
     46       3.2657      2.00000
     47       3.7694      2.00000
     48       4.1752      2.00000
     49       4.5575      2.00000
     50       5.6277      2.00000
     51       5.8769      2.00000
     52       6.9572      0.00000
     53       7.1346      0.00000
     54       8.3369      0.00000
     55       8.6266      0.00000
     56       9.9246      0.00000
     57      10.1410      0.00000
     58      10.7051      0.00000
     59      10.9357      0.00000
     60      11.1672      0.00000
     61      11.4587      0.00000
     62      11.7774      0.00000
     63      11.9976      0.00000
     64      12.1768      0.00000


--------------------------------------------------------------------------------------------------------


 soft charge-density along one line, spin component           1
         0         1         2         3         4         5         6         7         8         9
 total charge-density along one line
 
 pseudopotential strength for first ion, spin component:           1
 12.154   0.000 -14.786   0.000  -0.001   0.000  -0.001   0.000   0.001   0.000   0.001   0.000   0.001   0.000  -0.001   0.000
-14.786   0.000  18.008   0.000   0.001   0.000   0.001   0.000  -0.001   0.000  -0.002   0.000  -0.002   0.000   0.001   0.000
 -0.001   0.000   0.001   0.000  -8.286   0.000   0.002   0.000  -0.014   0.000   9.916   0.000  -0.003   0.000   0.020   0.000
 -0.001   0.000   0.001   0.000   0.002   0.000  -8.310   0.000  -0.001   0.000  -0.003   0.000   9.948   0.000   0.002   0.000
  0.001   0.000  -0.001   0.000  -0.014   0.000  -0.001   0.000  -8.303   0.000   0.020   0.000   0.002   0.000   9.939   0.000
  0.001   0.000  -0.002   0.000   9.916   0.000  -0.003   0.000   0.020   0.000 -11.704   0.000   0.004   0.000  -0.026   0.000
  0.001   0.000  -0.002   0.000  -0.003   0.000   9.948   0.000   0.002   0.000   0.004   0.000 -11.747   0.000  -0.003   0.000
 -0.001   0.000   0.001   0.000   0.020   0.000   0.002   0.000   9.939   0.000  -0.026   0.000  -0.003   0.000 -11.734   0.000
 total augmentation occupancy for first ion, spin component:           1
  2.561   0.345   0.006   0.013  -0.004   0.002  -0.003  -0.001
  0.345   0.086   0.004   0.001  -0.002   0.001  -0.011  -0.000
  0.006   0.004   2.098   0.003   0.004   0.229  -0.002   0.018
  0.013   0.001   0.003   2.108  -0.002  -0.002   0.258   0.001
 -0.004  -0.002   0.004  -0.002   2.102   0.018   0.001   0.250
  0.002   0.001   0.229  -0.002   0.018   0.029  -0.000   0.004
 -0.003  -0.011  -0.002   0.258   0.001  -0.000   0.038   0.000
 -0.001  -0.000   0.018   0.001   0.250   0.004   0.000   0.034


------------------------ aborting loop because EDIFF is reached ----------------------------------------


    CHARGE:  cpu time    0.70: real time    0.70
    FORLOC:  cpu time    0.03: real time    0.03
    FORNL :  cpu time    6.07: real time    6.07
    STRESS:  cpu time    6.87: real time    6.88
    FORCOR:  cpu time    0.13: real time    0.13
    FORHAR:  cpu time    0.05: real time    0.05
    MIXING:  cpu time    0.00: real time    0.00
    OFIELD:  cpu time    0.00: real time    0.00

  FORCE on cell =-STRESS in cart. coord.  units (eV):
  Direction    XX          YY          ZZ          XY          YZ          ZX
  --------------------------------------------------------------------------------------
  Alpha Z   135.13488   135.13488   135.13488
  Ewald   12751.25900 12696.49729-15375.32396    47.42521   -42.10705    24.31037
  Hartree 14517.85276 14503.91351-13567.29982    12.07166   -22.07066    12.74254
  E(xc)    -413.98171  -414.03340  -413.65077     0.04475     0.10638    -0.06142
  Local  -28494.84679-28430.70054 27720.16100   -55.55196    62.03174   -35.81399
  n-local   -60.61251   -69.68380   -65.18640    -1.76066     0.33325     3.07767
  augment    60.13200    60.34866    59.28586    -0.18766     0.15451    -0.08934
  Kinetic  1508.48077  1505.12560  1489.00150    -6.24297     3.47493    -0.81140
  Fock        0.00000     0.00000     0.00000     0.00000     0.00000     0.00000
  -------------------------------------------------------------------------------------
  Total      -4.70899    -5.27042   -17.87772     0.48622    -0.01179     0.00680
  in kB     -24.15888   -27.03923   -91.71930     2.49447    -0.06047     0.03491
  external pressure =      -47.64 kB  Pullay stress =        0.00 kB


 VOLUME and BASIS-vectors are now :
 -----------------------------------------------------------------------------
  energy-cutoff  :      520.00
  volume of cell :      312.29
      direct lattice vectors                 reciprocal lattice vectors
     2.581154139 -1.532413801  0.002747772     0.390243589  0.004749554 -0.000208917
    -0.036532577  3.001551301 -0.002747772     0.199235031  0.335586183  0.000208917
     0.022204590 -0.038459471 40.602456389    -0.000012927  0.000022389  0.024629080

  length of vectors
     3.001775525  3.001774874 40.602480675     0.390272547  0.390272632  0.024629094


 FORCES acting on ions
    electron-ion (+dipol)            ewald-force                    non-local-force                 convergence-correction
 -----------------------------------------------------------------------------------------------
   -.130E+01 0.225E+01 0.116E+04   0.156E+01 -.269E+01 -.116E+04   -.257E+00 0.445E+00 0.346E+00   0.742E-04 -.129E-03 -.594E-01
   -.200E+00 0.347E+00 0.390E+03   0.199E+00 -.344E+00 -.390E+03   0.975E-03 -.169E-02 0.699E-02   0.156E-04 -.270E-04 -.560E-01
   0.200E+00 -.346E+00 -.390E+03   -.198E+00 0.343E+00 0.390E+03   -.105E-02 0.183E-02 -.639E-02   -.300E-05 0.519E-05 0.525E-01
   0.130E+01 -.225E+01 -.116E+04   -.156E+01 0.269E+01 0.116E+04   0.257E+00 -.445E+00 -.348E+00   -.776E-04 0.134E-03 0.616E-01
   -.360E+00 0.623E+00 0.909E+03   0.379E+00 -.656E+00 -.909E+03   -.195E-01 0.337E-01 0.696E-01   0.682E-04 -.118E-03 -.686E-01
   -.339E+00 0.587E+00 0.649E+03   0.339E+00 -.587E+00 -.649E+03   -.380E-03 0.658E-03 0.340E-01   0.302E-04 -.523E-04 -.670E-01
   -.673E-01 0.117E+00 0.130E+03   0.666E-01 -.115E+00 -.130E+03   0.514E-03 -.890E-03 0.117E-01   0.238E-04 -.412E-04 -.206E-01
   0.670E-01 -.116E+00 -.130E+03   -.661E-01 0.115E+00 0.130E+03   -.628E-03 0.109E-02 -.125E-01   -.288E-04 0.499E-04 0.191E-01
   0.339E+00 -.587E+00 -.649E+03   -.339E+00 0.587E+00 0.649E+03   0.304E-03 -.526E-03 -.313E-01   -.229E-04 0.397E-04 0.631E-01
   0.359E+00 -.623E+00 -.909E+03   -.378E+00 0.655E+00 0.909E+03   0.194E-01 -.336E-01 -.701E-01   -.534E-04 0.925E-04 0.680E-01
   -.148E+00 0.256E+00 0.260E+03   0.146E+00 -.253E+00 -.260E+03   0.247E-02 -.428E-02 0.123E-04   0.122E-04 -.212E-04 -.230E-01
   0.429E-03 -.743E-03 -.116E-01   -.359E-03 0.622E-03 0.119E-01   -.112E-03 0.194E-03 0.443E-06   -.163E-06 0.283E-06 -.189E-03
   0.148E+00 -.257E+00 -.260E+03   -.146E+00 0.253E+00 0.260E+03   -.256E-02 0.444E-02 -.362E-03   -.117E-04 0.203E-04 0.221E-01
   0.705E+00 -.122E+01 0.347E+03   -.423E+00 0.733E+00 -.347E+03   -.285E+00 0.494E+00 -.883E-01   0.101E-04 -.174E-04 -.218E-01
   -.924E-01 0.160E+00 0.173E+03   0.921E-01 -.159E+00 -.173E+03   0.418E-03 -.724E-03 0.247E-02   0.101E-04 -.175E-04 -.208E-01
   -.526E-01 0.910E-01 0.867E+02   0.514E-01 -.890E-01 -.867E+02   0.189E-02 -.327E-02 -.124E-02   0.103E-04 -.179E-04 -.138E-01
   0.529E-01 -.916E-01 -.867E+02   -.517E-01 0.895E-01 0.867E+02   -.197E-02 0.342E-02 0.167E-02   -.964E-05 0.167E-04 0.132E-01
   0.929E-01 -.161E+00 -.173E+03   -.925E-01 0.160E+00 0.173E+03   -.542E-03 0.939E-03 -.278E-02   -.947E-05 0.164E-04 0.194E-01
   -.705E+00 0.122E+01 -.347E+03   0.423E+00 -.733E+00 0.347E+03   0.285E+00 -.494E+00 0.884E-01   -.105E-04 0.183E-04 0.222E-01
   0.880E-05 -.152E-04 0.794E-03   -.140E-04 0.243E-04 -.155E-02   0.374E-05 -.648E-05 0.226E-03   -.308E-06 0.533E-06 0.601E-03
   0.325E+00 -.563E+00 0.635E+03   -.322E+00 0.558E+00 -.639E+03   0.334E-03 -.578E-03 0.409E+01   0.117E-04 -.203E-04 -.250E-01
   -.948E-01 0.164E+00 0.441E+03   0.133E+00 -.230E+00 -.442E+03   -.384E-01 0.665E-01 0.190E+00   0.979E-05 -.170E-04 -.157E-01
   -.229E+00 0.397E+00 0.216E+03   0.168E+00 -.291E+00 -.216E+03   0.617E-01 -.107E+00 0.518E-01   0.423E-05 -.733E-05 -.732E-02
   -.325E+00 0.563E+00 -.635E+03   0.322E+00 -.558E+00 0.639E+03   -.397E-03 0.688E-03 -.409E+01   -.124E-04 0.214E-04 0.262E-01
   0.229E+00 -.397E+00 -.216E+03   -.168E+00 0.291E+00 0.216E+03   -.617E-01 0.107E+00 -.520E-01   -.485E-05 0.839E-05 0.850E-02
   0.947E-01 -.164E+00 -.441E+03   -.133E+00 0.230E+00 0.442E+03   0.384E-01 -.665E-01 -.189E+00   -.105E-04 0.182E-04 0.168E-01
 -----------------------------------------------------------------------------------------------
   0.829E-03 -.144E-02 0.655E-02   0.441E-14 -.416E-14 -.568E-13   -.849E-03 0.147E-02 -.315E-03   0.252E-04 -.436E-04 -.599E-02
 
 
 POSITION                                       TOTAL-FORCE (eV/Angst)
 -----------------------------------------------------------------------------------
      1.29595      0.69363     10.00180         0.001252     -0.002169      0.000851
      1.29971      0.68711     17.56983        -0.000842      0.001458     -0.002540
      1.26825      0.74161     25.14681         0.000892     -0.001544      0.002793
      1.27206      0.73501     32.71523        -0.001326      0.002297     -0.001862
      2.19310     -0.86029     12.51758        -0.000469      0.000812      0.012061
      0.43750      2.18050     15.04043        -0.000336      0.000581      0.010275
      2.16175     -0.80599     20.09726        -0.000129      0.000224      0.005455
      0.40620      2.23472     22.61934         0.000196     -0.000339     -0.005657
      2.13047     -0.75180     27.67629         0.000355     -0.000615     -0.008753
      0.37486      2.28900     30.19931         0.000549     -0.000951     -0.012279
      1.31514      0.66038     13.77929         0.000679     -0.001176      0.005082
      1.28399      0.71435     21.35829        -0.000042      0.000072      0.000057
      1.25283      0.76831     28.93755        -0.000716      0.001240     -0.005932
      0.45550      2.14933     11.25258        -0.003227      0.005589     -0.005346
      2.17742     -0.83312     16.30785         0.000135     -0.000234     -0.002744
      0.42171      2.20785     18.83102         0.000734     -0.001271     -0.009933
      2.14625     -0.77915     23.88556        -0.000760      0.001316      0.010914
      0.39056      2.26181     26.40887        -0.000190      0.000330      0.001726
      2.11248     -0.72065     31.46434         0.003258     -0.005644      0.006167
     -0.03592      3.00049      1.05443        -0.000002      0.000003      0.000061
      2.55814     -1.49256      8.51843         0.003299     -0.005715      0.002433
      1.76148     -0.11270      6.08667        -0.000520      0.000901      0.001807
      0.82152      1.51536      3.54376         0.000042     -0.000072      0.009438
      0.00984      2.92123     34.19862        -0.003315      0.005741     -0.002834
      1.74652     -0.08679     39.17312        -0.000047      0.000081     -0.009543
      0.80651      1.54136     36.63023         0.000528     -0.000915     -0.001696
 -----------------------------------------------------------------------------------
    total drift:                                0.000005     -0.000009      0.000246


--------------------------------------------------------------------------------------------------------



  FREE ENERGIE OF THE ION-ELECTRON SYSTEM (eV)
  ---------------------------------------------------
  free  energy   TOTEN  =      -140.64922719 eV

  energy  without entropy=     -140.64497370  energy(sigma->0) =     -140.64710045
 
 d Force = 0.1840214E-03[ 0.102E-03, 0.266E-03]  d Energy = 0.1793097E-03 0.471E-05
 d Force =-0.7561148E+01[-0.756E+01,-0.756E+01]  d Ewald  =-0.7561149E+01 0.104E-05


--------------------------------------------------------------------------------------------------------


    POTLOK:  cpu time    0.20: real time    0.20


--------------------------------------------------------------------------------------------------------


 Conjugate gradient step on ions:
 trial-energy change:   -0.000179  1 .order   -0.000184   -0.000266   -0.000102
  (g-gl).g = 0.281E-03      g.g   = 0.302E-03  gl.gl    = 0.160E-02
 g(Force)  = 0.302E-03   g(Stress)= 0.000E+00 ortho     = 0.138E-04
 gamma     =   0.17570
 trial     =   0.87190
 opt step  =   1.41956  (harmonic =   1.41956) maximal distance =0.00315906
 next E    =  -140.649264   (d E  =  -0.00022)


--------------------------------------------------------------------------------------------------------


  
 reached required accuracy - stopping structural energy minimisation
     LOOP+:  cpu time   70.45: real time   70.48
    4ORBIT:  cpu time    0.00: real time    0.00

 total amount of memory used by VASP on root node   196620. kBytes
========================================================================

   base      :      30000. kBytes
   nonl-proj :      33732. kBytes
   fftplans  :      55170. kBytes
   grid      :      22118. kBytes
   one-center:         56. kBytes
   wavefun   :      55544. kBytes
 
  
  
 General timing and accounting informations for this job:
 ========================================================
  
                  Total CPU time used (sec):     2590.017
                            User time (sec):     2574.425
                          System time (sec):       15.592
                         Elapsed time (sec):     2591.912
  
                   Maximum memory used (kb):      309364.
                   Average memory used (kb):           0.
  
                          Minor page faults:       735431
                          Major page faults:            0
                 Voluntary context switches:          118
