       N       E                     dE             d eps       ncg     rms          rms(c)
DAV:   1     0.526934460035E+03    0.52693E+03   -0.44180E+04  6304   0.134E+03
DAV:   2    -0.938991430145E+02   -0.62083E+03   -0.59108E+03  8048   0.263E+02
DAV:   3    -0.154805072145E+03   -0.60906E+02   -0.60534E+02  7384   0.888E+01
DAV:   4    -0.155784893101E+03   -0.97982E+00   -0.97762E+00  7416   0.123E+01
DAV:   5    -0.155804481988E+03   -0.19589E-01   -0.19579E-01  7512   0.170E+00    0.230E+01
DAV:   6    -0.139880148123E+03    0.15924E+02   -0.87233E+01  7280   0.315E+01    0.778E+00
DAV:   7    -0.139787285489E+03    0.92863E-01   -0.23510E+00  6968   0.577E+00    0.479E+00
DAV:   8    -0.139709321750E+03    0.77964E-01   -0.86344E-01  7488   0.496E+00    0.133E+00
DAV:   9    -0.139677763035E+03    0.31559E-01   -0.16204E-01  7280   0.182E+00    0.770E-01
DAV:  10    -0.139679638535E+03   -0.18755E-02   -0.13944E-01  7344   0.145E+00    0.384E-01
DAV:  11    -0.139677152502E+03    0.24860E-02   -0.21264E-02  7096   0.430E-01    0.328E-01
DAV:  12    -0.139675524901E+03    0.16276E-02   -0.10049E-02  8136   0.506E-01    0.108E-01
DAV:  13    -0.139675758138E+03   -0.23324E-03   -0.25881E-03  7192   0.209E-01    0.624E-02
DAV:  14    -0.139675691884E+03    0.66254E-04   -0.36227E-04  7704   0.104E-01    0.244E-02
DAV:  15    -0.139675686743E+03    0.51417E-05   -0.80403E-05  7144   0.390E-02
   1 F= -.13967569E+03 E0= -.13967313E+03  d E =-.139676E+03
       N       E                     dE             d eps       ncg     rms          rms(c)
DAV:   1    -0.139677584904E+03   -0.18930E-02   -0.64592E-02  6624   0.108E+00    0.606E-02
DAV:   2    -0.139677600606E+03   -0.15702E-04   -0.32379E-03  7336   0.224E-01    0.469E-02
DAV:   3    -0.139677493348E+03    0.10726E-03   -0.43904E-04  7264   0.759E-02    0.351E-02
DAV:   4    -0.139677466424E+03    0.26925E-04   -0.53218E-05  7096   0.294E-02    0.275E-02
DAV:   5    -0.139677384830E+03    0.81593E-04   -0.79739E-05  6992   0.483E-02    0.165E-02
DAV:   6    -0.139677327835E+03    0.56996E-04   -0.90487E-05  7416   0.669E-02    0.121E-02
DAV:   7    -0.139677307609E+03    0.20226E-04   -0.92176E-05  7048   0.572E-02    0.102E-02
DAV:   8    -0.139677292264E+03    0.15345E-04   -0.26189E-05  5976   0.370E-02    0.457E-03
DAV:   9    -0.139677280979E+03    0.11284E-04   -0.88941E-06  4776   0.347E-02    0.525E-03
DAV:  10    -0.139677268777E+03    0.12203E-04   -0.16386E-05  5352   0.442E-02    0.339E-03
DAV:  11    -0.139677263047E+03    0.57295E-05   -0.13911E-05  5064   0.360E-02
   2 F= -.13967726E+03 E0= -.13967466E+03  d E =-.157630E-02
       N       E                     dE             d eps       ncg     rms          rms(c)
DAV:   1    -0.139677499660E+03   -0.23088E-03   -0.55256E-02  6424   0.100E+00    0.559E-02
DAV:   2    -0.139677542439E+03   -0.42778E-04   -0.27494E-03  7328   0.202E-01    0.435E-02
DAV:   3    -0.139677460129E+03    0.82310E-04   -0.34737E-04  7272   0.654E-02    0.319E-02
DAV:   4    -0.139677440236E+03    0.19893E-04   -0.43397E-05  6848   0.263E-02    0.244E-02
DAV:   5    -0.139677388709E+03    0.51527E-04   -0.52920E-05  6808   0.372E-02    0.139E-02
DAV:   6    -0.139677353882E+03    0.34827E-04   -0.56335E-05  7320   0.455E-02    0.867E-03
DAV:   7    -0.139677339156E+03    0.14726E-04   -0.43849E-05  6848   0.360E-02    0.792E-03
DAV:   8    -0.139677324412E+03    0.14744E-04   -0.13492E-05  4808   0.380E-02    0.344E-03
DAV:   9    -0.139677312011E+03    0.12401E-04   -0.14164E-05  5112   0.452E-02    0.559E-03
DAV:  10    -0.139677300285E+03    0.11726E-04   -0.22365E-05  5720   0.518E-02    0.500E-03
DAV:  11    -0.139677297032E+03    0.32533E-05   -0.18269E-05  5272   0.345E-02
   3 F= -.13967730E+03 E0= -.13967463E+03  d E =-.161029E-02
       N       E                     dE             d eps       ncg     rms          rms(c)
DAV:   1    -0.139677488081E+03   -0.18780E-03   -0.12223E-02  6720   0.473E-01    0.261E-02
DAV:   2    -0.139677493383E+03   -0.53018E-05   -0.62454E-04  7344   0.102E-01    0.205E-02
DAV:   3    -0.139677475221E+03    0.18162E-04   -0.77876E-05  6912   0.334E-02    0.157E-02
DAV:   4    -0.139677470729E+03    0.44920E-05   -0.85954E-06  4360   0.124E-02    0.127E-02
DAV:   5    -0.139677455259E+03    0.15470E-04   -0.20474E-05  5720   0.253E-02    0.678E-03
DAV:   6    -0.139677448066E+03    0.71933E-05   -0.14692E-05  5136   0.283E-02
   4 F= -.13967745E+03 E0= -.13967482E+03  d E =-.176132E-02
       N       E                     dE             d eps       ncg     rms          rms(c)
DAV:   1    -0.139678528014E+03   -0.10728E-02   -0.12669E-01  6272   0.149E+00    0.549E-02
DAV:   2    -0.139678826450E+03   -0.29844E-03   -0.36476E-03  7272   0.217E-01    0.346E-02
DAV:   3    -0.139678798790E+03    0.27660E-04   -0.66197E-05  7008   0.338E-02    0.236E-02
DAV:   4    -0.139678786149E+03    0.12641E-04   -0.44799E-05  6720   0.280E-02    0.129E-02
DAV:   5    -0.139678774543E+03    0.11605E-04   -0.20075E-05  4904   0.232E-02    0.612E-03
DAV:   6    -0.139678768497E+03    0.60467E-05   -0.94164E-06  4800   0.286E-02
   5 F= -.13967877E+03 E0= -.13967610E+03  d E =-.132043E-02
       N       E                     dE             d eps       ncg     rms          rms(c)
DAV:   1    -0.139678362185E+03    0.41236E-03   -0.11396E+00  6272   0.447E+00    0.166E-01
DAV:   2    -0.139681088533E+03   -0.27263E-02   -0.33272E-02  7272   0.645E-01    0.109E-01
DAV:   3    -0.139680805680E+03    0.28285E-03   -0.77235E-04  7320   0.108E-01    0.721E-02
DAV:   4    -0.139680714427E+03    0.91253E-04   -0.37765E-04  7224   0.766E-02    0.431E-02
DAV:   5    -0.139680605911E+03    0.10852E-03   -0.16183E-04  7440   0.659E-02    0.185E-02
DAV:   6    -0.139680555187E+03    0.50725E-04   -0.86176E-05  7832   0.800E-02    0.857E-03
DAV:   7    -0.139680541631E+03    0.13556E-04   -0.60103E-05  6920   0.361E-02    0.984E-03
DAV:   8    -0.139680530105E+03    0.11526E-04   -0.10244E-05  4296   0.178E-02    0.653E-03
DAV:   9    -0.139680492702E+03    0.37403E-04   -0.41026E-05  6560   0.635E-02    0.151E-02
DAV:  10    -0.139680481798E+03    0.10904E-04   -0.29404E-05  6240   0.335E-02    0.122E-02
DAV:  11    -0.139680471293E+03    0.10505E-04   -0.45539E-05  6728   0.472E-02    0.869E-03
DAV:  12    -0.139680469965E+03    0.13277E-05   -0.23691E-05  5552   0.249E-02
   6 F= -.13968047E+03 E0= -.13967767E+03  d E =-.302190E-02
       N       E                     dE             d eps       ncg     rms          rms(c)
DAV:   1    -0.139681390773E+03   -0.91948E-03   -0.59306E-02  6304   0.101E+00    0.391E-02
DAV:   2    -0.139681521386E+03   -0.13061E-03   -0.17529E-03  7136   0.159E-01    0.231E-02
DAV:   3    -0.139681510190E+03    0.11196E-04   -0.37271E-05  6784   0.308E-02    0.164E-02
DAV:   4    -0.139681501114E+03    0.90760E-05   -0.17576E-05  4632   0.229E-02    0.744E-03
DAV:   5    -0.139681496721E+03    0.43926E-05   -0.94288E-06  4416   0.220E-02    0.472E-03
DAV:   6    -0.139681495270E+03    0.14515E-05   -0.61631E-06  4152   0.155E-02
   7 F= -.13968150E+03 E0= -.13967868E+03  d E =-.102530E-02
       N       E                     dE             d eps       ncg     rms          rms(c)
DAV:   1    -0.139682521036E+03   -0.10243E-02   -0.53708E-01  6288   0.303E+00    0.117E-01
DAV:   2    -0.139683718817E+03   -0.11978E-02   -0.15570E-02  7136   0.458E-01    0.652E-02
DAV:   3    -0.139683637658E+03    0.81159E-04   -0.30079E-04  7448   0.850E-02    0.466E-02
DAV:   4    -0.139683595300E+03    0.42358E-04   -0.12892E-04  7336   0.509E-02    0.249E-02
DAV:   5    -0.139683567064E+03    0.28236E-04   -0.74621E-05  7280   0.471E-02    0.122E-02
DAV:   6    -0.139683561850E+03    0.52136E-05   -0.31684E-05  6240   0.331E-02
   8 F= -.13968356E+03 E0= -.13968069E+03  d E =-.309189E-02
       N       E                     dE             d eps       ncg     rms          rms(c)
DAV:   1    -0.139678979479E+03    0.45876E-02   -0.21483E+00  6272   0.607E+00    0.235E-01
DAV:   2    -0.139683695857E+03   -0.47164E-02   -0.62386E-02  7136   0.923E-01    0.131E-01
DAV:   3    -0.139683356414E+03    0.33944E-03   -0.12506E-03  7456   0.172E-01    0.928E-02
DAV:   4    -0.139683205526E+03    0.15089E-03   -0.46393E-04  7344   0.948E-02    0.540E-02
DAV:   5    -0.139683073592E+03    0.13193E-03   -0.30205E-04  7320   0.944E-02    0.246E-02
DAV:   6    -0.139683049733E+03    0.23859E-04   -0.13183E-04  7608   0.687E-02    0.156E-02
DAV:   7    -0.139683030203E+03    0.19530E-04   -0.48408E-05  7184   0.677E-02    0.969E-03
DAV:   8    -0.139683018970E+03    0.11233E-04   -0.25773E-05  5776   0.473E-02    0.584E-03
DAV:   9    -0.139683016004E+03    0.29664E-05   -0.16063E-05  4656   0.236E-02
   9 F= -.13968302E+03 E0= -.13968009E+03  d E =-.254604E-02
       N       E                     dE             d eps       ncg     rms          rms(c)
DAV:   1    -0.139682705027E+03    0.31394E-03   -0.72039E-01  6272   0.353E+00    0.135E-01
DAV:   2    -0.139684264906E+03   -0.15599E-02   -0.20696E-02  7144   0.530E-01    0.752E-02
DAV:   3    -0.139684161132E+03    0.10377E-03   -0.40398E-04  7456   0.951E-02    0.545E-02
DAV:   4    -0.139684114438E+03    0.46693E-04   -0.17800E-04  7328   0.590E-02    0.301E-02
DAV:   5    -0.139684079457E+03    0.34982E-04   -0.10363E-04  7312   0.501E-02    0.142E-02
DAV:   6    -0.139684075830E+03    0.36265E-05   -0.38892E-05  6512   0.318E-02
  10 F= -.13968408E+03 E0= -.13968117E+03  d E =-.360587E-02
       N       E                     dE             d eps       ncg     rms          rms(c)
DAV:   1    -0.139685277073E+03   -0.11976E-02   -0.19385E-01  6296   0.193E+00    0.619E-02
DAV:   2    -0.139685565472E+03   -0.28840E-03   -0.42592E-03  7248   0.273E-01    0.349E-02
DAV:   3    -0.139685528836E+03    0.36637E-04   -0.79537E-05  7472   0.500E-02    0.245E-02
DAV:   4    -0.139685506216E+03    0.22620E-04   -0.48479E-05  6720   0.449E-02    0.138E-02
DAV:   5    -0.139685488977E+03    0.17240E-04   -0.41018E-05  6640   0.464E-02    0.687E-03
DAV:   6    -0.139685486603E+03    0.23740E-05   -0.22369E-05  5096   0.234E-02
  11 F= -.13968549E+03 E0= -.13968257E+03  d E =-.141077E-02
       N       E                     dE             d eps       ncg     rms          rms(c)
DAV:   1    -0.139685682052E+03   -0.19308E-03   -0.98338E-01  6296   0.436E+00    0.144E-01
DAV:   2    -0.139687152939E+03   -0.14709E-02   -0.22063E-02  7240   0.617E-01    0.832E-02
DAV:   3    -0.139686948470E+03    0.20447E-03   -0.40540E-04  7496   0.119E-01    0.571E-02
DAV:   4    -0.139686822436E+03    0.12603E-03   -0.29567E-04  7320   0.112E-01    0.314E-02
DAV:   5    -0.139686721685E+03    0.10075E-03   -0.19784E-04  7784   0.107E-01    0.165E-02
DAV:   6    -0.139686690225E+03    0.31461E-04   -0.11216E-04  7104   0.595E-02    0.147E-02
DAV:   7    -0.139686646173E+03    0.44052E-04   -0.10034E-05  4616   0.425E-02    0.915E-03
DAV:   8    -0.139686578710E+03    0.67462E-04   -0.25217E-05  6080   0.816E-02    0.792E-03
DAV:   9    -0.139686451127E+03    0.12758E-03   -0.14869E-04  9264   0.231E-01    0.115E-02
DAV:  10    -0.139686411460E+03    0.39667E-04   -0.15511E-04  7248   0.118E-01    0.112E-02
DAV:  11    -0.139686392548E+03    0.18912E-04   -0.70075E-05  7192   0.841E-02    0.110E-02
DAV:  12    -0.139686381152E+03    0.11395E-04   -0.39708E-05  6440   0.736E-02    0.609E-03
DAV:  13    -0.139686380777E+03    0.37568E-06   -0.47036E-05  6288   0.425E-02
  12 F= -.13968638E+03 E0= -.13968352E+03  d E =-.230495E-02
       N       E                     dE             d eps       ncg     rms          rms(c)
DAV:   1    -0.139686945883E+03   -0.56473E-03   -0.37716E-01  6360   0.266E+00    0.836E-02
DAV:   2    -0.139687586932E+03   -0.64105E-03   -0.81127E-03  7264   0.368E-01    0.465E-02
DAV:   3    -0.139687539227E+03    0.47705E-04   -0.11813E-04  7448   0.521E-02    0.318E-02
DAV:   4    -0.139687511247E+03    0.27980E-04   -0.12086E-04  7280   0.530E-02    0.137E-02
DAV:   5    -0.139687505064E+03    0.61832E-05   -0.45213E-05  6920   0.313E-02    0.111E-02
DAV:   6    -0.139687503291E+03    0.17729E-05   -0.10900E-05  4216   0.178E-02
  13 F= -.13968750E+03 E0= -.13968471E+03  d E =-.112251E-02
       N       E                     dE             d eps       ncg     rms          rms(c)
DAV:   1    -0.139686633378E+03    0.87169E-03   -0.10455E+00  6320   0.444E+00    0.139E-01
DAV:   2    -0.139688411618E+03   -0.17782E-02   -0.22429E-02  7256   0.614E-01    0.777E-02
DAV:   3    -0.139688277713E+03    0.13391E-03   -0.32255E-04  7440   0.883E-02    0.533E-02
DAV:   4    -0.139688192818E+03    0.84894E-04   -0.34354E-04  7408   0.947E-02    0.228E-02
DAV:   5    -0.139688175075E+03    0.17743E-04   -0.13297E-04  7312   0.552E-02    0.194E-02
DAV:   6    -0.139688168845E+03    0.62295E-05   -0.36436E-05  6160   0.314E-02
  14 F= -.13968817E+03 E0= -.13968552E+03  d E =-.178807E-02
       N       E                     dE             d eps       ncg     rms          rms(c)
DAV:   1    -0.139688741391E+03   -0.56632E-03   -0.40591E-01  6448   0.280E+00    0.852E-02
DAV:   2    -0.139689533696E+03   -0.79231E-03   -0.94204E-03  7184   0.387E-01    0.499E-02
DAV:   3    -0.139689453545E+03    0.80151E-04   -0.14847E-04  7400   0.623E-02    0.348E-02
DAV:   4    -0.139689414903E+03    0.38642E-04   -0.60813E-05  7240   0.406E-02    0.220E-02
DAV:   5    -0.139689356110E+03    0.58794E-04   -0.57488E-05  6824   0.698E-02    0.848E-03
DAV:   6    -0.139689335680E+03    0.20430E-04   -0.45012E-05  6808   0.440E-02    0.742E-03
DAV:   7    -0.139689310177E+03    0.25503E-04   -0.13322E-05  4736   0.434E-02    0.686E-03
DAV:   8    -0.139689255394E+03    0.54783E-04   -0.24586E-05  6064   0.101E-01    0.998E-03
DAV:   9    -0.139689225297E+03    0.30097E-04   -0.42206E-05  6384   0.708E-02    0.780E-03
DAV:  10    -0.139689181294E+03    0.44002E-04   -0.77308E-05  8384   0.153E-01    0.104E-02
DAV:  11    -0.139689167997E+03    0.13297E-04   -0.80422E-05  7144   0.968E-02    0.689E-03
DAV:  12    -0.139689174955E+03   -0.69581E-05   -0.78259E-05  6840   0.319E-02
  15 F= -.13968917E+03 E0= -.13968652E+03  d E =-.100611E-02
       N       E                     dE             d eps       ncg     rms          rms(c)
DAV:   1    -0.139689078387E+03    0.89610E-04   -0.27859E-01  6368   0.231E+00    0.665E-02
DAV:   2    -0.139689617746E+03   -0.53936E-03   -0.64116E-03  7176   0.316E-01    0.433E-02
DAV:   3    -0.139689566926E+03    0.50820E-04   -0.89226E-05  7416   0.439E-02    0.306E-02
DAV:   4    -0.139689544408E+03    0.22517E-04   -0.43646E-05  6472   0.312E-02    0.189E-02
DAV:   5    -0.139689517998E+03    0.26410E-04   -0.46939E-05  6648   0.478E-02    0.612E-03
DAV:   6    -0.139689513814E+03    0.41845E-05   -0.23917E-05  5248   0.239E-02
  16 F= -.13968951E+03 E0= -.13968685E+03  d E =-.134497E-02
       N       E                     dE             d eps       ncg     rms          rms(c)
DAV:   1    -0.139690394354E+03   -0.87636E-03   -0.18144E-01  6288   0.188E+00    0.579E-02
DAV:   2    -0.139690743078E+03   -0.34872E-03   -0.41727E-03  7208   0.263E-01    0.348E-02
DAV:   3    -0.139690711842E+03    0.31236E-04   -0.92899E-05  7360   0.450E-02    0.248E-02
DAV:   4    -0.139690700976E+03    0.10866E-04   -0.28143E-05  4920   0.230E-02    0.164E-02
DAV:   5    -0.139690687125E+03    0.13851E-04   -0.31051E-05  6432   0.327E-02    0.681E-03
DAV:   6    -0.139690685225E+03    0.19001E-05   -0.11515E-05  4192   0.213E-02
  17 F= -.13969069E+03 E0= -.13968798E+03  d E =-.117141E-02
       N       E                     dE             d eps       ncg     rms          rms(c)
DAV:   1    -0.139690501513E+03    0.18561E-03   -0.61552E-01  6288   0.346E+00    0.107E-01
DAV:   2    -0.139691652420E+03   -0.11509E-02   -0.14300E-02  7192   0.495E-01    0.650E-02
DAV:   3    -0.139691538219E+03    0.11420E-03   -0.37627E-04  7408   0.948E-02    0.477E-02
DAV:   4    -0.139691480396E+03    0.57823E-04   -0.11218E-04  7256   0.493E-02    0.301E-02
DAV:   5    -0.139691390964E+03    0.89432E-04   -0.10603E-04  6968   0.773E-02    0.158E-02
DAV:   6    -0.139691363946E+03    0.27018E-04   -0.57178E-05  7272   0.598E-02    0.134E-02
DAV:   7    -0.139691322324E+03    0.41622E-04   -0.50415E-05  7032   0.913E-02    0.791E-03
DAV:   8    -0.139691287559E+03    0.34766E-04   -0.21765E-05  5600   0.715E-02    0.685E-03
DAV:   9    -0.139691230601E+03    0.56958E-04   -0.65349E-05  7648   0.135E-01    0.134E-02
DAV:  10    -0.139691208913E+03    0.21688E-04   -0.76914E-05  7584   0.962E-02    0.628E-03
DAV:  11    -0.139691208485E+03    0.42741E-06   -0.94887E-05  6600   0.535E-02
  18 F= -.13969121E+03 E0= -.13968844E+03  d E =-.169467E-02
       N       E                     dE             d eps       ncg     rms          rms(c)
DAV:   1    -0.139691230176E+03   -0.21263E-04   -0.35678E-02  6456   0.833E-01    0.244E-02
DAV:   2    -0.139691294515E+03   -0.64340E-04   -0.83812E-04  7232   0.119E-01    0.176E-02
DAV:   3    -0.139691285247E+03    0.92682E-05   -0.21160E-05  5064   0.238E-02    0.126E-02
DAV:   4    -0.139691281697E+03    0.35500E-05   -0.80079E-06  4232   0.145E-02    0.862E-03
DAV:   5    -0.139691275673E+03    0.60243E-05   -0.78337E-06  4600   0.221E-02    0.364E-03
DAV:   6    -0.139691274045E+03    0.16284E-05   -0.64478E-06  4176   0.176E-02
  19 F= -.13969127E+03 E0= -.13968853E+03  d E =-.176023E-02
       N       E                     dE             d eps       ncg     rms          rms(c)
DAV:   1    -0.139691754735E+03   -0.47906E-03   -0.13612E-01  6272   0.161E+00    0.460E-02
DAV:   2    -0.139692011823E+03   -0.25709E-03   -0.27961E-03  7312   0.216E-01    0.255E-02
DAV:   3    -0.139691996247E+03    0.15576E-04   -0.28577E-05  5616   0.262E-02    0.174E-02
DAV:   4    -0.139691988309E+03    0.79381E-05   -0.24759E-05  4912   0.301E-02    0.925E-03
DAV:   5    -0.139691982769E+03    0.55398E-05   -0.27716E-05  5352   0.312E-02    0.581E-03
DAV:   6    -0.139691982845E+03   -0.76686E-07   -0.82499E-06  4040   0.125E-02
  20 F= -.13969198E+03 E0= -.13968921E+03  d E =-.708801E-03
       N       E                     dE             d eps       ncg     rms          rms(c)
DAV:   1    -0.139691354658E+03    0.62811E-03   -0.12257E+00  6272   0.483E+00    0.143E-01
DAV:   2    -0.139693713337E+03   -0.23587E-02   -0.25653E-02  7296   0.652E-01    0.774E-02
DAV:   3    -0.139693577970E+03    0.13537E-03   -0.27300E-04  7504   0.789E-02    0.528E-02
DAV:   4    -0.139693515085E+03    0.62885E-04   -0.27846E-04  7464   0.915E-02    0.263E-02
DAV:   5    -0.139693475002E+03    0.40083E-04   -0.21144E-04  7728   0.744E-02    0.210E-02
DAV:   6    -0.139693471082E+03    0.39196E-05   -0.35667E-05  6200   0.270E-02
  21 F= -.13969347E+03 E0= -.13969062E+03  d E =-.219704E-02
       N       E                     dE             d eps       ncg     rms          rms(c)
DAV:   1    -0.139685102090E+03    0.83729E-02   -0.49018E+00  6272   0.966E+00    0.287E-01
DAV:   2    -0.139694555249E+03   -0.94532E-02   -0.10320E-01  7312   0.131E+00    0.157E-01
DAV:   3    -0.139694005124E+03    0.55013E-03   -0.11012E-03  7496   0.159E-01    0.106E-01
DAV:   4    -0.139693726011E+03    0.27911E-03   -0.12795E-03  7472   0.197E-01    0.495E-02
DAV:   5    -0.139693580849E+03    0.14516E-03   -0.87211E-04  7632   0.138E-01    0.455E-02
DAV:   6    -0.139693555809E+03    0.25040E-04   -0.10616E-04  7112   0.485E-02    0.357E-02
DAV:   7    -0.139693519003E+03    0.36806E-04   -0.97042E-05  7192   0.390E-02    0.188E-02
DAV:   8    -0.139693488213E+03    0.30790E-04   -0.67977E-05  7192   0.485E-02    0.181E-02
DAV:   9    -0.139693466629E+03    0.21584E-04   -0.75799E-05  7000   0.547E-02    0.948E-03
DAV:  10    -0.139693455406E+03    0.11223E-04   -0.24384E-05  5528   0.330E-02    0.916E-03
DAV:  11    -0.139693442003E+03    0.13403E-04   -0.16834E-05  5032   0.336E-02    0.539E-03
DAV:  12    -0.139693434234E+03    0.77695E-05   -0.14186E-05  4528   0.287E-02
  22 F= -.13969343E+03 E0= -.13969047E+03  d E =-.216019E-02
       N       E                     dE             d eps       ncg     rms          rms(c)
DAV:   1    -0.139691878263E+03    0.15637E-02   -0.12186E+00  6288   0.482E+00    0.141E-01
DAV:   2    -0.139694180856E+03   -0.23026E-02   -0.25110E-02  7296   0.647E-01    0.770E-02
DAV:   3    -0.139694043641E+03    0.13721E-03   -0.26607E-04  7456   0.783E-02    0.529E-02
DAV:   4    -0.139693978474E+03    0.65168E-04   -0.25493E-04  7472   0.910E-02    0.269E-02
DAV:   5    -0.139693938358E+03    0.40115E-04   -0.22410E-04  7704   0.827E-02    0.190E-02
DAV:   6    -0.139693937021E+03    0.13368E-05   -0.49988E-05  6536   0.302E-02
  23 F= -.13969394E+03 E0= -.13969102E+03  d E =-.266298E-02
       N       E                     dE             d eps       ncg     rms          rms(c)
DAV:   1    -0.139694279346E+03   -0.34099E-03   -0.42541E-01  6408   0.288E+00    0.797E-02
DAV:   2    -0.139695139467E+03   -0.86012E-03   -0.93995E-03  7144   0.393E-01    0.496E-02
DAV:   3    -0.139695074474E+03    0.64993E-04   -0.14343E-04  7400   0.488E-02    0.342E-02
DAV:   4    -0.139695049364E+03    0.25110E-04   -0.46807E-05  6264   0.276E-02    0.229E-02
DAV:   5    -0.139695016358E+03    0.33006E-04   -0.70577E-05  6896   0.523E-02    0.650E-03
DAV:   6    -0.139695014111E+03    0.22478E-05   -0.27992E-05  5880   0.222E-02
  24 F= -.13969501E+03 E0= -.13969207E+03  d E =-.107709E-02
       N       E                     dE             d eps       ncg     rms          rms(c)
DAV:   1    -0.139690013189E+03    0.50032E-02   -0.38249E+00  6400   0.863E+00    0.252E-01
DAV:   2    -0.139697939445E+03   -0.79263E-02   -0.85342E-02  7120   0.118E+00    0.143E-01
DAV:   3    -0.139697401119E+03    0.53833E-03   -0.11764E-03  7376   0.144E-01    0.966E-02
DAV:   4    -0.139697198279E+03    0.20284E-03   -0.46940E-04  7216   0.880E-02    0.629E-02
DAV:   5    -0.139696937052E+03    0.26123E-03   -0.47938E-04  7576   0.151E-01    0.158E-02
DAV:   6    -0.139696900243E+03    0.36809E-04   -0.23328E-04  7360   0.720E-02    0.156E-02
DAV:   7    -0.139696821060E+03    0.79183E-04   -0.44517E-05  6960   0.561E-02    0.133E-02
DAV:   8    -0.139696751722E+03    0.69339E-04   -0.16170E-05  5496   0.695E-02    0.156E-02
DAV:   9    -0.139696634799E+03    0.11692E-03   -0.94941E-05  8624   0.147E-01    0.114E-02
DAV:  10    -0.139696529985E+03    0.10481E-03   -0.12590E-04  8504   0.171E-01    0.116E-02
DAV:  11    -0.139696471680E+03    0.58305E-04   -0.13251E-04  8160   0.170E-01    0.146E-02
DAV:  12    -0.139696474686E+03   -0.30064E-05   -0.18642E-04  7184   0.954E-02    0.959E-03
DAV:  13    -0.139696481122E+03   -0.64363E-05   -0.77839E-05  6640   0.324E-02
  25 F= -.13969648E+03 E0= -.13969348E+03  d E =-.254410E-02
       N       E                     dE             d eps       ncg     rms          rms(c)
DAV:   1    -0.139696955772E+03   -0.48109E-03   -0.11164E-01  6424   0.148E+00    0.459E-02
DAV:   2    -0.139697191024E+03   -0.23525E-03   -0.27445E-03  7232   0.215E-01    0.307E-02
DAV:   3    -0.139697173810E+03    0.17215E-04   -0.75799E-05  7296   0.377E-02    0.229E-02
DAV:   4    -0.139697167082E+03    0.67275E-05   -0.23094E-05  4432   0.201E-02    0.145E-02
DAV:   5    -0.139697159387E+03    0.76950E-05   -0.26731E-05  5752   0.275E-02    0.691E-03
DAV:   6    -0.139697158897E+03    0.49027E-06   -0.90680E-06  4048   0.155E-02
  26 F= -.13969716E+03 E0= -.13969416E+03  d E =-.677775E-03
       N       E                     dE             d eps       ncg     rms          rms(c)
DAV:   1    -0.139696918339E+03    0.24105E-03   -0.40462E-01  6336   0.282E+00    0.892E-02
DAV:   2    -0.139697789953E+03   -0.87161E-03   -0.10094E-02  7216   0.409E-01    0.571E-02
DAV:   3    -0.139697718539E+03    0.71414E-04   -0.23952E-04  7400   0.717E-02    0.423E-02
DAV:   4    -0.139697689778E+03    0.28761E-04   -0.93428E-05  7256   0.421E-02    0.259E-02
DAV:   5    -0.139697647797E+03    0.41980E-04   -0.81456E-05  7240   0.640E-02    0.118E-02
DAV:   6    -0.139697643418E+03    0.43790E-05   -0.41212E-05  6544   0.358E-02
  27 F= -.13969764E+03 E0= -.13969463E+03  d E =-.116230E-02
       N       E                     dE             d eps       ncg     rms          rms(c)
DAV:   1    -0.139697868720E+03   -0.22092E-03   -0.26793E-02  6320   0.712E-01    0.246E-02
DAV:   2    -0.139697901366E+03   -0.32646E-04   -0.60452E-04  7344   0.990E-02    0.164E-02
DAV:   3    -0.139697884274E+03    0.17091E-04   -0.50833E-05  5360   0.240E-02    0.101E-02
DAV:   4    -0.139697874586E+03    0.96880E-05   -0.80093E-06  4384   0.148E-02    0.692E-03
DAV:   5    -0.139697858425E+03    0.16162E-04   -0.39136E-06  4560   0.312E-02    0.388E-03
DAV:   6    -0.139697837766E+03    0.20659E-04   -0.10693E-05  4960   0.479E-02    0.456E-03
DAV:   7    -0.139697801480E+03    0.36286E-04   -0.45071E-05  7120   0.121E-01    0.529E-03
DAV:   8    -0.139697794902E+03    0.65784E-05   -0.56828E-05  6760   0.639E-02
  28 F= -.13969779E+03 E0= -.13969479E+03  d E =-.151483E-03
       N       E                     dE             d eps       ncg     rms          rms(c)
DAV:   1    -0.139697875304E+03   -0.73823E-04   -0.26563E-02  6496   0.708E-01    0.247E-02
DAV:   2    -0.139697913223E+03   -0.37920E-04   -0.57826E-04  7376   0.973E-02    0.141E-02
DAV:   3    -0.139697903021E+03    0.10202E-04   -0.36016E-05  5152   0.186E-02    0.912E-03
DAV:   4    -0.139697898820E+03    0.42017E-05   -0.52350E-06  4232   0.904E-03    0.644E-03
DAV:   5    -0.139697891414E+03    0.74056E-05   -0.63892E-06  4592   0.215E-02    0.246E-03
DAV:   6    -0.139697888215E+03    0.31988E-05   -0.63311E-06  4296   0.157E-02
  29 F= -.13969789E+03 E0= -.13969489E+03  d E =-.244797E-03
       N       E                     dE             d eps       ncg     rms          rms(c)
DAV:   1    -0.139698063188E+03   -0.17177E-03   -0.53045E-02  6472   0.102E+00    0.312E-02
DAV:   2    -0.139698180750E+03   -0.11756E-03   -0.12919E-03  7232   0.143E-01    0.189E-02
DAV:   3    -0.139698169568E+03    0.11182E-04   -0.31572E-05  5128   0.181E-02    0.124E-02
DAV:   4    -0.139698166225E+03    0.33426E-05   -0.73813E-06  4176   0.112E-02    0.843E-03
DAV:   5    -0.139698163015E+03    0.32105E-05   -0.77007E-06  4256   0.188E-02    0.225E-03
DAV:   6    -0.139698163157E+03   -0.14195E-06   -0.45892E-06  3784   0.108E-02
  30 F= -.13969816E+03 E0= -.13969516E+03  d E =-.274941E-03
       N       E                     dE             d eps       ncg     rms          rms(c)
DAV:   1    -0.139697703492E+03    0.45952E-03   -0.47479E-01  6416   0.304E+00    0.949E-02
DAV:   2    -0.139698720896E+03   -0.10174E-02   -0.11380E-02  7272   0.431E-01    0.572E-02
DAV:   3    -0.139698621578E+03    0.99318E-04   -0.28783E-04  7256   0.616E-02    0.387E-02
DAV:   4    -0.139698583319E+03    0.38259E-04   -0.68609E-05  6824   0.370E-02    0.262E-02
DAV:   5    -0.139698526684E+03    0.56635E-04   -0.80598E-05  7200   0.733E-02    0.992E-03
DAV:   6    -0.139698518460E+03    0.82241E-05   -0.51920E-05  6768   0.429E-02
  31 F= -.13969852E+03 E0= -.13969551E+03  d E =-.630245E-03
       N       E                     dE             d eps       ncg     rms          rms(c)
DAV:   1    -0.139698554293E+03   -0.27608E-04   -0.12218E-01  6480   0.151E+00    0.501E-02
DAV:   2    -0.139698823291E+03   -0.26900E-03   -0.31097E-03  7144   0.211E-01    0.269E-02
DAV:   3    -0.139698794930E+03    0.28361E-04   -0.27797E-05  6360   0.281E-02    0.186E-02
DAV:   4    -0.139698755138E+03    0.39792E-04   -0.33953E-05  6392   0.482E-02    0.621E-03
DAV:   5    -0.139698738894E+03    0.16244E-04   -0.30882E-05  6232   0.352E-02    0.641E-03
DAV:   6    -0.139698722760E+03    0.16134E-04   -0.90408E-06  4664   0.327E-02    0.487E-03
DAV:   7    -0.139698685112E+03    0.37648E-04   -0.16567E-05  5152   0.722E-02    0.932E-03
DAV:   8    -0.139698661572E+03    0.23539E-04   -0.30961E-05  6200   0.617E-02    0.849E-03
DAV:   9    -0.139698646131E+03    0.15441E-04   -0.43189E-05  6720   0.615E-02    0.720E-03
DAV:  10    -0.139698622935E+03    0.23196E-04   -0.24049E-05  5680   0.117E-01    0.584E-03
DAV:  11    -0.139698623963E+03   -0.10279E-05   -0.63810E-05  6800   0.608E-02
  32 F= -.13969862E+03 E0= -.13969561E+03  d E =-.105503E-03
       N       E                     dE             d eps       ncg     rms          rms(c)
DAV:   1    -0.139698606498E+03    0.16437E-04   -0.31433E-02  6624   0.764E-01    0.252E-02
DAV:   2    -0.139698679897E+03   -0.73399E-04   -0.81978E-04  7152   0.108E-01    0.140E-02
DAV:   3    -0.139698675756E+03    0.41412E-05   -0.11201E-05  4760   0.156E-02    0.993E-03
DAV:   4    -0.139698673094E+03    0.26618E-05   -0.64350E-06  4264   0.145E-02    0.472E-03
DAV:   5    -0.139698671981E+03    0.11134E-05   -0.57777E-06  4056   0.104E-02    0.265E-03
DAV:   6    -0.139698671633E+03    0.34799E-06   -0.90482E-07  3928   0.425E-03
  33 F= -.13969867E+03 E0= -.13969566E+03  d E =-.153173E-03
       N       E                     dE             d eps       ncg     rms          rms(c)
DAV:   1    -0.139698914562E+03   -0.24258E-03   -0.70398E-02  6432   0.115E+00    0.385E-02
DAV:   2    -0.139699059954E+03   -0.14539E-03   -0.18444E-03  7160   0.168E-01    0.230E-02
DAV:   3    -0.139699042231E+03    0.17724E-04   -0.40486E-05  7224   0.399E-02    0.168E-02
DAV:   4    -0.139699024909E+03    0.17322E-04   -0.14103E-05  5224   0.349E-02    0.861E-03
DAV:   5    -0.139699011162E+03    0.13746E-04   -0.17946E-05  5464   0.462E-02    0.485E-03
DAV:   6    -0.139699008258E+03    0.29038E-05   -0.23391E-05  5128   0.303E-02
  34 F= -.13969901E+03 E0= -.13969599E+03  d E =-.336625E-03
       N       E                     dE             d eps       ncg     rms          rms(c)
DAV:   1    -0.139699024995E+03   -0.13833E-04   -0.32267E-02  6408   0.776E-01    0.264E-02
DAV:   2    -0.139699083282E+03   -0.58286E-04   -0.85643E-04  7160   0.119E-01    0.160E-02
DAV:   3    -0.139699069887E+03    0.13395E-04   -0.23607E-05  5760   0.345E-02    0.122E-02
DAV:   4    -0.139699053775E+03    0.16112E-04   -0.69669E-06  4488   0.337E-02    0.701E-03
DAV:   5    -0.139699034353E+03    0.19422E-04   -0.16379E-05  5272   0.538E-02    0.459E-03
DAV:   6    -0.139699033065E+03    0.12880E-05   -0.25352E-05  5360   0.226E-02
  35 F= -.13969903E+03 E0= -.13969601E+03  d E =-.361432E-03
       N       E                     dE             d eps       ncg     rms          rms(c)
DAV:   1    -0.139699256220E+03   -0.22187E-03   -0.43154E-03  6336   0.287E-01    0.144E-02
DAV:   2    -0.139699246359E+03    0.98603E-05   -0.14437E-04  7320   0.507E-02    0.104E-02
DAV:   3    -0.139699230918E+03    0.15442E-04   -0.16865E-05  4936   0.241E-02    0.744E-03
DAV:   4    -0.139699222917E+03    0.80006E-05   -0.64440E-06  4256   0.149E-02    0.616E-03
DAV:   5    -0.139699193756E+03    0.29162E-04   -0.46690E-06  4696   0.406E-02    0.464E-03
DAV:   6    -0.139699134992E+03    0.58764E-04   -0.44499E-05  7008   0.103E-01    0.735E-03
DAV:   7    -0.139699105866E+03    0.29126E-04   -0.53623E-05  7408   0.910E-02    0.472E-03
DAV:   8    -0.139699075399E+03    0.30467E-04   -0.37043E-05  6272   0.137E-01    0.576E-03
DAV:   9    -0.139699078423E+03   -0.30243E-05   -0.11013E-04  6896   0.729E-02    0.838E-03
DAV:  10    -0.139699080890E+03   -0.24673E-05   -0.38638E-05  5696   0.214E-02
  36 F= -.13969908E+03 E0= -.13969607E+03  d E =-.478247E-04
       N       E                     dE             d eps       ncg     rms          rms(c)
DAV:   1    -0.139699080484E+03   -0.20610E-05   -0.93282E-04  6800   0.134E-01    0.128E-02
DAV:   2    -0.139699075970E+03    0.45139E-05   -0.37805E-05  6328   0.284E-02    0.597E-03
DAV:   3    -0.139699073496E+03    0.24743E-05   -0.96513E-06  4400   0.133E-02    0.371E-03
DAV:   4    -0.139699071978E+03    0.15179E-05   -0.22495E-06  3928   0.586E-03    0.262E-03
DAV:   5    -0.139699069668E+03    0.23102E-05   -0.13962E-06  4320   0.952E-03    0.185E-03
DAV:   6    -0.139699067148E+03    0.25199E-05   -0.24411E-06  4336   0.129E-02
  37 F= -.13969907E+03 E0= -.13969606E+03  d E =-.340822E-04
       N       E                     dE             d eps       ncg     rms          rms(c)
DAV:   1    -0.139699258167E+03   -0.18850E-03   -0.30996E-02  6656   0.768E-01    0.252E-02
DAV:   2    -0.139699300917E+03   -0.42750E-04   -0.72099E-04  7360   0.119E-01    0.163E-02
DAV:   3    -0.139699288670E+03    0.12246E-04   -0.39213E-05  6736   0.341E-02    0.124E-02
DAV:   4    -0.139699282011E+03    0.66595E-05   -0.71740E-06  4280   0.159E-02    0.914E-03
DAV:   5    -0.139699268019E+03    0.13991E-04   -0.12883E-05  5160   0.338E-02    0.517E-03
DAV:   6    -0.139699261595E+03    0.64248E-05   -0.13880E-05  4880   0.316E-02
  38 F= -.13969926E+03 E0= -.13969626E+03  d E =-.194447E-03
