  19  19   0   0
  0.1525485E+02  0.3004406E-09  0.3004406E-09  0.3707778E-08  0.5000000E-15
  1.000000000000000E-004
  CAR 
 Al110                                   
     11.54212604    -19.42247202  301      2.90320763      1.00000000
    -19.422  0.0000E+00  0.0000E+00
    -19.319  0.0000E+00  0.0000E+00
    -19.216  0.0000E+00  0.0000E+00
    -19.113  0.0000E+00  0.0000E+00
    -19.010  0.0000E+00  0.0000E+00
    -18.906  0.0000E+00  0.0000E+00
    -18.803  0.0000E+00  0.0000E+00
    -18.700  0.0000E+00  0.0000E+00
    -18.597  0.0000E+00  0.0000E+00
    -18.494  0.0000E+00  0.0000E+00
    -18.390  0.0000E+00  0.0000E+00
    -18.287  0.8471E-17  0.8743E-18
    -18.184  0.1077E-08  0.1111E-09
    -18.081  0.3838E-04  0.3962E-05
    -17.977  0.1248E-02  0.1327E-03
    -17.874  0.1549E-02  0.2927E-03
    -17.771  0.4398E-02  0.7466E-03
    -17.668  0.4651E-02  0.1227E-02
    -17.565  0.6813E-02  0.1930E-02
    -17.461  0.9103E-02  0.2869E-02
    -17.358  0.1065E-01  0.3968E-02
    -17.255  0.1247E-01  0.5256E-02
    -17.152  0.1545E-01  0.6851E-02
    -17.049  0.2101E-01  0.9020E-02
    -16.945  0.2702E-01  0.1181E-01
    -16.842  0.3419E-01  0.1534E-01
    -16.739  0.4022E-01  0.1949E-01
    -16.636  0.4783E-01  0.2443E-01
    -16.532  0.4930E-01  0.2951E-01
    -16.429  0.4161E-01  0.3381E-01
    -16.326  0.2076E-01  0.3595E-01
    -16.223  0.4705E-03  0.3600E-01
    -16.120  0.1739E-07  0.3600E-01
    -16.016  0.2537E-15  0.3600E-01
    -15.913  0.0000E+00  0.3600E-01
    -15.810  0.0000E+00  0.3600E-01
    -15.707  0.0000E+00  0.3600E-01
    -15.604  0.0000E+00  0.3600E-01
    -15.500  0.0000E+00  0.3600E-01
    -15.397  0.0000E+00  0.3600E-01
    -15.294  0.0000E+00  0.3600E-01
    -15.191  0.0000E+00  0.3600E-01
    -15.087  0.0000E+00  0.3600E-01
    -14.984  0.0000E+00  0.3600E-01
    -14.881  0.0000E+00  0.3600E-01
    -14.778  0.0000E+00  0.3600E-01
    -14.675  0.0000E+00  0.3600E-01
    -14.571  0.0000E+00  0.3600E-01
    -14.468  0.0000E+00  0.3600E-01
    -14.365  0.0000E+00  0.3600E-01
    -14.262  0.0000E+00  0.3600E-01
    -14.158  0.0000E+00  0.3600E-01
    -14.055  0.0000E+00  0.3600E-01
    -13.952  0.0000E+00  0.3600E-01
    -13.849  0.0000E+00  0.3600E-01
    -13.746  0.0000E+00  0.3600E-01
    -13.642  0.0000E+00  0.3600E-01
    -13.539  0.0000E+00  0.3600E-01
    -13.436  0.0000E+00  0.3600E-01
    -13.333  0.0000E+00  0.3600E-01
    -13.230  0.0000E+00  0.3600E-01
    -13.126  0.0000E+00  0.3600E-01
    -13.023  0.0000E+00  0.3600E-01
    -12.920  0.0000E+00  0.3600E-01
    -12.817  0.0000E+00  0.3600E-01
    -12.713  0.0000E+00  0.3600E-01
    -12.610  0.0000E+00  0.3600E-01
    -12.507  0.0000E+00  0.3600E-01
    -12.404  0.0000E+00  0.3600E-01
    -12.301  0.0000E+00  0.3600E-01
    -12.197  0.0000E+00  0.3600E-01
    -12.094  0.0000E+00  0.3600E-01
    -11.991  0.0000E+00  0.3600E-01
    -11.888  0.0000E+00  0.3600E-01
    -11.785  0.0000E+00  0.3600E-01
    -11.681  0.0000E+00  0.3600E-01
    -11.578  0.0000E+00  0.3600E-01
    -11.475  0.0000E+00  0.3600E-01
    -11.372  0.0000E+00  0.3600E-01
    -11.268  0.0000E+00  0.3600E-01
    -11.165  0.0000E+00  0.3600E-01
    -11.062  0.0000E+00  0.3600E-01
    -10.959  0.0000E+00  0.3600E-01
    -10.856  0.0000E+00  0.3600E-01
    -10.752  0.0000E+00  0.3600E-01
    -10.649  0.0000E+00  0.3600E-01
    -10.546  0.0000E+00  0.3600E-01
    -10.443  0.0000E+00  0.3600E-01
    -10.340  0.0000E+00  0.3600E-01
    -10.236  0.0000E+00  0.3600E-01
    -10.133  0.0000E+00  0.3600E-01
    -10.030  0.0000E+00  0.3600E-01
     -9.927  0.0000E+00  0.3600E-01
     -9.823  0.0000E+00  0.3600E-01
     -9.720  0.0000E+00  0.3600E-01
     -9.617  0.0000E+00  0.3600E-01
     -9.514  0.0000E+00  0.3600E-01
     -9.411  0.0000E+00  0.3600E-01
     -9.307  0.0000E+00  0.3600E-01
     -9.204  0.0000E+00  0.3600E-01
     -9.101  0.0000E+00  0.3600E-01
     -8.998  0.0000E+00  0.3600E-01
     -8.895  0.0000E+00  0.3600E-01
     -8.791  0.0000E+00  0.3600E-01
     -8.688  0.0000E+00  0.3600E-01
     -8.585  0.0000E+00  0.3600E-01
     -8.482  0.0000E+00  0.3600E-01
     -8.378  0.0000E+00  0.3600E-01
     -8.275  0.0000E+00  0.3600E-01
     -8.172  0.0000E+00  0.3600E-01
     -8.069  0.0000E+00  0.3600E-01
     -7.966  0.0000E+00  0.3600E-01
     -7.862  0.0000E+00  0.3600E-01
     -7.759  0.0000E+00  0.3600E-01
     -7.656  0.0000E+00  0.3600E-01
     -7.553  0.0000E+00  0.3600E-01
     -7.449  0.0000E+00  0.3600E-01
     -7.346  0.0000E+00  0.3600E-01
     -7.243  0.0000E+00  0.3600E-01
     -7.140  0.0000E+00  0.3600E-01
     -7.037  0.0000E+00  0.3600E-01
     -6.933  0.0000E+00  0.3600E-01
     -6.830  0.0000E+00  0.3600E-01
     -6.727  0.0000E+00  0.3600E-01
     -6.624  0.0000E+00  0.3600E-01
     -6.521  0.0000E+00  0.3600E-01
     -6.417  0.0000E+00  0.3600E-01
     -6.314  0.0000E+00  0.3600E-01
     -6.211  0.0000E+00  0.3600E-01
     -6.108  0.0000E+00  0.3600E-01
     -6.004  0.0000E+00  0.3600E-01
     -5.901  0.0000E+00  0.3600E-01
     -5.798  0.0000E+00  0.3600E-01
     -5.695  0.0000E+00  0.3600E-01
     -5.592  0.1452E-16  0.3600E-01
     -5.488  0.1955E-08  0.3600E-01
     -5.385  0.7684E-04  0.3601E-01
     -5.282  0.3226E-02  0.3634E-01
     -5.179  0.3593E-02  0.3671E-01
     -5.076  0.6119E-02  0.3734E-01
     -4.972  0.8513E-02  0.3822E-01
     -4.869  0.1199E-01  0.3946E-01
     -4.766  0.1491E-01  0.4100E-01
     -4.663  0.2325E-01  0.4340E-01
     -4.559  0.2785E-01  0.4627E-01
     -4.456  0.3729E-01  0.5012E-01
     -4.353  0.3756E-01  0.5400E-01
     -4.250  0.3597E-01  0.5771E-01
     -4.147  0.3257E-01  0.6107E-01
     -4.043  0.2079E-01  0.6322E-01
     -3.940  0.1546E-01  0.6482E-01
     -3.837  0.1475E-01  0.6634E-01
     -3.734  0.1237E-01  0.6762E-01
     -3.631  0.1399E-01  0.6906E-01
     -3.527  0.1247E-01  0.7035E-01
     -3.424  0.1010E-01  0.7139E-01
     -3.321  0.1971E-01  0.7342E-01
     -3.218  0.1545E-01  0.7502E-01
     -3.114  0.1478E-01  0.7654E-01
     -3.011  0.1975E-01  0.7858E-01
     -2.908  0.2016E-01  0.8066E-01
     -2.805  0.2030E-01  0.8276E-01
     -2.702  0.1467E-01  0.8427E-01
     -2.598  0.2376E-01  0.8672E-01
     -2.495  0.2634E-01  0.8944E-01
     -2.392  0.2361E-01  0.9188E-01
     -2.289  0.3133E-01  0.9511E-01
     -2.186  0.4084E-01  0.9933E-01
     -2.082  0.4565E-01  0.1040E+00
     -1.979  0.3822E-01  0.1080E+00
     -1.876  0.4766E-01  0.1129E+00
     -1.773  0.4862E-01  0.1179E+00
     -1.669  0.4627E-01  0.1227E+00
     -1.566  0.4585E-01  0.1274E+00
     -1.463  0.4601E-01  0.1322E+00
     -1.360  0.3583E-01  0.1359E+00
     -1.257  0.2775E-01  0.1387E+00
     -1.153  0.1900E-01  0.1407E+00
     -1.050  0.1553E-01  0.1423E+00
     -0.947  0.1016E-01  0.1434E+00
     -0.844  0.4946E-02  0.1439E+00
     -0.740  0.1277E-02  0.1440E+00
     -0.637  0.2709E-04  0.1440E+00
     -0.534  0.5037E-09  0.1440E+00
     -0.431  0.2555E-17  0.1440E+00
     -0.328  0.0000E+00  0.1440E+00
     -0.224  0.0000E+00  0.1440E+00
     -0.121  0.0000E+00  0.1440E+00
     -0.018  0.0000E+00  0.1440E+00
      0.085  0.0000E+00  0.1440E+00
      0.188  0.0000E+00  0.1440E+00
      0.292  0.6118E-17  0.1440E+00
      0.395  0.8763E-09  0.1440E+00
      0.498  0.3545E-04  0.1440E+00
      0.601  0.1420E-02  0.1442E+00
      0.705  0.1408E-02  0.1443E+00
      0.808  0.1856E-02  0.1445E+00
      0.911  0.1497E-03  0.1445E+00
      1.014  0.2753E-02  0.1448E+00
      1.117  0.2913E-02  0.1451E+00
      1.221  0.1557E-02  0.1452E+00
      1.324  0.2779E-03  0.1453E+00
      1.427  0.4087E-02  0.1457E+00
      1.530  0.4979E-03  0.1457E+00
      1.633  0.9851E-06  0.1458E+00
      1.737  0.1260E-02  0.1459E+00
      1.840  0.4294E-02  0.1463E+00
      1.943  0.4000E-02  0.1467E+00
      2.046  0.1896E-03  0.1468E+00
      2.150  0.1936E-02  0.1470E+00
      2.253  0.1265E-02  0.1471E+00
      2.356  0.1574E-02  0.1472E+00
      2.459  0.7741E-03  0.1473E+00
      2.562  0.3949E-02  0.1477E+00
      2.666  0.1356E-03  0.1477E+00
      2.769  0.3607E-06  0.1478E+00
      2.872  0.9140E-03  0.1478E+00
      2.975  0.4614E-02  0.1483E+00
      3.078  0.4032E-02  0.1487E+00
      3.182  0.6213E-03  0.1488E+00
      3.285  0.4109E-02  0.1492E+00
      3.388  0.2425E-03  0.1492E+00
      3.491  0.9914E-04  0.1493E+00
      3.595  0.2282E-02  0.1495E+00
      3.698  0.4436E-02  0.1500E+00
      3.801  0.4491E-03  0.1500E+00
      3.904  0.3147E-03  0.1500E+00
      4.007  0.4405E-02  0.1505E+00
      4.111  0.1327E-02  0.1506E+00
      4.214  0.3485E-04  0.1506E+00
      4.317  0.1881E-02  0.1508E+00
      4.420  0.9849E-02  0.1518E+00
      4.523  0.2772E-02  0.1521E+00
      4.627  0.4144E-05  0.1521E+00
      4.730  0.1668E-03  0.1521E+00
      4.833  0.1155E-02  0.1523E+00
      4.936  0.1105E-02  0.1524E+00
      5.040  0.2801E-02  0.1527E+00
      5.143  0.2197E-02  0.1529E+00
      5.246  0.1115E-02  0.1530E+00
      5.349  0.2985E-02  0.1533E+00
      5.452  0.1793E-02  0.1535E+00
      5.556  0.2062E-02  0.1537E+00
      5.659  0.7663E-02  0.1545E+00
      5.762  0.3702E-02  0.1549E+00
      5.865  0.2669E-02  0.1552E+00
      5.968  0.3270E-02  0.1555E+00
      6.072  0.7597E-02  0.1563E+00
      6.175  0.3319E-02  0.1566E+00
      6.278  0.1931E-02  0.1568E+00
      6.381  0.5986E-02  0.1574E+00
      6.485  0.7904E-02  0.1583E+00
      6.588  0.4785E-02  0.1588E+00
      6.691  0.1025E-01  0.1598E+00
      6.794  0.7943E-02  0.1606E+00
      6.897  0.8719E-02  0.1615E+00
      7.001  0.1369E-01  0.1629E+00
      7.104  0.1031E-01  0.1640E+00
      7.207  0.1139E-01  0.1652E+00
      7.310  0.6303E-02  0.1658E+00
      7.414  0.9346E-02  0.1668E+00
      7.517  0.1535E-01  0.1684E+00
      7.620  0.9429E-02  0.1694E+00
      7.723  0.7751E-02  0.1702E+00
      7.826  0.1307E-01  0.1715E+00
      7.930  0.9562E-02  0.1725E+00
      8.033  0.1148E-01  0.1737E+00
      8.136  0.1214E-01  0.1749E+00
      8.239  0.9501E-02  0.1759E+00
      8.342  0.1796E-01  0.1778E+00
      8.446  0.1241E-01  0.1790E+00
      8.549  0.7245E-02  0.1798E+00
      8.652  0.1653E-01  0.1815E+00
      8.755  0.1903E-01  0.1835E+00
      8.859  0.2350E-01  0.1859E+00
      8.962  0.1765E-01  0.1877E+00
      9.065  0.2239E-01  0.1900E+00
      9.168  0.2242E-01  0.1923E+00
      9.271  0.1436E-01  0.1938E+00
      9.375  0.1452E-01  0.1953E+00
      9.478  0.1336E-01  0.1967E+00
      9.581  0.5364E-02  0.1972E+00
      9.684  0.4974E-02  0.1978E+00
      9.787  0.4569E-02  0.1982E+00
      9.891  0.8101E-02  0.1991E+00
      9.994  0.5107E-02  0.1996E+00
     10.097  0.9098E-03  0.1997E+00
     10.200  0.2908E-02  0.2000E+00
     10.304  0.8763E-04  0.2000E+00
     10.407  0.1907E-08  0.2000E+00
     10.510  0.1224E-16  0.2000E+00
     10.613  0.0000E+00  0.2000E+00
     10.716  0.0000E+00  0.2000E+00
     10.820  0.0000E+00  0.2000E+00
     10.923  0.0000E+00  0.2000E+00
     11.026  0.0000E+00  0.2000E+00
     11.129  0.0000E+00  0.2000E+00
     11.232  0.0000E+00  0.2000E+00
     11.336  0.0000E+00  0.2000E+00
     11.439  0.0000E+00  0.2000E+00
     11.542  0.0000E+00  0.2000E+00
