       N       E                     dE             d eps       ncg     rms          rms(c)
DAV:   1     0.494730419886E+03    0.49473E+03   -0.31481E+04  2000   0.113E+03
DAV:   2    -0.611219631595E+02   -0.55585E+03   -0.53600E+03  2620   0.280E+02
DAV:   3    -0.120695656339E+03   -0.59574E+02   -0.59171E+02  2390   0.985E+01
DAV:   4    -0.121924279336E+03   -0.12286E+01   -0.12260E+01  2670   0.161E+01
DAV:   5    -0.121945087417E+03   -0.20808E-01   -0.20801E-01  2540   0.192E+00
DAV:   6    -0.121945649618E+03   -0.56220E-03   -0.56206E-03  2660   0.305E-01
DAV:   7    -0.121945669502E+03   -0.19884E-04   -0.19882E-04  2530   0.512E-02
DAV:   8    -0.121945670183E+03   -0.68072E-06   -0.68066E-06  2000   0.970E-03    0.220E+01
RMM:   9    -0.107353289769E+03    0.14592E+02   -0.69001E+01  2000   0.295E+01    0.705E+00
RMM:  10    -0.107090606780E+03    0.26268E+00   -0.62832E-01  2006   0.308E+00    0.459E+00
RMM:  11    -0.107213426754E+03   -0.12282E+00   -0.57010E-01  2000   0.445E+00    0.146E+00
RMM:  12    -0.107016089985E+03    0.19734E+00   -0.31224E-02  2000   0.537E-01    0.872E-01
RMM:  13    -0.106984572054E+03    0.31518E-01   -0.58282E-02  2001   0.832E-01    0.283E-01
RMM:  14    -0.106992870452E+03   -0.82984E-02   -0.35261E-02  2000   0.665E-01    0.363E-01
RMM:  15    -0.106993834959E+03   -0.96451E-03   -0.69557E-03  2000   0.301E-01    0.222E-01
RMM:  16    -0.106984795724E+03    0.90392E-02   -0.89619E-04  2000   0.985E-02    0.400E-02
RMM:  17    -0.106985724620E+03   -0.92890E-03   -0.11394E-04  1814   0.319E-02    0.119E-01
RMM:  18    -0.106985198948E+03    0.52567E-03   -0.61506E-05  1712   0.204E-02    0.834E-02
RMM:  19    -0.106984781464E+03    0.41748E-03   -0.88192E-06  1276   0.118E-02    0.272E-02
RMM:  20    -0.106984737493E+03    0.43971E-04   -0.27774E-06  1060   0.543E-03    0.164E-03
RMM:  21    -0.106984739721E+03   -0.22287E-05   -0.82809E-07   855   0.371E-03
   1 F= -.10698474E+03 E0= -.10698296E+03  d E =-.106985E+03
       N       E                     dE             d eps       ncg     rms          rms(c)
DAV:   1    -0.106997859773E+03   -0.13122E-01   -0.22034E+00  2080   0.699E+00
DAV:   2    -0.107002184169E+03   -0.43244E-02   -0.43243E-02  2340   0.848E-01
DAV:   3    -0.107002207370E+03   -0.23201E-04   -0.23201E-04  2570   0.630E-02
DAV:   4    -0.107002207646E+03   -0.27549E-06   -0.27575E-06  1860   0.667E-03
DAV:   5    -0.107002207686E+03   -0.40376E-07   -0.40547E-07  1530   0.235E-03
DAV:   6    -0.107002207698E+03   -0.12087E-07   -0.11982E-07  1510   0.117E-03
DAV:   7    -0.107002207702E+03   -0.37853E-08   -0.39689E-08  1460   0.659E-04
DAV:   8    -0.107002207704E+03   -0.19227E-08   -0.13551E-08  1450   0.361E-04    0.202E-01
RMM:   9    -0.107074516324E+03   -0.72309E-01   -0.10186E-02  2000   0.253E-01    0.710E-01
RMM:  10    -0.106999259065E+03    0.75257E-01   -0.41839E-03  2000   0.163E-01    0.200E-01
RMM:  11    -0.107010504243E+03   -0.11245E-01   -0.39102E-03  2000   0.157E-01    0.207E-01
RMM:  12    -0.107000225839E+03    0.10278E-01   -0.26293E-04  1821   0.453E-02    0.190E-01
RMM:  13    -0.106998272488E+03    0.19534E-02   -0.43039E-04  1820   0.472E-02    0.167E-01
RMM:  14    -0.106996257507E+03    0.20150E-02   -0.73011E-05  1733   0.229E-02    0.357E-02
RMM:  15    -0.106996232761E+03    0.24746E-04   -0.91746E-06  1246   0.105E-02    0.317E-02
RMM:  16    -0.106996317641E+03   -0.84881E-04   -0.13579E-05  1230   0.921E-03    0.483E-02
RMM:  17    -0.106996167496E+03    0.15015E-03   -0.22250E-06  1029   0.521E-03    0.410E-03
RMM:  18    -0.106996168629E+03   -0.11332E-05   -0.18830E-07   556   0.265E-03
   2 F= -.10699617E+03 E0= -.10699439E+03  d E =-.114289E-01
       N       E                     dE             d eps       ncg     rms          rms(c)
DAV:   1    -0.106996386385E+03   -0.21889E-03   -0.49710E-02  2310   0.101E+00
DAV:   2    -0.106996475416E+03   -0.89031E-04   -0.89031E-04  2330   0.115E-01
DAV:   3    -0.106996475878E+03   -0.46156E-06   -0.46173E-06  1930   0.849E-03
DAV:   4    -0.106996475924E+03   -0.46326E-07   -0.46371E-07  1450   0.260E-03
DAV:   5    -0.106996475936E+03   -0.12085E-07   -0.11686E-07  1450   0.119E-03
DAV:   6    -0.106996475939E+03   -0.30304E-08   -0.34974E-08  1450   0.624E-04
DAV:   7    -0.106996475940E+03   -0.94587E-09   -0.11128E-08  1420   0.331E-04
DAV:   8    -0.106996475941E+03   -0.87311E-09   -0.37151E-09  1420   0.186E-04    0.340E-02
RMM:   9    -0.107002208198E+03   -0.57323E-02   -0.31825E-04  1836   0.441E-02    0.226E-01
RMM:  10    -0.106996357695E+03    0.58505E-02   -0.16811E-04  1820   0.330E-02    0.225E-02
RMM:  11    -0.106996351596E+03    0.60998E-05   -0.49589E-05  1594   0.199E-02
   3 F= -.10699635E+03 E0= -.10699459E+03  d E =-.116119E-01
       N       E                     dE             d eps       ncg     rms          rms(c)
DAV:   1    -0.106996323210E+03    0.34486E-04   -0.22534E-03  2370   0.234E-01
DAV:   2    -0.106996329589E+03   -0.63796E-05   -0.63796E-05  2420   0.327E-02
DAV:   3    -0.106996329611E+03   -0.21653E-07   -0.21438E-07  1520   0.190E-03
DAV:   4    -0.106996329614E+03   -0.33770E-08   -0.33360E-08  1400   0.677E-04
DAV:   5    -0.106996329615E+03   -0.62209E-09   -0.81987E-09  1330   0.312E-04
DAV:   6    -0.106996329615E+03   -0.14916E-09   -0.23308E-09  1330   0.158E-04
DAV:   7    -0.106996329615E+03   -0.98225E-10   -0.71561E-10  1310   0.830E-05
DAV:   8    -0.106996329615E+03   -0.18554E-09   -0.23631E-10  1200   0.457E-05    0.125E-02
RMM:   9    -0.106997220556E+03   -0.89094E-03   -0.37983E-05  1590   0.150E-02    0.112E-01
RMM:  10    -0.106996315261E+03    0.90530E-03   -0.23075E-05  1393   0.129E-02    0.416E-03
RMM:  11    -0.106996317261E+03   -0.20002E-05   -0.30292E-06  1008   0.579E-03
   4 F= -.10699632E+03 E0= -.10699454E+03  d E =-.115775E-01
       N       E                     dE             d eps       ncg     rms          rms(c)
DAV:   1    -0.106996328219E+03   -0.12958E-04   -0.86550E-04  2360   0.134E-01
DAV:   2    -0.106996330380E+03   -0.21616E-05   -0.21612E-05  2150   0.178E-02
DAV:   3    -0.106996330404E+03   -0.23678E-07   -0.23486E-07  1240   0.180E-03
DAV:   4    -0.106996330407E+03   -0.31905E-08   -0.38166E-08  1200   0.644E-04
DAV:   5    -0.106996330408E+03   -0.12587E-08   -0.88457E-09  1150   0.297E-04
DAV:   6    -0.106996330408E+03   -0.72760E-10   -0.23697E-09  1150   0.149E-04
DAV:   7    -0.106996330409E+03   -0.24738E-09   -0.70547E-10  1060   0.793E-05
DAV:   8    -0.106996330409E+03   -0.25830E-09   -0.22657E-10  1060   0.434E-05    0.510E-03
RMM:   9    -0.106996490935E+03   -0.16053E-03   -0.59855E-06  1142   0.647E-03    0.508E-02
RMM:  10    -0.106996327267E+03    0.16367E-03   -0.27773E-06   959   0.503E-03    0.212E-03
RMM:  11    -0.106996328390E+03   -0.11228E-05   -0.10009E-06   823   0.368E-03
   5 F= -.10699633E+03 E0= -.10699455E+03  d E =-.115887E-01
       N       E                     dE             d eps       ncg     rms          rms(c)
DAV:   1    -0.106996330998E+03   -0.37307E-05   -0.83257E-05  2090   0.416E-02
DAV:   2    -0.106996331164E+03   -0.16623E-06   -0.16638E-06  1380   0.519E-03
DAV:   3    -0.106996331173E+03   -0.87030E-08   -0.84262E-08  1130   0.117E-03
DAV:   4    -0.106996331174E+03   -0.63574E-09   -0.99863E-09  1100   0.390E-04
DAV:   5    -0.106996331174E+03   -0.21100E-09   -0.18399E-09  1060   0.154E-04
DAV:   6    -0.106996331174E+03    0.80036E-10   -0.42317E-10  1060   0.716E-05
DAV:   7    -0.106996331174E+03   -0.30195E-09   -0.12017E-10  1060   0.353E-05
DAV:   8    -0.106996331174E+03   -0.25466E-10   -0.38774E-11  1050   0.186E-05    0.136E-03
RMM:   9    -0.106996341462E+03   -0.10288E-04    0.00000E+00   334   0.182E-03    0.129E-02
RMM:  10    -0.106996331026E+03    0.10436E-04   -0.16518E-08   301   0.111E-03    0.697E-04
RMM:  11    -0.106996331374E+03   -0.34762E-06   -0.80091E-08   363   0.186E-03
   6 F= -.10699633E+03 E0= -.10699455E+03  d E =-.115917E-01
       N       E                     dE             d eps       ncg     rms          rms(c)
DAV:   1    -0.106996332559E+03   -0.15325E-05   -0.19474E-05  2050   0.208E-02
DAV:   2    -0.106996332604E+03   -0.45254E-07   -0.45263E-07  1240   0.274E-03
DAV:   3    -0.106996332607E+03   -0.26330E-08   -0.22493E-08  1150   0.624E-04
DAV:   4    -0.106996332606E+03    0.19736E-09   -0.25738E-09  1070   0.202E-04
DAV:   5    -0.106996332607E+03   -0.28012E-09   -0.46119E-10  1040   0.785E-05
DAV:   6    -0.106996332606E+03    0.18554E-09   -0.10150E-10  1030   0.354E-05
DAV:   7    -0.106996332607E+03   -0.14279E-09   -0.28776E-11  1030   0.173E-05
DAV:   8    -0.106996332606E+03    0.22555E-09   -0.80991E-12  1030   0.891E-06    0.419E-04
RMM:   9    -0.106996334165E+03   -0.15587E-05    0.00000E+00   223   0.550E-04
   7 F= -.10699633E+03 E0= -.10699456E+03  d E =-.115944E-01
       N       E                     dE             d eps       ncg     rms          rms(c)
DAV:   1    -0.106996951347E+03   -0.61874E-03   -0.19254E-01  2190   0.204E+00
DAV:   2    -0.106997297744E+03   -0.34640E-03   -0.34640E-03  2360   0.247E-01
DAV:   3    -0.106997299267E+03   -0.15223E-05   -0.15227E-05  2030   0.165E-02
DAV:   4    -0.106997299345E+03   -0.78311E-07   -0.78461E-07  1450   0.369E-03
DAV:   5    -0.106997299361E+03   -0.16207E-07   -0.15721E-07  1410   0.152E-03
DAV:   6    -0.106997299365E+03   -0.36525E-08   -0.39037E-08  1360   0.711E-04
DAV:   7    -0.106997299366E+03   -0.13570E-08   -0.10704E-08  1350   0.362E-04
DAV:   8    -0.106997299366E+03   -0.12369E-09   -0.31787E-09  1300   0.190E-04    0.410E-02
RMM:   9    -0.106997181460E+03    0.11791E-03   -0.19495E-04  1795   0.392E-02    0.309E-02
RMM:  10    -0.106997413883E+03   -0.23242E-03   -0.29741E-05  1439   0.141E-02    0.682E-02
RMM:  11    -0.106997079702E+03    0.33418E-03   -0.11363E-04  1776   0.287E-02    0.712E-03
RMM:  12    -0.106997073508E+03    0.61936E-05   -0.13140E-05  1216   0.999E-03
   8 F= -.10699707E+03 E0= -.10699530E+03  d E =-.739343E-03
       N       E                     dE             d eps       ncg     rms          rms(c)
DAV:   1    -0.106997092313E+03   -0.12612E-04   -0.28043E-02  2530   0.789E-01
DAV:   2    -0.106997148406E+03   -0.56093E-04   -0.56093E-04  2330   0.100E-01
DAV:   3    -0.106997148609E+03   -0.20216E-06   -0.20212E-06  1770   0.626E-03
DAV:   4    -0.106997148631E+03   -0.22220E-07   -0.21926E-07  1450   0.189E-03
DAV:   5    -0.106997148635E+03   -0.47294E-08   -0.50787E-08  1390   0.831E-04
DAV:   6    -0.106997148637E+03   -0.17462E-08   -0.13708E-08  1330   0.412E-04
DAV:   7    -0.106997148638E+03   -0.33106E-09   -0.40145E-09  1270   0.213E-04
DAV:   8    -0.106997148638E+03   -0.31650E-09   -0.12639E-09  1270   0.116E-04    0.159E-02
RMM:   9    -0.106997136659E+03    0.11979E-04   -0.29246E-05  1460   0.153E-02    0.160E-02
RMM:  10    -0.106997142843E+03   -0.61840E-05   -0.32818E-06  1039   0.548E-03
   9 F= -.10699714E+03 E0= -.10699539E+03  d E =-.808678E-03
       N       E                     dE             d eps       ncg     rms          rms(c)
DAV:   1    -0.106997322733E+03   -0.18607E-03   -0.74605E-02  2280   0.129E+00
DAV:   2    -0.106997456741E+03   -0.13401E-03   -0.13401E-03  2360   0.156E-01
DAV:   3    -0.106997457245E+03   -0.50363E-06   -0.50338E-06  1860   0.955E-03
DAV:   4    -0.106997457283E+03   -0.38264E-07   -0.38258E-07  1460   0.244E-03
DAV:   5    -0.106997457292E+03   -0.88694E-08   -0.88808E-08  1430   0.107E-03
DAV:   6    -0.106997457295E+03   -0.26266E-08   -0.24099E-08  1390   0.529E-04
DAV:   7    -0.106997457295E+03   -0.74579E-09   -0.70527E-09  1350   0.272E-04
DAV:   8    -0.106997457295E+03    0.37471E-09   -0.21907E-09  1290   0.149E-04    0.243E-02
RMM:   9    -0.106997569387E+03   -0.11209E-03   -0.66694E-05  1657   0.229E-02    0.515E-02
RMM:  10    -0.106997420040E+03    0.14935E-03   -0.53964E-06  1148   0.700E-03    0.125E-02
RMM:  11    -0.106997410963E+03    0.90769E-05   -0.28585E-05  1435   0.155E-02
  10 F= -.10699741E+03 E0= -.10699563E+03  d E =-.268120E-03
       N       E                     dE             d eps       ncg     rms          rms(c)
DAV:   1    -0.106997424347E+03   -0.43075E-05   -0.27030E-02  2290   0.775E-01
DAV:   2    -0.106997475006E+03   -0.50658E-04   -0.50659E-04  2370   0.947E-02
DAV:   3    -0.106997475199E+03   -0.19306E-06   -0.19295E-06  1820   0.597E-03
DAV:   4    -0.106997475214E+03   -0.15668E-07   -0.15636E-07  1440   0.164E-03
DAV:   5    -0.106997475219E+03   -0.40091E-08   -0.36341E-08  1350   0.718E-04
DAV:   6    -0.106997475219E+03   -0.97134E-09   -0.10135E-08  1270   0.358E-04
DAV:   7    -0.106997475220E+03   -0.20736E-09   -0.30910E-09  1260   0.187E-04
DAV:   8    -0.106997475220E+03   -0.13461E-09   -0.10025E-09  1200   0.103E-04    0.150E-02
RMM:   9    -0.106997463974E+03    0.11246E-04   -0.19509E-05  1164   0.130E-02    0.107E-02
RMM:  10    -0.106997504893E+03   -0.40920E-04   -0.41413E-06  1137   0.639E-03    0.268E-02
RMM:  11    -0.106997456599E+03    0.48295E-04   -0.10526E-05  1132   0.955E-03    0.285E-03
RMM:  12    -0.106997457111E+03   -0.51192E-06   -0.19151E-06   987   0.468E-03
  11 F= -.10699746E+03 E0= -.10699568E+03  d E =-.314268E-03
       N       E                     dE             d eps       ncg     rms          rms(c)
DAV:   1    -0.106997520890E+03   -0.64292E-04   -0.32966E-02  2340   0.856E-01
DAV:   2    -0.106997583391E+03   -0.62501E-04   -0.62500E-04  2370   0.105E-01
DAV:   3    -0.106997583661E+03   -0.26960E-06   -0.27016E-06  1680   0.710E-03
DAV:   4    -0.106997583688E+03   -0.27369E-07   -0.27035E-07  1450   0.207E-03
DAV:   5    -0.106997583694E+03   -0.63656E-08   -0.64942E-08  1370   0.920E-04
DAV:   6    -0.106997583696E+03   -0.19754E-08   -0.18383E-08  1250   0.467E-04
DAV:   7    -0.106997583697E+03   -0.70577E-09   -0.56340E-09  1190   0.245E-04
DAV:   8    -0.106997583697E+03   -0.13551E-09   -0.18483E-09  1170   0.136E-04    0.159E-02
RMM:   9    -0.106997566971E+03    0.16726E-04   -0.23902E-05  1334   0.141E-02    0.121E-02
RMM:  10    -0.106997604296E+03   -0.37324E-04   -0.41597E-06  1192   0.641E-03    0.266E-02
RMM:  11    -0.106997552769E+03    0.51527E-04   -0.20112E-05  1271   0.123E-02    0.265E-03
RMM:  12    -0.106997552719E+03    0.50551E-07   -0.28755E-06  1005   0.518E-03
  12 F= -.10699755E+03 E0= -.10699577E+03  d E =-.956080E-04
       N       E                     dE             d eps       ncg     rms          rms(c)
DAV:   1    -0.106997553942E+03   -0.11733E-05   -0.68283E-03  2540   0.392E-01
DAV:   2    -0.106997568087E+03   -0.14144E-04   -0.14145E-04  2310   0.503E-02
DAV:   3    -0.106997568142E+03   -0.55593E-07   -0.55382E-07  1550   0.331E-03
DAV:   4    -0.106997568149E+03   -0.70768E-08   -0.71370E-08  1350   0.107E-03
DAV:   5    -0.106997568151E+03   -0.16444E-08   -0.17446E-08  1270   0.480E-04
DAV:   6    -0.106997568152E+03   -0.92859E-09   -0.49506E-09  1250   0.245E-04
DAV:   7    -0.106997568152E+03    0.16371E-09   -0.15177E-09  1190   0.128E-04
DAV:   8    -0.106997568152E+03   -0.90949E-10   -0.49498E-10  1180   0.714E-05    0.708E-03
RMM:   9    -0.106997565245E+03    0.29064E-05   -0.45228E-06   965   0.633E-03
  13 F= -.10699757E+03 E0= -.10699578E+03  d E =-.108135E-03
       N       E                     dE             d eps       ncg     rms          rms(c)
DAV:   1    -0.106997600672E+03   -0.32520E-04   -0.47283E-02  2130   0.103E+00
DAV:   2    -0.106997682202E+03   -0.81531E-04   -0.81530E-04  2350   0.122E-01
DAV:   3    -0.106997682543E+03   -0.34092E-06   -0.34094E-06  1650   0.793E-03
DAV:   4    -0.106997682577E+03   -0.33358E-07   -0.33376E-07  1420   0.228E-03
DAV:   5    -0.106997682585E+03   -0.83128E-08   -0.80163E-08  1370   0.100E-03
DAV:   6    -0.106997682587E+03   -0.19245E-08   -0.22452E-08  1300   0.505E-04
DAV:   7    -0.106997682587E+03   -0.54206E-09   -0.67688E-09  1250   0.261E-04
DAV:   8    -0.106997682588E+03   -0.32378E-09   -0.21825E-09  1130   0.144E-04    0.221E-02
RMM:   9    -0.106998136091E+03   -0.45350E-03   -0.57580E-05  1725   0.212E-02    0.873E-02
RMM:  10    -0.106997647701E+03    0.48839E-03   -0.12402E-05  1259   0.100E-02    0.104E-02
RMM:  11    -0.106997642026E+03    0.56759E-05   -0.26989E-05  1380   0.153E-02
  14 F= -.10699764E+03 E0= -.10699586E+03  d E =-.767801E-04
       N       E                     dE             d eps       ncg     rms          rms(c)
DAV:   1    -0.106997632640E+03    0.15062E-04   -0.82297E-03  2420   0.429E-01
DAV:   2    -0.106997645839E+03   -0.13200E-04   -0.13200E-04  2320   0.495E-02
DAV:   3    -0.106997645892E+03   -0.52454E-07   -0.51970E-07  1490   0.323E-03
DAV:   4    -0.106997645899E+03   -0.75188E-08   -0.80426E-08  1370   0.114E-03
DAV:   5    -0.106997645902E+03   -0.24302E-08   -0.21277E-08  1310   0.531E-04
DAV:   6    -0.106997645902E+03   -0.50932E-09   -0.64806E-09  1240   0.281E-04
DAV:   7    -0.106997645902E+03   -0.10186E-09   -0.21148E-09  1160   0.149E-04
DAV:   8    -0.106997645903E+03   -0.24738E-09   -0.72763E-10  1110   0.849E-05    0.776E-03
RMM:   9    -0.106997648467E+03   -0.25647E-05   -0.56593E-06   994   0.696E-03
  15 F= -.10699765E+03 E0= -.10699588E+03  d E =-.832220E-04
       N       E                     dE             d eps       ncg     rms          rms(c)
DAV:   1    -0.106997642847E+03    0.30562E-05   -0.12047E-03  2200   0.168E-01
DAV:   2    -0.106997645545E+03   -0.26985E-05   -0.26984E-05  2120   0.224E-02
DAV:   3    -0.106997645580E+03   -0.34844E-07   -0.35165E-07  1130   0.229E-03
DAV:   4    -0.106997645586E+03   -0.58753E-08   -0.56638E-08  1100   0.792E-04
DAV:   5    -0.106997645587E+03   -0.11278E-08   -0.12771E-08  1070   0.360E-04
DAV:   6    -0.106997645587E+03   -0.53478E-09   -0.33021E-09  1060   0.175E-04
DAV:   7    -0.106997645588E+03   -0.15280E-09   -0.94983E-10  1060   0.917E-05
DAV:   8    -0.106997645588E+03   -0.11642E-09   -0.29362E-10  1050   0.493E-05    0.638E-03
RMM:   9    -0.106997976231E+03   -0.33064E-03   -0.10812E-05  1249   0.835E-03    0.711E-02
RMM:  10    -0.106997640256E+03    0.33597E-03   -0.57667E-06  1160   0.723E-03    0.181E-03
RMM:  11    -0.106997643022E+03   -0.27661E-05   -0.48389E-07   669   0.334E-03
  16 F= -.10699764E+03 E0= -.10699587E+03  d E =-.777765E-04
       N       E                     dE             d eps       ncg     rms          rms(c)
DAV:   1    -0.106997642955E+03   -0.26992E-05   -0.81439E-04  2240   0.135E-01
DAV:   2    -0.106997644432E+03   -0.14767E-05   -0.14770E-05  1830   0.166E-02
DAV:   3    -0.106997644467E+03   -0.35287E-07   -0.35278E-07  1210   0.252E-03
DAV:   4    -0.106997644472E+03   -0.51723E-08   -0.52411E-08  1080   0.834E-04
DAV:   5    -0.106997644473E+03   -0.12633E-08   -0.11552E-08  1060   0.371E-04
DAV:   6    -0.106997644474E+03   -0.45111E-09   -0.30058E-09  1050   0.178E-04
DAV:   7    -0.106997644474E+03   -0.17099E-09   -0.87724E-10  1010   0.937E-05
DAV:   8    -0.106997644474E+03    0.26557E-09   -0.27600E-10  1000   0.504E-05    0.252E-03
RMM:   9    -0.106997644117E+03    0.35718E-06   -0.15780E-07   322   0.222E-03
  17 F= -.10699764E+03 E0= -.10699587E+03  d E =-.788712E-04
       N       E                     dE             d eps       ncg     rms          rms(c)
DAV:   1    -0.106997683834E+03   -0.39360E-04   -0.42647E-03  2120   0.309E-01
DAV:   2    -0.106997692471E+03   -0.86367E-05   -0.86363E-05  2450   0.398E-02
DAV:   3    -0.106997692509E+03   -0.38081E-07   -0.38233E-07  1450   0.275E-03
DAV:   4    -0.106997692515E+03   -0.56098E-08   -0.57932E-08  1240   0.915E-04
DAV:   5    -0.106997692516E+03   -0.18435E-08   -0.14974E-08  1210   0.416E-04
DAV:   6    -0.106997692517E+03   -0.36380E-09   -0.44290E-09  1160   0.213E-04
DAV:   7    -0.106997692517E+03   -0.21100E-09   -0.14041E-09  1120   0.112E-04
DAV:   8    -0.106997692517E+03    0.47294E-10   -0.48125E-10  1090   0.629E-05    0.119E-02
RMM:   9    -0.106998589351E+03   -0.89683E-03   -0.39093E-05  1607   0.154E-02    0.118E-01
RMM:  10    -0.106997668962E+03    0.92039E-03   -0.22016E-05  1371   0.127E-02    0.637E-03
RMM:  11    -0.106997667025E+03    0.19367E-05   -0.77125E-06  1177   0.826E-03
  18 F= -.10699767E+03 E0= -.10699589E+03  d E =-.229088E-04
       N       E                     dE             d eps       ncg     rms          rms(c)
DAV:   1    -0.106997668224E+03    0.73860E-06   -0.16070E-04  2080   0.704E-02
DAV:   2    -0.106997669020E+03   -0.79621E-06   -0.79621E-06  1600   0.126E-02
DAV:   3    -0.106997669066E+03   -0.46734E-07   -0.46717E-07  1540   0.302E-03
DAV:   4    -0.106997669073E+03   -0.64028E-08   -0.66814E-08  1420   0.106E-03
DAV:   5    -0.106997669075E+03   -0.21282E-08   -0.13758E-08  1360   0.441E-04
DAV:   6    -0.106997669075E+03    0.28376E-09   -0.33246E-09  1290   0.207E-04
DAV:   7    -0.106997669075E+03   -0.12733E-09   -0.91779E-10  1200   0.104E-04
DAV:   8    -0.106997669075E+03   -0.20736E-09   -0.27733E-10  1150   0.545E-05    0.255E-03
RMM:   9    -0.106997689483E+03   -0.20408E-04   -0.30184E-07   502   0.263E-03    0.184E-02
RMM:  10    -0.106997668345E+03    0.21138E-04   -0.61009E-08   373   0.214E-03    0.126E-03
RMM:  11    -0.106997668710E+03   -0.36467E-06   -0.15296E-06   873   0.393E-03
  19 F= -.10699767E+03 E0= -.10699589E+03  d E =-.245932E-04
       N       E                     dE             d eps       ncg     rms          rms(c)
DAV:   1    -0.106997669316E+03   -0.97065E-06   -0.72218E-05  2070   0.401E-02
DAV:   2    -0.106997669466E+03   -0.15015E-06   -0.15022E-06  1330   0.531E-03
DAV:   3    -0.106997669475E+03   -0.94069E-08   -0.94737E-08  1230   0.133E-03
DAV:   4    -0.106997669477E+03   -0.15098E-08   -0.14795E-08  1120   0.486E-04
DAV:   5    -0.106997669477E+03   -0.34925E-09   -0.33190E-09  1030   0.211E-04
DAV:   6    -0.106997669478E+03   -0.42837E-09   -0.87585E-10  1010   0.989E-05
DAV:   7    -0.106997669478E+03    0.17462E-09   -0.25968E-10  1000   0.513E-05
DAV:   8    -0.106997669478E+03   -0.25830E-09   -0.82796E-11  1000   0.271E-05    0.157E-03
RMM:   9    -0.106997681942E+03   -0.12464E-04    0.00000E+00   324   0.192E-03    0.144E-02
RMM:  10    -0.106997668956E+03    0.12985E-04   -0.19393E-08   342   0.113E-03    0.886E-04
RMM:  11    -0.106997669051E+03   -0.94686E-07   -0.61603E-08   397   0.214E-03
  20 F= -.10699767E+03 E0= -.10699589E+03  d E =-.249342E-04
       N       E                     dE             d eps       ncg     rms          rms(c)
DAV:   1    -0.106997696572E+03   -0.27616E-04   -0.13087E-02  2320   0.538E-01
DAV:   2    -0.106997718415E+03   -0.21843E-04   -0.21843E-04  2340   0.631E-02
DAV:   3    -0.106997718510E+03   -0.95182E-07   -0.95107E-07  1560   0.433E-03
DAV:   4    -0.106997718524E+03   -0.13682E-07   -0.13671E-07  1360   0.141E-03
DAV:   5    -0.106997718527E+03   -0.33424E-08   -0.34944E-08  1270   0.628E-04
DAV:   6    -0.106997718528E+03   -0.10323E-08   -0.10137E-08  1150   0.325E-04
DAV:   7    -0.106997718529E+03   -0.41109E-09   -0.31395E-09  1150   0.167E-04
DAV:   8    -0.106997718529E+03   -0.44747E-09   -0.10339E-09  1090   0.939E-05    0.998E-03
RMM:   9    -0.106997959093E+03   -0.24056E-03   -0.15978E-05  1283   0.109E-02    0.638E-02
RMM:  10    -0.106997708523E+03    0.25057E-03   -0.45386E-06  1082   0.681E-03    0.533E-03
RMM:  11    -0.106997708310E+03    0.21356E-06   -0.54712E-06  1135   0.744E-03
  21 F= -.10699771E+03 E0= -.10699593E+03  d E =-.392588E-04
       N       E                     dE             d eps       ncg     rms          rms(c)
DAV:   1    -0.106997710781E+03   -0.22574E-05   -0.24005E-03  2480   0.230E-01
DAV:   2    -0.106997714945E+03   -0.41646E-05   -0.41648E-05  2300   0.276E-02
DAV:   3    -0.106997714978E+03   -0.32857E-07   -0.32591E-07  1410   0.219E-03
DAV:   4    -0.106997714983E+03   -0.53515E-08   -0.55378E-08  1300   0.775E-04
DAV:   5    -0.106997714985E+03   -0.12769E-08   -0.12932E-08  1180   0.355E-04
DAV:   6    -0.106997714985E+03   -0.38926E-09   -0.34038E-09  1160   0.178E-04
DAV:   7    -0.106997714985E+03   -0.13824E-09   -0.97562E-10  1130   0.931E-05
DAV:   8    -0.106997714985E+03    0.25466E-10   -0.30095E-10  1090   0.506E-05    0.437E-03
RMM:   9    -0.106997749580E+03   -0.34595E-04   -0.24751E-06   935   0.446E-03    0.247E-02
RMM:  10    -0.106997712892E+03    0.36688E-04   -0.14762E-07   434   0.270E-03    0.254E-03
RMM:  11    -0.106997712870E+03    0.21390E-07   -0.19281E-06  1009   0.442E-03
  22 F= -.10699771E+03 E0= -.10699594E+03  d E =-.438193E-04
       N       E                     dE             d eps       ncg     rms          rms(c)
DAV:   1    -0.106997738886E+03   -0.25994E-04   -0.12280E-02  2170   0.520E-01
DAV:   2    -0.106997761189E+03   -0.22304E-04   -0.22303E-04  2350   0.622E-02
DAV:   3    -0.106997761271E+03   -0.81667E-07   -0.81869E-07  1340   0.404E-03
DAV:   4    -0.106997761283E+03   -0.11753E-07   -0.11750E-07  1060   0.134E-03
DAV:   5    -0.106997761286E+03   -0.27867E-08   -0.28954E-08  1050   0.599E-04
DAV:   6    -0.106997761286E+03   -0.79399E-09   -0.81473E-09  1030   0.309E-04
DAV:   7    -0.106997761287E+03   -0.17826E-09   -0.24509E-09  1030   0.159E-04
DAV:   8    -0.106997761287E+03   -0.56025E-09   -0.78598E-10  1000   0.887E-05    0.935E-03
RMM:   9    -0.106997781362E+03   -0.20075E-04   -0.56805E-06  1075   0.747E-03    0.206E-02
RMM:  10    -0.106997757431E+03    0.23931E-04   -0.11515E-06   823   0.348E-03    0.708E-03
RMM:  11    -0.106997754360E+03    0.30712E-05   -0.48105E-06  1088   0.681E-03
  23 F= -.10699775E+03 E0= -.10699598E+03  d E =-.414898E-04
       N       E                     dE             d eps       ncg     rms          rms(c)
DAV:   1    -0.106997640073E+03    0.11736E-03   -0.87686E-02  2230   0.139E+00
DAV:   2    -0.106997797388E+03   -0.15731E-03   -0.15731E-03  2350   0.166E-01
DAV:   3    -0.106997798000E+03   -0.61211E-06   -0.61205E-06  1790   0.108E-02
DAV:   4    -0.106997798054E+03   -0.54065E-07   -0.54603E-07  1470   0.292E-03
DAV:   5    -0.106997798067E+03   -0.12834E-07   -0.12578E-07  1410   0.127E-03
DAV:   6    -0.106997798070E+03   -0.34488E-08   -0.33797E-08  1270   0.628E-04
DAV:   7    -0.106997798071E+03   -0.69122E-09   -0.98415E-09  1270   0.322E-04
DAV:   8    -0.106997798071E+03   -0.30559E-09   -0.30571E-09  1180   0.175E-04    0.251E-02
RMM:   9    -0.106997944902E+03   -0.14683E-03   -0.45337E-05  1638   0.204E-02    0.554E-02
RMM:  10    -0.106997769829E+03    0.17507E-03   -0.82397E-06  1185   0.827E-03    0.188E-02
RMM:  11    -0.106997745975E+03    0.23854E-04   -0.30294E-05  1419   0.163E-02    0.510E-03
RMM:  12    -0.106997744152E+03    0.18239E-05   -0.39915E-06  1098   0.627E-03
  24 F= -.10699774E+03 E0= -.10699597E+03  d E =-.312813E-04
       N       E                     dE             d eps       ncg     rms          rms(c)
DAV:   1    -0.106997741891E+03    0.40841E-05   -0.18149E-02  2510   0.635E-01
DAV:   2    -0.106997775301E+03   -0.33410E-04   -0.33410E-04  2280   0.768E-02
DAV:   3    -0.106997775426E+03   -0.12463E-06   -0.12441E-06  1580   0.499E-03
DAV:   4    -0.106997775442E+03   -0.16037E-07   -0.16032E-07  1350   0.159E-03
DAV:   5    -0.106997775445E+03   -0.35434E-08   -0.39347E-08  1320   0.714E-04
DAV:   6    -0.106997775447E+03   -0.13715E-08   -0.11214E-08  1270   0.368E-04
DAV:   7    -0.106997775447E+03   -0.38926E-09   -0.34425E-09  1210   0.192E-04
DAV:   8    -0.106997775447E+03    0.98225E-10   -0.11303E-09  1180   0.107E-04    0.117E-02
RMM:   9    -0.106997823011E+03   -0.47564E-04   -0.91752E-06  1126   0.955E-03    0.304E-02
RMM:  10    -0.106997769416E+03    0.53595E-04   -0.21643E-06   936   0.460E-03    0.819E-03
RMM:  11    -0.106997765885E+03    0.35307E-05   -0.65359E-06  1100   0.799E-03
  25 F= -.10699777E+03 E0= -.10699599E+03  d E =-.530150E-04
       N       E                     dE             d eps       ncg     rms          rms(c)
DAV:   1    -0.106997756811E+03    0.12605E-04   -0.64692E-03  2520   0.380E-01
DAV:   2    -0.106997768460E+03   -0.11649E-04   -0.11649E-04  2300   0.455E-02
DAV:   3    -0.106997768502E+03   -0.41969E-07   -0.41912E-07  1450   0.291E-03
DAV:   4    -0.106997768508E+03   -0.60991E-08   -0.61992E-08  1250   0.975E-04
DAV:   5    -0.106997768510E+03   -0.17271E-08   -0.15453E-08  1220   0.442E-04
DAV:   6    -0.106997768510E+03   -0.37471E-09   -0.44052E-09  1130   0.229E-04
DAV:   7    -0.106997768510E+03    0.18917E-09   -0.13471E-09  1090   0.119E-04
DAV:   8    -0.106997768510E+03   -0.29468E-09   -0.43930E-10  1070   0.671E-05    0.706E-03
RMM:   9    -0.106997783325E+03   -0.14815E-04   -0.32301E-06  1006   0.571E-03    0.173E-02
RMM:  10    -0.106997765945E+03    0.17380E-04   -0.41978E-07   586   0.267E-03    0.519E-03
RMM:  11    -0.106997764451E+03    0.14941E-05   -0.30547E-06  1059   0.543E-03
  26 F= -.10699776E+03 E0= -.10699599E+03  d E =-.515804E-04
       N       E                     dE             d eps       ncg     rms          rms(c)
DAV:   1    -0.106997782031E+03   -0.16087E-04   -0.45235E-03  2320   0.318E-01
DAV:   2    -0.106997789590E+03   -0.75588E-05   -0.75584E-05  2390   0.375E-02
DAV:   3    -0.106997789621E+03   -0.30982E-07   -0.31077E-07  1410   0.247E-03
DAV:   4    -0.106997789626E+03   -0.44975E-08   -0.46982E-08  1290   0.815E-04
DAV:   5    -0.106997789627E+03   -0.14188E-08   -0.11893E-08  1210   0.363E-04
DAV:   6    -0.106997789627E+03   -0.14188E-09   -0.34523E-09  1160   0.187E-04
DAV:   7    -0.106997789628E+03   -0.32014E-09   -0.10709E-09  1120   0.970E-05
DAV:   8    -0.106997789627E+03    0.69122E-10   -0.35263E-10  1090   0.544E-05    0.538E-03
RMM:   9    -0.106997788165E+03    0.14622E-05   -0.92564E-07   704   0.342E-03
  27 F= -.10699779E+03 E0= -.10699601E+03  d E =-.237147E-04
