 vasp.5.4.4.18Apr17-6-g9f103f2a35 (build Nov 15 2019 10:10:58) complex          
  
 executed on             LinuxIFC date 2024.06.26  20:30:03
 running on   20 total cores
 distrk:  each k-point on   20 cores,    1 groups
 distr:  one band on NCORES_PER_BAND=   4 cores,    5 groups


--------------------------------------------------------------------------------------------------------


 INCAR:
 POTCAR:    PAW_PBE Mg 13Apr2007                  
 POTCAR:    PAW_PBE O 08Apr2002                   
 POTCAR:    PAW_PBE Mg 13Apr2007                  
   VRHFIN =Mg: s2p0                                                             
   LEXCH  = PE                                                                  
   EATOM  =    23.0369 eV,    1.6932 Ry                                         
                                                                                
   TITEL  = PAW_PBE Mg 13Apr2007                                                
   LULTRA =        F    use ultrasoft PP ?                                      
   IUNSCR =        1    unscreen: 0-lin 1-nonlin 2-no                           
   RPACOR =    1.500    partial core radius                                     
   POMASS =   24.305; ZVAL   =    2.000    mass and valenz                      
   RCORE  =    2.000    outmost cutoff radius                                   
   RWIGS  =    2.880; RWIGS  =    1.524    wigner-seitz radius (au A)           
   ENMAX  =  200.000; ENMIN  =  100.000 eV                                      
   RCLOC  =    1.506    cutoff for local pot                                    
   LCOR   =        T    correct aug charges                                     
   LPAW   =        T    paw PP                                                  
   EAUG   =  454.734                                                            
   DEXC   =    0.000                                                            
   RMAX   =    2.045    core radius for proj-oper                               
   RAUG   =    1.300    factor for augmentation sphere                          
   RDEP   =    2.025    radius for radial grids                                 
   RDEPT  =    1.942    core radius for aug-charge                              
                                                                                
   Atomic configuration                                                         
    6 entries                                                                   
     n  l   j            E        occ.                                          
     1  0  0.50     -1259.6230   2.0000                                         
     2  0  0.50       -79.8442   2.0000                                         
     2  1  1.50       -46.6121   6.0000                                         
     3  0  0.50        -4.7055   2.0000                                         
     3  1  0.50        -1.3660   0.0000                                         
     3  2  1.50        -1.3606   0.0000                                         
   Description                                                                  
     l       E           TYP  RCUT    TYP  RCUT                                 
     0     -4.7054661     23  2.000                                             
     0     27.2116520     23  2.000                                             
     1      1.3605826     23  2.000                                             
     1     27.2116520     23  2.000                                             
     2     -1.3605826     23  2.000                                             
  local pseudopotential read in
  partial core-charges read in
  partial kinetic energy density read in
  atomic valenz-charges read in
  non local Contribution for L=           0  read in
    real space projection operators read in
  non local Contribution for L=           0  read in
    real space projection operators read in
  non local Contribution for L=           1  read in
    real space projection operators read in
  non local Contribution for L=           1  read in
    real space projection operators read in
  non local Contribution for L=           2  read in
    real space projection operators read in
    PAW grid and wavefunctions read in
 
   number of l-projection  operators is LMAX  =           5
   number of lm-projection operators is LMMAX =          13
 
 POTCAR:    PAW_PBE O 08Apr2002                   
   VRHFIN =O: s2p4                                                              
   LEXCH  = PE                                                                  
   EATOM  =   432.3788 eV,   31.7789 Ry                                         
                                                                                
   TITEL  = PAW_PBE O 08Apr2002                                                 
   LULTRA =        F    use ultrasoft PP ?                                      
   IUNSCR =        1    unscreen: 0-lin 1-nonlin 2-no                           
   RPACOR =    1.200    partial core radius                                     
   POMASS =   16.000; ZVAL   =    6.000    mass and valenz                      
   RCORE  =    1.520    outmost cutoff radius                                   
   RWIGS  =    1.550; RWIGS  =    0.820    wigner-seitz radius (au A)           
   ENMAX  =  400.000; ENMIN  =  300.000 eV                                      
   ICORE  =        2    local potential                                         
   LCOR   =        T    correct aug charges                                     
   LPAW   =        T    paw PP                                                  
   EAUG   =  605.392                                                            
   DEXC   =    0.000                                                            
   RMAX   =    1.553    core radius for proj-oper                               
   RAUG   =    1.300    factor for augmentation sphere                          
   RDEP   =    1.550    radius for radial grids                                 
   RDEPT  =    1.329    core radius for aug-charge                              
                                                                                
   Atomic configuration                                                         
    4 entries                                                                   
     n  l   j            E        occ.                                          
     1  0  0.50      -514.6923   2.0000                                         
     2  0  0.50       -23.9615   2.0000                                         
     2  1  0.50        -9.0305   4.0000                                         
     3  2  1.50        -9.5241   0.0000                                         
   Description                                                                  
     l       E           TYP  RCUT    TYP  RCUT                                 
     0    -23.9615318     23  1.200                                             
     0     -9.5240782     23  1.200                                             
     1     -9.0304911     23  1.520                                             
     1      8.1634956     23  1.520                                             
     2     -9.5240782      7  1.500                                             
  local pseudopotential read in
  partial core-charges read in
  partial kinetic energy density read in
  kinetic energy density of atom read in
  atomic valenz-charges read in
  non local Contribution for L=           0  read in
    real space projection operators read in
  non local Contribution for L=           0  read in
    real space projection operators read in
  non local Contribution for L=           1  read in
    real space projection operators read in
  non local Contribution for L=           1  read in
    real space projection operators read in
    PAW grid and wavefunctions read in
 
   number of l-projection  operators is LMAX  =           4
   number of lm-projection operators is LMMAX =           8
 
 Optimization of the real space projectors (new method)

 maximal supplied QI-value         = 18.90
 optimisation between [QCUT,QGAM] = [ 10.77, 27.02] = [ 32.49,204.49] Ry 
 Optimized for a Real-space Cutoff    1.14 Angstroem

   l    n(q)    QCUT    max X(q) W(low)/X(q) W(high)/X(q)  e(spline) 
   0      9    10.771    28.265    0.55E-04    0.11E-03    0.18E-06
   0      9    10.771    10.429    0.35E-04    0.89E-04    0.15E-06
   1      9    10.771    13.073    0.36E-03    0.68E-04    0.34E-06
   1      9    10.771     9.625    0.30E-03    0.60E-04    0.28E-06
   2      8    10.771     4.652    0.10E-03    0.16E-03    0.22E-06
 Optimization of the real space projectors (new method)

 maximal supplied QI-value         = 24.76
 optimisation between [QCUT,QGAM] = [ 10.64, 26.98] = [ 31.73,203.89] Ry 
 Optimized for a Real-space Cutoff    0.98 Angstroem

   l    n(q)    QCUT    max X(q) W(low)/X(q) W(high)/X(q)  e(spline) 
   0      8    10.645    20.381    0.22E-03    0.11E-04    0.15E-06
   0      8    10.645    15.268    0.23E-03    0.14E-04    0.16E-06
   1      7    10.645     5.964    0.39E-03    0.37E-03    0.76E-07
   1      7    10.645     5.382    0.33E-03    0.32E-03    0.66E-07
  PAW_PBE Mg 13Apr2007                  :
 energy of atom  1       EATOM=  -23.0369
 kinetic energy error for atom=    0.0001 (will be added to EATOM!!)
  PAW_PBE O 08Apr2002                   :
 energy of atom  2       EATOM= -432.3788
 kinetic energy error for atom=    0.0389 (will be added to EATOM!!)
 
 
 POSCAR: MgO19                                   
  positions in direct lattice
  velocities in cartesian coordinates
  No initial velocities read in
 exchange correlation table for  LEXCH =        8
   RHO(1)=    0.500       N(1)  =     2000
   RHO(2)=  100.500       N(2)  =     4000

 VTST: version 3.2, (02/03/18)

 CHAIN: initializing optimizer
 
 OPT: Using VASP Conjugate-Gradient optimizer
 CHAIN: Read ICHAIN            0
 
 POSCAR: MgO19                                   
  positions in direct lattice
  velocities in cartesian coordinates
  No initial velocities read in
 


--------------------------------------------------------------------------------------------------------


 ion  position               nearest neighbor table
   1  0.000  0.000  0.027-  14 2.12  14 2.12  14 2.12   2 3.00   2 3.00   2 3.00
   2  0.333  0.667  0.093-  11 2.12  14 2.12  14 2.12  11 2.12  11 2.12  14 2.12   8 3.00   8 3.00
                             8 3.00   1 3.00   1 3.00   1 3.00
   3  0.000  0.000  0.225-  17 2.12  15 2.12  17 2.12  15 2.12  17 2.12  15 2.12   8 3.00   4 3.00
                             8 3.00   4 3.00   8 3.00   4 3.00
   4  0.333  0.667  0.292-  12 2.12  12 2.12  12 2.12  15 2.12  15 2.12  15 2.12   9 3.00   9 3.00
                             9 3.00   3 3.00   3 3.00   3 3.00
   5  0.000  0.000  0.424-  16 2.12  16 2.12  16 2.12  18 2.12  18 2.12  18 2.12   6 3.00   6 3.00
                             6 3.00   9 3.00   9 3.00   9 3.00
   6  0.333  0.667  0.490-  16 2.12  16 2.12  16 2.12  13 2.12  13 2.12  13 2.12   5 3.00   5 3.00
                             5 3.00  10 3.00  10 3.00  10 3.00
   7  0.000  0.000  0.622-  19 2.12  19 2.12  19 2.12  10 3.00  10 3.00  10 3.00
   8  0.667  0.333  0.159-  11 2.12  11 2.12  11 2.12  17 2.12  17 2.12  17 2.12   2 3.00   2 3.00
                             2 3.00   3 3.00   3 3.00   3 3.00
   9  0.667  0.333  0.358-  12 2.12  18 2.12  18 2.12  12 2.12  12 2.12  18 2.12   4 3.00   4 3.00
                             4 3.00   5 3.00   5 3.00   5 3.00
  10  0.667  0.333  0.556-  13 2.12  19 2.12  19 2.12  13 2.12  13 2.12  19 2.12   7 3.00   7 3.00
                             7 3.00   6 3.00   6 3.00   6 3.00
  11  0.000  0.000  0.126-   2 2.12   8 2.12   2 2.12   8 2.12   2 2.12   8 2.12
  12  0.000  0.000  0.325-   9 2.12   4 2.12   9 2.12   4 2.12   9 2.12   4 2.12
  13  0.000  0.000  0.523-  10 2.12  10 2.12  10 2.12   6 2.12   6 2.12   6 2.12
  14  0.667  0.333  0.060-   2 2.12   2 2.12   2 2.12   1 2.12   1 2.12   1 2.12
  15  0.667  0.333  0.259-   3 2.12   3 2.12   3 2.12   4 2.12   4 2.12   4 2.12
  16  0.667  0.333  0.457-   5 2.12   6 2.12   6 2.12   5 2.12   5 2.12   6 2.12
  17  0.333  0.667  0.192-   3 2.12   3 2.12   3 2.12   8 2.12   8 2.12   8 2.12
  18  0.333  0.667  0.391-   9 2.12   9 2.12   9 2.12   5 2.12   5 2.12   5 2.12
  19  0.333  0.667  0.589-   7 2.12  10 2.12  10 2.12   7 2.12   7 2.12  10 2.12
 
  LATTYP: Found a hexagonal cell.
 ALAT       =     3.0044062036
 C/A-ratio  =    12.3411345745
  
  Lattice vectors:
  
 A1 = (   2.1244360000,  -2.1244350000,   0.0000000000)
 A2 = (   0.0000000000,   2.1244360000,  -2.1244360000)
 A3 = (  21.4068670000,  21.4068670000,  21.4068670000)


Analysis of symmetry for initial positions (statically):
=====================================================================
 Subroutine PRICEL returns:
 Original cell was already a primitive cell.
 

 Routine SETGRP: Setting up the symmetry group for a 
 hexagonal supercell.


 Subroutine GETGRP returns: Found 12 space group operations
 (whereof  6 operations were pure point group operations)
 out of a pool of 24 trial point group operations.


The static configuration has the point symmetry C_3v.
 The point group associated with its full space group is D_3d.


Analysis of symmetry for dynamics (positions and initial velocities):
=====================================================================
 Subroutine PRICEL returns:
 Original cell was already a primitive cell.
 

 Routine SETGRP: Setting up the symmetry group for a 
 hexagonal supercell.


 Subroutine GETGRP returns: Found 12 space group operations
 (whereof  6 operations were pure point group operations)
 out of a pool of 24 trial point group operations.


The dynamic configuration has the point symmetry C_3v.
 The point group associated with its full space group is D_3d.


Analysis of constrained symmetry for selective dynamics:
=====================================================================
 Subroutine PRICEL returns:
 Original cell was already a primitive cell.
 

 Routine SETGRP: Setting up the symmetry group for a 
 hexagonal supercell.


 Subroutine GETGRP returns: Found  6 space group operations
 (whereof  6 operations were pure point group operations)
 out of a pool of 24 trial point group operations.


The constrained configuration has the point symmetry C_3v.


 Subroutine INISYM returns: Found  6 space group operations
 (whereof  6 operations are pure point group operations),
 and found     1 'primitive' translations

 
 
 KPOINTS: K-Spacing Value to Generate K-Mesh: 0.02

Automatic generation of k-mesh.
Space group operators:
 irot       det(A)        alpha          n_x          n_y          n_z        tau_x        tau_y        tau_z
    1     1.000000     0.000000     1.000000     0.000000     0.000000     0.000000     0.000000     0.000000
    2     1.000000   120.000000    -0.577350    -0.577350    -0.577350     0.000000     0.000000     0.000000
    3     1.000000   120.000000     0.577350     0.577350     0.577350     0.000000     0.000000     0.000000
    4    -1.000000   180.000000     0.707107    -0.707107    -0.000000     0.000000     0.000000     0.000000
    5    -1.000000   180.000000     0.000000    -0.707107     0.707107     0.000000     0.000000     0.000000
    6    -1.000000   180.000000    -0.707107     0.000000     0.707107     0.000000     0.000000     0.000000
 
 Subroutine IBZKPT returns following result:
 ===========================================
 
 Found     20 irreducible k-points:
 
 Following reciprocal coordinates:
            Coordinates               Weight
  0.062500  0.062500  0.000000     48.000000
  0.187500  0.062500  0.000000     96.000000
  0.312500  0.062500 -0.000000     96.000000
  0.437500  0.062500 -0.000000     96.000000
 -0.437500  0.062500  0.000000     96.000000
 -0.312500  0.062500  0.000000     96.000000
 -0.187500  0.062500  0.000000     96.000000
 -0.062500  0.062500  0.000000     48.000000
  0.187500  0.187500  0.000000     48.000000
  0.312500  0.187500 -0.000000     96.000000
  0.437500  0.187500  0.000000     96.000000
 -0.437500  0.187500  0.000000     96.000000
 -0.312500  0.187500 -0.000000     96.000000
 -0.187500  0.187500  0.000000     48.000000
  0.312500  0.312500  0.000000     48.000000
  0.437500  0.312500  0.000000     96.000000
 -0.437500  0.312500  0.000000     96.000000
 -0.312500  0.312500  0.000000     48.000000
  0.437500  0.437500  0.000000     48.000000
 -0.437500  0.437500  0.000000     48.000000
 
 Following cartesian coordinates:
            Coordinates               Weight
  0.029420  0.000000 -0.029420     48.000000
  0.068646 -0.019613 -0.049033     96.000000
  0.107872 -0.039226 -0.068646     96.000000
  0.147098 -0.058839 -0.088259     96.000000
 -0.127485  0.078452  0.049033     96.000000
 -0.088259  0.058839  0.029420     96.000000
 -0.049033  0.039226  0.009807     96.000000
 -0.009807  0.019613 -0.009807     48.000000
  0.088259  0.000000 -0.088259     48.000000
  0.127485 -0.019613 -0.107872     96.000000
  0.166711 -0.039226 -0.127485     96.000000
 -0.107872  0.098065  0.009807     96.000000
 -0.068646  0.078452 -0.009807     96.000000
 -0.029420  0.058839 -0.029420     48.000000
  0.147098  0.000000 -0.147098     48.000000
  0.186324 -0.019613 -0.166711     96.000000
 -0.088259  0.117678 -0.029420     96.000000
 -0.049033  0.098065 -0.049033     48.000000
  0.205937  0.000000 -0.205937     48.000000
 -0.068646  0.137291 -0.068646     48.000000
 


--------------------------------------------------------------------------------------------------------




 Dimension of arrays:
   k-points           NKPTS =     20   k-points in BZ     NKDIM =     20   number of bands    NBANDS=     50
   number of dos      NEDOS =    301   number of ions     NIONS =     19
   non local maximal  LDIM  =      5   non local SUM 2l+1 LMDIM =     13
   total plane-waves  NPLWV = 155520
   max r-space proj   IRMAX =   3360   max aug-charges    IRDMAX=   7703
   dimension x,y,z NGX =    24 NGY =   24 NGZ =  270
   dimension x,y,z NGXF=    32 NGYF=   32 NGZF=  400
   support grid    NGXF=    32 NGYF=   32 NGZF=  400
   ions per type =              10   9
   NGX,Y,Z   is equivalent  to a cutoff of  13.28, 13.28, 12.11 a.u.
   NGXF,Y,Z  is equivalent  to a cutoff of  17.71, 17.71, 17.93 a.u.

 SYSTEM =  Al110                                   
 POSCAR =  MgO19                                   

 Startparameter for this run:
   NWRITE =      2    write-flag & timer
   PREC   = h         normal or accurate (medium, high low for compatibility)
   ISTART =      0    job   : 0-new  1-cont  2-samecut
   ICHARG =      2    charge: 1-file 2-atom 10-const
   ISPIN  =      1    spin polarized calculation?
   LNONCOLLINEAR =      F non collinear calculations
   LSORBIT =      F    spin-orbit coupling
   INIWAV =      1    electr: 0-lowe 1-rand  2-diag
   LASPH  =      F    aspherical Exc in radial PAW
   METAGGA=      F    non-selfconsistent MetaGGA calc.

 Electronic Relaxation 1
   ENCUT  =  450.0 eV  33.07 Ry    5.75 a.u.   5.20  5.20 64.13*2*pi/ulx,y,z
   ENINI  =  450.0     initial cutoff
   ENAUG  =  605.4 eV  augmentation charge cutoff
   NELM   =    100;   NELMIN=  8; NELMDL=  8     # of ELM steps 
   EDIFF  = 0.1E-04   stopping-criterion for ELM
   LREAL  =      T    real-space projection
   NLSPLINE    = F    spline interpolate recip. space projectors
   LCOMPAT=      F    compatible to vasp.4.4
   GGA_COMPAT  = T    GGA compatible to vasp.4.4-vasp.4.6
   LMAXPAW     = -100 max onsite density
   LMAXMIX     =    2 max onsite mixed and CHGCAR
   VOSKOWN=      0    Vosko Wilk Nusair interpolation
   ROPT   =   -0.00040  -0.00040
 Ionic relaxation
   EDIFFG = -.1E-01   stopping-criterion for IOM
   NSW    =    500    number of steps for IOM
   NBLOCK =      1;   KBLOCK =    500    inner block; outer block 
   IBRION =      2    ionic relax: 0-MD 1-quasi-New 2-CG
   NFREE  =      1    steps in history (QN), initial steepest desc. (CG)
   ISIF   =      2    stress and relaxation
   IWAVPR =     11    prediction:  0-non 1-charg 2-wave 3-comb
   ISYM   =      2    0-nonsym 1-usesym 2-fastsym
   LCORR  =      T    Harris-Foulkes like correction to forces

   POTIM  = 0.5000    time-step for ionic-motion
   TEIN   =    0.0    initial temperature
   TEBEG  =    0.0;   TEEND  =   0.0 temperature during run
   SMASS  =  -3.00    Nose mass-parameter (am)
   estimated Nose-frequenzy (Omega)   =  0.10E-29 period in steps =****** mass=  -0.206E-27a.u.
   SCALEE = 1.0000    scale energy and forces
   NPACO  =    256;   APACO  = 16.0  distance and # of slots for P.C.
   PSTRESS=    0.0 pullay stress

  Mass of Ions in am
   POMASS =  24.30 16.00
  Ionic Valenz
   ZVAL   =   2.00  6.00
  Atomic Wigner-Seitz radii
   RWIGS  =  -1.00 -1.00
  virtual crystal weights 
   VCA    =   1.00  1.00
   NELECT =      74.0000    total number of electrons
   NUPDOWN=      -1.0000    fix difference up-down

 DOS related values:
   EMIN   =  10.00;   EMAX   =-10.00  energy-range for DOS
   EFERMI =   0.00
   ISMEAR =     0;   SIGMA  =   0.05  broadening in eV -4-tet -1-fermi 0-gaus

 Electronic relaxation 2 (details)
   IALGO  =     68    algorithm
   LDIAG  =      T    sub-space diagonalisation (order eigenvalues)
   LSUBROT=      F    optimize rotation matrix (better conditioning)
   TURBO    =      0    0=normal 1=particle mesh
   IRESTART =      0    0=no restart 2=restart with 2 vectors
   NREBOOT  =      0    no. of reboots
   NMIN     =      0    reboot dimension
   EREF     =   0.00    reference energy to select bands
   IMIX   =      4    mixing-type and parameters
     AMIX     =   0.40;   BMIX     =  1.00
     AMIX_MAG =   1.60;   BMIX_MAG =  1.00
     AMIN     =   0.10
     WC   =   100.;   INIMIX=   1;  MIXPRE=   1;  MAXMIX= -45

 Intra band minimization:
   WEIMIN = 0.0010     energy-eigenvalue tresh-hold
   EBREAK =  0.50E-07  absolut break condition
   DEPER  =   0.30     relativ break condition  

   TIME   =   0.40     timestep for ELM

  volume/ion in A,a.u.               =      15.25       102.94
  Fermi-wavevector in a.u.,A,eV,Ry     =   1.038560  1.962594 14.675334  1.078607
  Thomas-Fermi vector in A             =   2.173050
 
 Write flags
   LWAVE        =      F    write WAVECAR
   LDOWNSAMPLE  =      F    k-point downsampling of WAVECAR
   LCHARG       =      F    write CHGCAR
   LVTOT        =      F    write LOCPOT, total local potential
   LVHAR        =      F    write LOCPOT, Hartree potential only
   LELF         =      F    write electronic localiz. function (ELF)
   LORBIT       =      0    0 simple, 1 ext, 2 COOP (PROOUT), +10 PAW based schemes


 Dipole corrections
   LMONO  =      F    monopole corrections only (constant potential shift)
   LDIPOL =      F    correct potential (dipole corrections)
   IDIPOL =      0    1-x, 2-y, 3-z, 4-all directions 
   EPSILON=  1.0000000 bulk dielectric constant

 Exchange correlation treatment:
   GGA     =    --    GGA type
   LEXCH   =     8    internal setting for exchange type
   VOSKOWN=      0    Vosko Wilk Nusair interpolation
   LHFCALC =     F    Hartree Fock is set to
   LHFONE  =     F    Hartree Fock one center treatment
   AEXX    =    0.0000 exact exchange contribution

 Linear response parameters
   LEPSILON=     F    determine dielectric tensor
   LRPA    =     F    only Hartree local field effects (RPA)
   LNABLA  =     F    use nabla operator in PAW spheres
   LVEL    =     F    velocity operator in full k-point grid
   LINTERFAST=   F  fast interpolation
   KINTER  =     0    interpolate to denser k-point grid
   CSHIFT  =0.1000    complex shift for real part using Kramers Kronig
   OMEGAMAX=  -1.0    maximum frequency
   DEG_THRESHOLD= 0.2000000E-02 threshold for treating states as degnerate
   RTIME   =   -0.100 relaxation time in fs
  (WPLASMAI=    0.000 imaginary part of plasma frequency in eV, 0.658/RTIME)
   DFIELD  = 0.0000000 0.0000000 0.0000000 field for delta impulse in time
 
 Orbital magnetization related:
   ORBITALMAG=     F  switch on orbital magnetization
   LCHIMAG   =     F  perturbation theory with respect to B field
   DQ        =  0.001000  dq finite difference perturbation B field
   LLRAUG    =     F  two centre corrections for induced B field



--------------------------------------------------------------------------------------------------------


 conjugate gradient relaxation of ions
   using selective dynamics as specified on POSCAR
 charge density and potential will be updated during run
 non-spin polarized calculation
 RMM-DIIS sequential band-by-band and
  variant of blocked Davidson during initial phase
 perform sub-space diagonalisation
    before iterative eigenvector-optimisation
 modified Broyden-mixing scheme, WC =      100.0
 initial mixing is a Kerker type mixing with AMIX =  0.4000 and BMIX =      1.0000
 Hartree-type preconditioning will be used
 using additional bands           13
 real space projection scheme for non local part
 use partial core corrections
 calculate Harris-corrections to forces 
   (improved forces if not selfconsistent)
 use gradient corrections 
 use of overlap-Matrix (Vanderbilt PP)
 Gauss-broadening in eV      SIGMA  =   0.05


--------------------------------------------------------------------------------------------------------


  energy-cutoff  :      450.00
  volume of cell :      289.84
      direct lattice vectors                 reciprocal lattice vectors
     2.124436000 -2.124435000  0.000000000     0.313808828 -0.156904414 -0.156904414
     0.000000000  2.124436000 -2.124436000     0.156904340  0.156904414 -0.313808754
    21.406867000 21.406867000 21.406867000     0.015571322  0.015571330  0.015571330

  length of vectors
     3.004405496  3.004406204 37.077781275     0.384335753  0.384335662  0.026970330


 
 k-points in units of 2pi/SCALE and weight: K-Spacing Value to Generate K-Mesh: 0.02
   0.02941957  0.00000000 -0.02941957       0.031
   0.06864568 -0.01961305 -0.04903262       0.062
   0.10787178 -0.03922610 -0.06864568       0.062
   0.14709788 -0.05883916 -0.08825873       0.062
  -0.12748484  0.07845221  0.04903263       0.062
  -0.08825874  0.05883916  0.02941958       0.062
  -0.04903263  0.03922610  0.00980653       0.062
  -0.00980653  0.01961305 -0.00980652       0.031
   0.08825872  0.00000000 -0.08825872       0.031
   0.12748482 -0.01961305 -0.10787177       0.062
   0.16671093 -0.03922610 -0.12748482       0.062
  -0.10787180  0.09806526  0.00980654       0.062
  -0.06864569  0.07845221 -0.00980651       0.062
  -0.02941959  0.05883916 -0.02941956       0.031
   0.14709787  0.00000000 -0.14709787       0.031
   0.18632397 -0.01961305 -0.16671092       0.062
  -0.08825876  0.11767831 -0.02941955       0.062
  -0.04903265  0.09806526 -0.04903261       0.031
   0.20593701  0.00000000 -0.20593701       0.031
  -0.06864571  0.13729136 -0.06864565       0.031
 
 k-points in reciprocal lattice and weights: K-Spacing Value to Generate K-Mesh: 0.02
   0.06250000  0.06250000  0.00000000       0.031
   0.18750000  0.06250000  0.00000000       0.062
   0.31250000  0.06250000 -0.00000000       0.062
   0.43750000  0.06250000 -0.00000000       0.062
  -0.43750000  0.06250000  0.00000000       0.062
  -0.31250000  0.06250000  0.00000000       0.062
  -0.18750000  0.06250000  0.00000000       0.062
  -0.06250000  0.06250000  0.00000000       0.031
   0.18750000  0.18750000  0.00000000       0.031
   0.31250000  0.18750000 -0.00000000       0.062
   0.43750000  0.18750000  0.00000000       0.062
  -0.43750000  0.18750000  0.00000000       0.062
  -0.31250000  0.18750000 -0.00000000       0.062
  -0.18750000  0.18750000  0.00000000       0.031
   0.31250000  0.31250000  0.00000000       0.031
   0.43750000  0.31250000  0.00000000       0.062
  -0.43750000  0.31250000  0.00000000       0.062
  -0.31250000  0.31250000  0.00000000       0.031
   0.43750000  0.43750000  0.00000000       0.031
  -0.43750000  0.43750000  0.00000000       0.031
 
 position of ions in fractional coordinates (direct lattice) 
   0.00000000  0.00000000  0.02697000
   0.33333300  0.66666700  0.09313100
   0.00000000  0.00000000  0.22545200
   0.33333300  0.66666700  0.29161300
   0.00000000  0.00000000  0.42393400
   0.33333300  0.66666700  0.49009400
   0.00000000  0.00000000  0.62241500
   0.66666700  0.33333300  0.15929100
   0.66666700  0.33333300  0.35777300
   0.66666700  0.33333300  0.55625500
   0.00000000  0.00000000  0.12621100
   0.00000000  0.00000000  0.32469300
   0.00000000  0.00000000  0.52317500
   0.66666700  0.33333300  0.06005100
   0.66666700  0.33333300  0.25853200
   0.66666700  0.33333300  0.45701400
   0.33333300  0.66666700  0.19237200
   0.33333300  0.66666700  0.39085300
   0.33333300  0.66666700  0.58933500
 
 position of ions in cartesian coordinates  (Angst):
   0.57734320  0.57734320  0.57734320
   2.70178756  2.70179001  0.57735156
   4.82622098  4.82622098  4.82622098
   6.95066533  6.95066779  4.82622933
   9.07509875  9.07509875  9.07509875
  11.19952170 11.19952416  9.07508570
  13.32395512 13.32395512 13.32395512
   4.82621263  2.70177517  2.70177663
   9.07509040  6.95065294  6.95065440
  13.32396818 11.19953072 11.19953218
   2.70178209  2.70178209  2.70178209
   6.95065987  6.95065987  6.95065987
  11.19953764 11.19953764 11.19953764
   2.70179515  0.57735769  0.57735915
   6.95065151  4.82621406  4.82621551
  11.19952929  9.07509183  9.07509329
   4.82622644  4.82622890  2.70179044
   9.07508281  9.07508527  6.95064681
  13.32396059 13.32396305 11.19952459
 


--------------------------------------------------------------------------------------------------------


 k-point  1 :   0.0625 0.0625 0.0000  plane waves:    6239
 k-point  2 :   0.1875 0.0625 0.0000  plane waves:    6264
 k-point  3 :   0.3125 0.0625-0.0000  plane waves:    6302
 k-point  4 :   0.4375 0.0625-0.0000  plane waves:    6306
 k-point  5 :  -0.4375 0.0625 0.0000  plane waves:    6314
 k-point  6 :  -0.3125 0.0625 0.0000  plane waves:    6296
 k-point  7 :  -0.1875 0.0625 0.0000  plane waves:    6259
 k-point  8 :  -0.0625 0.0625 0.0000  plane waves:    6237
 k-point  9 :   0.1875 0.1875 0.0000  plane waves:    6263
 k-point 10 :   0.3125 0.1875-0.0000  plane waves:    6285
 k-point 11 :   0.4375 0.1875 0.0000  plane waves:    6283
 k-point 12 :  -0.4375 0.1875 0.0000  plane waves:    6273
 k-point 13 :  -0.3125 0.1875-0.0000  plane waves:    6258
 k-point 14 :  -0.1875 0.1875 0.0000  plane waves:    6245
 k-point 15 :   0.3125 0.3125 0.0000  plane waves:    6251
 k-point 16 :   0.4375 0.3125 0.0000  plane waves:    6276
 k-point 17 :  -0.4375 0.3125 0.0000  plane waves:    6301
 k-point 18 :  -0.3125 0.3125 0.0000  plane waves:    6317
 k-point 19 :   0.4375 0.4375 0.0000  plane waves:    6294
 k-point 20 :  -0.4375 0.4375 0.0000  plane waves:    6321

 maximum and minimum number of plane-waves per node :      1590     1547

 maximum number of plane-waves:      6321
 maximum index in each direction: 
   IXMAX=    5   IYMAX=    5   IZMAX=   64
   IXMIN=   -5   IYMIN=   -5   IZMIN=  -64


 real space projection operators:
  total allocation   :       4422.98 KBytes
  max/ min on nodes  :       1117.71       1093.42


 parallel 3D FFT for wavefunctions:
    minimum data exchange during FFTs selected (reduces bandwidth)
 parallel 3D FFT for charge:
    minimum data exchange during FFTs selected (reduces bandwidth)


 total amount of memory used by VASP MPI-rank0    42788. kBytes
=======================================================================

   base      :      30000. kBytes
   nonlr-proj:       2461. kBytes
   fftplans  :       2059. kBytes
   grid      :       2996. kBytes
   one-center:         40. kBytes
   wavefun   :       5232. kBytes
 
     INWAV:  cpu time    0.0000: real time    0.0001
 Broyden mixing: mesh for mixing (old mesh)
   NGX = 11   NGY = 11   NGZ =129
  (NGX  = 32   NGY  = 32   NGZ  =400)
  gives a total of  15609 points

 initial charge density was supplied:
 charge density of overlapping atoms calculated
 number of electron      74.0000000 magnetization 
 keeping initial charge density in first step


--------------------------------------------------------------------------------------------------------


 Maximum index for non-local projection operator          831
 Maximum index for augmentation-charges          557 (set IRDMAX)


--------------------------------------------------------------------------------------------------------


 First call to EWALD:  gamma=   0.268
 Maximum number of real-space cells 6x 6x 1
 Maximum number of reciprocal cells 2x 2x13

    FEWALD:  cpu time    0.0013: real time    0.0013


--------------------------------------- Iteration      1(   1)  ---------------------------------------


    POTLOK:  cpu time    0.0127: real time    0.0128
    SETDIJ:  cpu time    0.0023: real time    0.0023
     EDDAV:  cpu time    1.9747: real time    2.0606
       DOS:  cpu time    0.0012: real time    0.0015
    --------------------------------------------
      LOOP:  cpu time    1.9909: real time    2.0771

 eigenvalue-minimisations  :  2000
 total energy-change (2. order) : 0.4947304E+03  (-0.3148127E+04)
 number of electron      74.0000000 magnetization 
 augmentation part       74.0000000 magnetization 

 Free energy of the ion-electron system (eV)
  ---------------------------------------------------
  alpha Z        PSCENC =       110.66731646
  Ewald energy   TEWEN  =     26483.34300238
  -Hartree energ DENC   =    -30414.48152856
  -exchange      EXHF   =         0.00000000
  -V(xc)+E(xc)   XCENC  =      -233.92418782
  PAW double counting   =      3772.01224470    -3269.57291537
  entropy T*S    EENTRO =        -0.00353301
  eigenvalues    EBANDS =       -74.73694595
  atomic energy  EATOM  =      4121.42696706
  Solvation  Ediel_sol  =         0.00000000
  ---------------------------------------------------
  free energy    TOTEN  =       494.73041989 eV

  energy without entropy =      494.73395290  energy(sigma->0) =      494.73218639


--------------------------------------------------------------------------------------------------------




--------------------------------------- Iteration      1(   2)  ---------------------------------------


     EDDAV:  cpu time    2.5351: real time    2.5519
       DOS:  cpu time    0.0011: real time    0.0015
    --------------------------------------------
      LOOP:  cpu time    2.5362: real time    2.5533

 eigenvalue-minimisations  :  2620
 total energy-change (2. order) :-0.5558524E+03  (-0.5360032E+03)
 number of electron      74.0000000 magnetization 
 augmentation part       74.0000000 magnetization 

 Free energy of the ion-electron system (eV)
  ---------------------------------------------------
  alpha Z        PSCENC =       110.66731646
  Ewald energy   TEWEN  =     26483.34300238
  -Hartree energ DENC   =    -30414.48152856
  -exchange      EXHF   =         0.00000000
  -V(xc)+E(xc)   XCENC  =      -233.92418782
  PAW double counting   =      3772.01224470    -3269.57291537
  entropy T*S    EENTRO =        -0.00205835
  eigenvalues    EBANDS =      -630.59080366
  atomic energy  EATOM  =      4121.42696706
  Solvation  Ediel_sol  =         0.00000000
  ---------------------------------------------------
  free energy    TOTEN  =       -61.12196316 eV

  energy without entropy =      -61.11990481  energy(sigma->0) =      -61.12093398


--------------------------------------------------------------------------------------------------------




--------------------------------------- Iteration      1(   3)  ---------------------------------------


     EDDAV:  cpu time    2.3329: real time    2.3492
       DOS:  cpu time    0.0009: real time    0.0018
    --------------------------------------------
      LOOP:  cpu time    2.3338: real time    2.3511

 eigenvalue-minimisations  :  2390
 total energy-change (2. order) :-0.5957369E+02  (-0.5917106E+02)
 number of electron      74.0000000 magnetization 
 augmentation part       74.0000000 magnetization 

 Free energy of the ion-electron system (eV)
  ---------------------------------------------------
  alpha Z        PSCENC =       110.66731646
  Ewald energy   TEWEN  =     26483.34300238
  -Hartree energ DENC   =    -30414.48152856
  -exchange      EXHF   =         0.00000000
  -V(xc)+E(xc)   XCENC  =      -233.92418782
  PAW double counting   =      3772.01224470    -3269.57291537
  entropy T*S    EENTRO =        -0.00465394
  eigenvalues    EBANDS =      -690.16190125
  atomic energy  EATOM  =      4121.42696706
  Solvation  Ediel_sol  =         0.00000000
  ---------------------------------------------------
  free energy    TOTEN  =      -120.69565634 eV

  energy without entropy =     -120.69100240  energy(sigma->0) =     -120.69332937


--------------------------------------------------------------------------------------------------------




--------------------------------------- Iteration      1(   4)  ---------------------------------------


     EDDAV:  cpu time    2.6479: real time    2.6680
       DOS:  cpu time    0.0007: real time    0.0007
    --------------------------------------------
      LOOP:  cpu time    2.6486: real time    2.6687

 eigenvalue-minimisations  :  2670
 total energy-change (2. order) :-0.1228623E+01  (-0.1226004E+01)
 number of electron      74.0000000 magnetization 
 augmentation part       74.0000000 magnetization 

 Free energy of the ion-electron system (eV)
  ---------------------------------------------------
  alpha Z        PSCENC =       110.66731646
  Ewald energy   TEWEN  =     26483.34300238
  -Hartree energ DENC   =    -30414.48152856
  -exchange      EXHF   =         0.00000000
  -V(xc)+E(xc)   XCENC  =      -233.92418782
  PAW double counting   =      3772.01224470    -3269.57291537
  entropy T*S    EENTRO =        -0.00479655
  eigenvalues    EBANDS =      -691.39038163
  atomic energy  EATOM  =      4121.42696706
  Solvation  Ediel_sol  =         0.00000000
  ---------------------------------------------------
  free energy    TOTEN  =      -121.92427934 eV

  energy without entropy =     -121.91948278  energy(sigma->0) =     -121.92188106


--------------------------------------------------------------------------------------------------------




--------------------------------------- Iteration      1(   5)  ---------------------------------------


     EDDAV:  cpu time    2.4797: real time    2.4905
       DOS:  cpu time    0.0008: real time    0.0019
    --------------------------------------------
      LOOP:  cpu time    2.4805: real time    2.4924

 eigenvalue-minimisations  :  2540
 total energy-change (2. order) :-0.2080808E-01  (-0.2080109E-01)
 number of electron      74.0000000 magnetization 
 augmentation part       74.0000000 magnetization 

 Free energy of the ion-electron system (eV)
  ---------------------------------------------------
  alpha Z        PSCENC =       110.66731646
  Ewald energy   TEWEN  =     26483.34300238
  -Hartree energ DENC   =    -30414.48152856
  -exchange      EXHF   =         0.00000000
  -V(xc)+E(xc)   XCENC  =      -233.92418782
  PAW double counting   =      3772.01224470    -3269.57291537
  entropy T*S    EENTRO =        -0.00479233
  eigenvalues    EBANDS =      -691.41119394
  atomic energy  EATOM  =      4121.42696706
  Solvation  Ediel_sol  =         0.00000000
  ---------------------------------------------------
  free energy    TOTEN  =      -121.94508742 eV

  energy without entropy =     -121.94029509  energy(sigma->0) =     -121.94269125


--------------------------------------------------------------------------------------------------------




--------------------------------------- Iteration      1(   6)  ---------------------------------------


     EDDAV:  cpu time    2.9998: real time    3.0146
       DOS:  cpu time    0.0008: real time    0.0008
    --------------------------------------------
      LOOP:  cpu time    3.0006: real time    3.0154

 eigenvalue-minimisations  :  2660
 total energy-change (2. order) :-0.5622009E-03  (-0.5620584E-03)
 number of electron      74.0000000 magnetization 
 augmentation part       74.0000000 magnetization 

 Free energy of the ion-electron system (eV)
  ---------------------------------------------------
  alpha Z        PSCENC =       110.66731646
  Ewald energy   TEWEN  =     26483.34300238
  -Hartree energ DENC   =    -30414.48152856
  -exchange      EXHF   =         0.00000000
  -V(xc)+E(xc)   XCENC  =      -233.92418782
  PAW double counting   =      3772.01224470    -3269.57291537
  entropy T*S    EENTRO =        -0.00479223
  eigenvalues    EBANDS =      -691.41175624
  atomic energy  EATOM  =      4121.42696706
  Solvation  Ediel_sol  =         0.00000000
  ---------------------------------------------------
  free energy    TOTEN  =      -121.94564962 eV

  energy without entropy =     -121.94085739  energy(sigma->0) =     -121.94325350


--------------------------------------------------------------------------------------------------------




--------------------------------------- Iteration      1(   7)  ---------------------------------------


     EDDAV:  cpu time    2.4670: real time    2.4798
       DOS:  cpu time    0.0008: real time    0.0008
    --------------------------------------------
      LOOP:  cpu time    2.4678: real time    2.4806

 eigenvalue-minimisations  :  2530
 total energy-change (2. order) :-0.1988372E-04  (-0.1988195E-04)
 number of electron      74.0000000 magnetization 
 augmentation part       74.0000000 magnetization 

 Free energy of the ion-electron system (eV)
  ---------------------------------------------------
  alpha Z        PSCENC =       110.66731646
  Ewald energy   TEWEN  =     26483.34300238
  -Hartree energ DENC   =    -30414.48152856
  -exchange      EXHF   =         0.00000000
  -V(xc)+E(xc)   XCENC  =      -233.92418782
  PAW double counting   =      3772.01224470    -3269.57291537
  entropy T*S    EENTRO =        -0.00479223
  eigenvalues    EBANDS =      -691.41177612
  atomic energy  EATOM  =      4121.42696706
  Solvation  Ediel_sol  =         0.00000000
  ---------------------------------------------------
  free energy    TOTEN  =      -121.94566950 eV

  energy without entropy =     -121.94087727  energy(sigma->0) =     -121.94327339


--------------------------------------------------------------------------------------------------------




--------------------------------------- Iteration      1(   8)  ---------------------------------------


     EDDAV:  cpu time    2.1533: real time    2.1645
       DOS:  cpu time    0.0009: real time    0.0018
    CHARGE:  cpu time    0.0814: real time    0.0815
    MIXING:  cpu time    0.0009: real time    0.0009
    --------------------------------------------
      LOOP:  cpu time    2.2365: real time    2.2488

 eigenvalue-minimisations  :  2000
 total energy-change (2. order) :-0.6807204E-06  (-0.6806600E-06)
 number of electron      74.0000016 magnetization 
 augmentation part        7.2066498 magnetization 

 Broyden mixing:
  rms(total) = 0.22032E+01    rms(broyden)= 0.22026E+01
  rms(prec ) = 0.22788E+01
  weight for this iteration     100.00

 Free energy of the ion-electron system (eV)
  ---------------------------------------------------
  alpha Z        PSCENC =       110.66731646
  Ewald energy   TEWEN  =     26483.34300238
  -Hartree energ DENC   =    -30414.48152856
  -exchange      EXHF   =         0.00000000
  -V(xc)+E(xc)   XCENC  =      -233.92418782
  PAW double counting   =      3772.01224470    -3269.57291537
  entropy T*S    EENTRO =        -0.00479223
  eigenvalues    EBANDS =      -691.41177680
  atomic energy  EATOM  =      4121.42696706
  Solvation  Ediel_sol  =         0.00000000
  ---------------------------------------------------
  free energy    TOTEN  =      -121.94567018 eV

  energy without entropy =     -121.94087795  energy(sigma->0) =     -121.94327407


--------------------------------------------------------------------------------------------------------




--------------------------------------- Iteration      1(   9)  ---------------------------------------


    POTLOK:  cpu time    0.0102: real time    0.0112
    SETDIJ:  cpu time    0.0023: real time    0.0031
    EDDIAG:  cpu time    0.2976: real time    0.2994
  RMM-DIIS:  cpu time    1.3745: real time    1.3808
    ORTHCH:  cpu time    0.0297: real time    0.0299
       DOS:  cpu time    0.0007: real time    0.0007
    CHARGE:  cpu time    0.0796: real time    0.0798
    MIXING:  cpu time    0.0009: real time    0.0009
    --------------------------------------------
      LOOP:  cpu time    1.7955: real time    1.8059

 eigenvalue-minimisations  :  2000
 total energy-change (2. order) : 0.1459238E+02  (-0.6900130E+01)
 number of electron      74.0000013 magnetization 
 augmentation part        5.9404794 magnetization 

 Broyden mixing:
  rms(total) = 0.70488E+00    rms(broyden)= 0.70388E+00
  rms(prec ) = 0.71269E+00
  weight for this iteration     100.00

 eigenvalues of (default mixing * dielectric matrix)
  average eigenvalue GAMMA=   0.8493
  0.8493

 Free energy of the ion-electron system (eV)
  ---------------------------------------------------
  alpha Z        PSCENC =       110.66731646
  Ewald energy   TEWEN  =     26483.34300238
  -Hartree energ DENC   =    -30666.21052290
  -exchange      EXHF   =         0.00000000
  -V(xc)+E(xc)   XCENC  =      -221.82805454
  PAW double counting   =      4437.64860803    -3938.26549743
  entropy T*S    EENTRO =        -0.00362495
  eigenvalues    EBANDS =      -434.13148388
  atomic energy  EATOM  =      4121.42696706
  Solvation  Ediel_sol  =         0.00000000
  ---------------------------------------------------
  free energy    TOTEN  =      -107.35328977 eV

  energy without entropy =     -107.34966482  energy(sigma->0) =     -107.35147729


--------------------------------------------------------------------------------------------------------




--------------------------------------- Iteration      1(  10)  ---------------------------------------


    POTLOK:  cpu time    0.0106: real time    0.0108
    SETDIJ:  cpu time    0.0022: real time    0.0022
    EDDIAG:  cpu time    0.2988: real time    0.3003
  RMM-DIIS:  cpu time    1.3934: real time    1.4019
    ORTHCH:  cpu time    0.0303: real time    0.0304
       DOS:  cpu time    0.0008: real time    0.0008
    CHARGE:  cpu time    0.0817: real time    0.0820
    MIXING:  cpu time    0.0008: real time    0.0008
    --------------------------------------------
      LOOP:  cpu time    1.8186: real time    1.8291

 eigenvalue-minimisations  :  2006
 total energy-change (2. order) : 0.2626830E+00  (-0.6283196E-01)
 number of electron      74.0000013 magnetization 
 augmentation part        5.9325147 magnetization 

 Broyden mixing:
  rms(total) = 0.45869E+00    rms(broyden)= 0.45865E+00
  rms(prec ) = 0.46504E+00
  weight for this iteration     100.00

 eigenvalues of (default mixing * dielectric matrix)
  average eigenvalue GAMMA=   1.6595
  1.0126  2.3063

 Free energy of the ion-electron system (eV)
  ---------------------------------------------------
  alpha Z        PSCENC =       110.66731646
  Ewald energy   TEWEN  =     26483.34300238
  -Hartree energ DENC   =    -30658.09981557
  -exchange      EXHF   =         0.00000000
  -V(xc)+E(xc)   XCENC  =      -221.45442056
  PAW double counting   =      4639.47094310    -4139.79915497
  entropy T*S    EENTRO =        -0.00312159
  eigenvalues    EBANDS =      -442.64232311
  atomic energy  EATOM  =      4121.42696706
  Solvation  Ediel_sol  =         0.00000000
  ---------------------------------------------------
  free energy    TOTEN  =      -107.09060678 eV

  energy without entropy =     -107.08748519  energy(sigma->0) =     -107.08904599


--------------------------------------------------------------------------------------------------------




--------------------------------------- Iteration      1(  11)  ---------------------------------------


    POTLOK:  cpu time    0.0108: real time    0.0109
    SETDIJ:  cpu time    0.0023: real time    0.0023
    EDDIAG:  cpu time    0.2996: real time    0.3006
  RMM-DIIS:  cpu time    1.3732: real time    1.3818
    ORTHCH:  cpu time    0.0305: real time    0.0306
       DOS:  cpu time    0.0007: real time    0.0007
    CHARGE:  cpu time    0.0804: real time    0.0807
    MIXING:  cpu time    0.0008: real time    0.0008
    --------------------------------------------
      LOOP:  cpu time    1.7984: real time    1.8085

 eigenvalue-minimisations  :  2000
 total energy-change (2. order) :-0.1228200E+00  (-0.5701026E-01)
 number of electron      74.0000013 magnetization 
 augmentation part        6.0096385 magnetization 

 Broyden mixing:
  rms(total) = 0.14646E+00    rms(broyden)= 0.14639E+00
  rms(prec ) = 0.27876E+00
  weight for this iteration     100.00

 eigenvalues of (default mixing * dielectric matrix)
  average eigenvalue GAMMA=   1.3155
  2.4153  0.9768  0.5546

 Free energy of the ion-electron system (eV)
  ---------------------------------------------------
  alpha Z        PSCENC =       110.66731646
  Ewald energy   TEWEN  =     26483.34300238
  -Hartree energ DENC   =    -30641.02236867
  -exchange      EXHF   =         0.00000000
  -V(xc)+E(xc)   XCENC  =      -220.65489057
  PAW double counting   =      4980.66166145    -4480.57172075
  entropy T*S    EENTRO =        -0.00027591
  eigenvalues    EBANDS =      -461.06311823
  atomic energy  EATOM  =      4121.42696706
  Solvation  Ediel_sol  =         0.00000000
  ---------------------------------------------------
  free energy    TOTEN  =      -107.21342675 eV

  energy without entropy =     -107.21315085  energy(sigma->0) =     -107.21328880


--------------------------------------------------------------------------------------------------------




--------------------------------------- Iteration      1(  12)  ---------------------------------------


    POTLOK:  cpu time    0.0105: real time    0.0107
    SETDIJ:  cpu time    0.0023: real time    0.0023
    EDDIAG:  cpu time    0.2983: real time    0.2993
  RMM-DIIS:  cpu time    1.3940: real time    1.4000
    ORTHCH:  cpu time    0.0294: real time    0.0294
       DOS:  cpu time    0.0008: real time    0.0008
    CHARGE:  cpu time    0.0800: real time    0.0802
    MIXING:  cpu time    0.0009: real time    0.0009
    --------------------------------------------
      LOOP:  cpu time    1.8162: real time    1.8236

 eigenvalue-minimisations  :  2000
 total energy-change (2. order) : 0.1973368E+00  (-0.3122409E-02)
 number of electron      74.0000013 magnetization 
 augmentation part        6.0065079 magnetization 

 Broyden mixing:
  rms(total) = 0.87248E-01    rms(broyden)= 0.87203E-01
  rms(prec ) = 0.10146E+00
  weight for this iteration     100.00

 eigenvalues of (default mixing * dielectric matrix)
  average eigenvalue GAMMA=   1.1314
  2.4934  0.9002  0.9002  0.2316

 Free energy of the ion-electron system (eV)
  ---------------------------------------------------
  alpha Z        PSCENC =       110.66731646
  Ewald energy   TEWEN  =     26483.34300238
  -Hartree energ DENC   =    -30642.20465799
  -exchange      EXHF   =         0.00000000
  -V(xc)+E(xc)   XCENC  =      -220.47606318
  PAW double counting   =      4993.06272661    -4492.99958197
  entropy T*S    EENTRO =        -0.00114598
  eigenvalues    EBANDS =      -459.83465339
  atomic energy  EATOM  =      4121.42696706
  Solvation  Ediel_sol  =         0.00000000
  ---------------------------------------------------
  free energy    TOTEN  =      -107.01608998 eV

  energy without entropy =     -107.01494400  energy(sigma->0) =     -107.01551699


--------------------------------------------------------------------------------------------------------




--------------------------------------- Iteration      1(  13)  ---------------------------------------


    POTLOK:  cpu time    0.0105: real time    0.0107
    SETDIJ:  cpu time    0.0023: real time    0.0025
    EDDIAG:  cpu time    0.2953: real time    0.2963
  RMM-DIIS:  cpu time    1.3873: real time    1.3932
    ORTHCH:  cpu time    0.0302: real time    0.0306
       DOS:  cpu time    0.0008: real time    0.0008
    CHARGE:  cpu time    0.0800: real time    0.0803
    MIXING:  cpu time    0.0008: real time    0.0008
    --------------------------------------------
      LOOP:  cpu time    1.8072: real time    1.8152

 eigenvalue-minimisations  :  2001
 total energy-change (2. order) : 0.3151793E-01  (-0.5828164E-02)
 number of electron      74.0000013 magnetization 
 augmentation part        5.9737414 magnetization 

 Broyden mixing:
  rms(total) = 0.28293E-01    rms(broyden)= 0.28273E-01
  rms(prec ) = 0.30822E-01
  weight for this iteration     100.00

 eigenvalues of (default mixing * dielectric matrix)
  average eigenvalue GAMMA=   1.4709
  2.9149  2.3927  0.9068  0.9068  0.2333

 Free energy of the ion-electron system (eV)
  ---------------------------------------------------
  alpha Z        PSCENC =       110.66731646
  Ewald energy   TEWEN  =     26483.34300238
  -Hartree energ DENC   =    -30645.87995765
  -exchange      EXHF   =         0.00000000
  -V(xc)+E(xc)   XCENC  =      -220.07192820
  PAW double counting   =      5005.68390759    -4505.71036551
  entropy T*S    EENTRO =        -0.00343864
  eigenvalues    EBANDS =      -456.44007556
  atomic energy  EATOM  =      4121.42696706
  Solvation  Ediel_sol  =         0.00000000
  ---------------------------------------------------
  free energy    TOTEN  =      -106.98457205 eV

  energy without entropy =     -106.98113342  energy(sigma->0) =     -106.98285273


--------------------------------------------------------------------------------------------------------




--------------------------------------- Iteration      1(  14)  ---------------------------------------


    POTLOK:  cpu time    0.0105: real time    0.0107
    SETDIJ:  cpu time    0.0023: real time    0.0023
    EDDIAG:  cpu time    0.3256: real time    0.3273
  RMM-DIIS:  cpu time    1.2607: real time    1.2682
    ORTHCH:  cpu time    0.0322: real time    0.0324
       DOS:  cpu time    0.0008: real time    0.0008
    CHARGE:  cpu time    0.0824: real time    0.0826
    MIXING:  cpu time    0.0011: real time    0.0011
    --------------------------------------------
      LOOP:  cpu time    1.7155: real time    1.7253

 eigenvalue-minimisations  :  2000
 total energy-change (2. order) :-0.8298398E-02  (-0.3526098E-02)
 number of electron      74.0000013 magnetization 
 augmentation part        5.9499966 magnetization 

 Broyden mixing:
  rms(total) = 0.36270E-01    rms(broyden)= 0.36252E-01
  rms(prec ) = 0.59140E-01
  weight for this iteration     100.00

 eigenvalues of (default mixing * dielectric matrix)
  average eigenvalue GAMMA=   1.4011
  2.7672  2.4887  0.9408  0.9875  0.9875  0.2349

 Free energy of the ion-electron system (eV)
  ---------------------------------------------------
  alpha Z        PSCENC =       110.66731646
  Ewald energy   TEWEN  =     26483.34300238
  -Hartree energ DENC   =    -30646.33156574
  -exchange      EXHF   =         0.00000000
  -V(xc)+E(xc)   XCENC  =      -219.79518741
  PAW double counting   =      4982.93291921    -4483.04318378
  entropy T*S    EENTRO =        -0.00121827
  eigenvalues    EBANDS =      -456.19192037
  atomic energy  EATOM  =      4121.42696706
  Solvation  Ediel_sol  =         0.00000000
  ---------------------------------------------------
  free energy    TOTEN  =      -106.99287045 eV

  energy without entropy =     -106.99165218  energy(sigma->0) =     -106.99226132


--------------------------------------------------------------------------------------------------------




--------------------------------------- Iteration      1(  15)  ---------------------------------------


    POTLOK:  cpu time    0.0116: real time    0.0118
    SETDIJ:  cpu time    0.0023: real time    0.0023
    EDDIAG:  cpu time    0.3294: real time    0.3307
  RMM-DIIS:  cpu time    1.5595: real time    1.5806
    ORTHCH:  cpu time    0.0302: real time    0.0427
       DOS:  cpu time    0.0014: real time    0.0016
    CHARGE:  cpu time    0.0787: real time    0.0789
    MIXING:  cpu time    0.0009: real time    0.0009
    --------------------------------------------
      LOOP:  cpu time    2.0141: real time    2.0495

 eigenvalue-minimisations  :  2000
 total energy-change (2. order) :-0.9645067E-03  (-0.6955709E-03)
 number of electron      74.0000013 magnetization 
 augmentation part        5.9606411 magnetization 

 Broyden mixing:
  rms(total) = 0.22198E-01    rms(broyden)= 0.22179E-01
  rms(prec ) = 0.52001E-01
  weight for this iteration     100.00

 eigenvalues of (default mixing * dielectric matrix)
  average eigenvalue GAMMA=   1.3194
  2.6273  2.6273  1.0681  1.0681  0.9300  0.6798  0.2355

 Free energy of the ion-electron system (eV)
  ---------------------------------------------------
  alpha Z        PSCENC =       110.66731646
  Ewald energy   TEWEN  =     26483.34300238
  -Hartree energ DENC   =    -30643.91407371
  -exchange      EXHF   =         0.00000000
  -V(xc)+E(xc)   XCENC  =      -219.91613420
  PAW double counting   =      4976.33947651    -4476.41793014
  entropy T*S    EENTRO =        -0.00116541
  eigenvalues    EBANDS =      -458.52129391
  atomic energy  EATOM  =      4121.42696706
  Solvation  Ediel_sol  =         0.00000000
  ---------------------------------------------------
  free energy    TOTEN  =      -106.99383496 eV

  energy without entropy =     -106.99266955  energy(sigma->0) =     -106.99325225


--------------------------------------------------------------------------------------------------------




--------------------------------------- Iteration      1(  16)  ---------------------------------------


    POTLOK:  cpu time    0.0103: real time    0.0123
    SETDIJ:  cpu time    0.0023: real time    0.0030
    EDDIAG:  cpu time    0.2710: real time    0.2718
  RMM-DIIS:  cpu time    1.4508: real time    1.4604
    ORTHCH:  cpu time    0.0335: real time    0.0336
       DOS:  cpu time    0.0008: real time    0.0008
    CHARGE:  cpu time    0.0821: real time    0.0825
    MIXING:  cpu time    0.0010: real time    0.0010
    --------------------------------------------
      LOOP:  cpu time    1.8519: real time    1.8655

 eigenvalue-minimisations  :  2000
 total energy-change (2. order) : 0.9039235E-02  (-0.8961912E-04)
 number of electron      74.0000013 magnetization 
 augmentation part        5.9639001 magnetization 

 Broyden mixing:
  rms(total) = 0.39968E-02    rms(broyden)= 0.39864E-02
  rms(prec ) = 0.84164E-02
  weight for this iteration     100.00

 eigenvalues of (default mixing * dielectric matrix)
  average eigenvalue GAMMA=   1.3535
  2.8696  2.4433  1.8517  0.2355  0.9522  0.9522  0.8679  0.6556

 Free energy of the ion-electron system (eV)
  ---------------------------------------------------
  alpha Z        PSCENC =       110.66731646
  Ewald energy   TEWEN  =     26483.34300238
  -Hartree energ DENC   =    -30643.43700828
  -exchange      EXHF   =         0.00000000
  -V(xc)+E(xc)   XCENC  =      -219.94113087
  PAW double counting   =      4975.57615521    -4475.64765517
  entropy T*S    EENTRO =        -0.00350495
  eigenvalues    EBANDS =      -458.96893757
  atomic energy  EATOM  =      4121.42696706
  Solvation  Ediel_sol  =         0.00000000
  ---------------------------------------------------
  free energy    TOTEN  =      -106.98479572 eV

  energy without entropy =     -106.98129077  energy(sigma->0) =     -106.98304325


--------------------------------------------------------------------------------------------------------




--------------------------------------- Iteration      1(  17)  ---------------------------------------


    POTLOK:  cpu time    0.0109: real time    0.0110
    SETDIJ:  cpu time    0.0024: real time    0.0025
    EDDIAG:  cpu time    0.3562: real time    0.3576
  RMM-DIIS:  cpu time    1.2526: real time    1.2577
    ORTHCH:  cpu time    0.0286: real time    0.0287
       DOS:  cpu time    0.0008: real time    0.0008
    CHARGE:  cpu time    0.0784: real time    0.0786
    MIXING:  cpu time    0.0010: real time    0.0010
    --------------------------------------------
      LOOP:  cpu time    1.7310: real time    1.7379

 eigenvalue-minimisations  :  1814
 total energy-change (2. order) :-0.9288966E-03  (-0.1139369E-04)
 number of electron      74.0000013 magnetization 
 augmentation part        5.9636048 magnetization 

 Broyden mixing:
  rms(total) = 0.11923E-01    rms(broyden)= 0.11916E-01
  rms(prec ) = 0.28654E-01
  weight for this iteration     100.00

 eigenvalues of (default mixing * dielectric matrix)
  average eigenvalue GAMMA=   1.3593
  2.9475  2.4872  2.2292  0.2354  0.9676  0.9676  0.9556  0.7219  0.7219

 Free energy of the ion-electron system (eV)
  ---------------------------------------------------
  alpha Z        PSCENC =       110.66731646
  Ewald energy   TEWEN  =     26483.34300238
  -Hartree energ DENC   =    -30643.43810537
  -exchange      EXHF   =         0.00000000
  -V(xc)+E(xc)   XCENC  =      -219.93177820
  PAW double counting   =      4976.33599644    -4476.40914327
  entropy T*S    EENTRO =        -0.00279037
  eigenvalues    EBANDS =      -458.97718976
  atomic energy  EATOM  =      4121.42696706
  Solvation  Ediel_sol  =         0.00000000
  ---------------------------------------------------
  free energy    TOTEN  =      -106.98572462 eV

  energy without entropy =     -106.98293425  energy(sigma->0) =     -106.98432943


--------------------------------------------------------------------------------------------------------




--------------------------------------- Iteration      1(  18)  ---------------------------------------


    POTLOK:  cpu time    0.0099: real time    0.0100
    SETDIJ:  cpu time    0.0022: real time    0.0022
    EDDIAG:  cpu time    0.3103: real time    0.3114
  RMM-DIIS:  cpu time    1.3497: real time    1.3578
    ORTHCH:  cpu time    0.0315: real time    0.0316
       DOS:  cpu time    0.0008: real time    0.0008
    CHARGE:  cpu time    0.0831: real time    0.0833
    MIXING:  cpu time    0.0011: real time    0.0011
    --------------------------------------------
      LOOP:  cpu time    1.7885: real time    1.7982

 eigenvalue-minimisations  :  1712
 total energy-change (2. order) : 0.5256726E-03  (-0.6150590E-05)
 number of electron      74.0000013 magnetization 
 augmentation part        5.9636925 magnetization 

 Broyden mixing:
  rms(total) = 0.83374E-02    rms(broyden)= 0.83281E-02
  rms(prec ) = 0.20194E-01
  weight for this iteration     100.00

 eigenvalues of (default mixing * dielectric matrix)
  average eigenvalue GAMMA=   1.3177
  3.0182  2.4538  2.4538  1.0293  1.0293  0.9120  0.9120  0.2354  0.5664  0.5664

 Free energy of the ion-electron system (eV)
  ---------------------------------------------------
  alpha Z        PSCENC =       110.66731646
  Ewald energy   TEWEN  =     26483.34300238
  -Hartree energ DENC   =    -30643.38624060
  -exchange      EXHF   =         0.00000000
  -V(xc)+E(xc)   XCENC  =      -219.93370948
  PAW double counting   =      4976.61458869    -4476.68730582
  entropy T*S    EENTRO =        -0.00317789
  eigenvalues    EBANDS =      -459.02663975
  atomic energy  EATOM  =      4121.42696706
  Solvation  Ediel_sol  =         0.00000000
  ---------------------------------------------------
  free energy    TOTEN  =      -106.98519895 eV

  energy without entropy =     -106.98202106  energy(sigma->0) =     -106.98361000


--------------------------------------------------------------------------------------------------------




--------------------------------------- Iteration      1(  19)  ---------------------------------------


    POTLOK:  cpu time    0.0112: real time    0.0113
    SETDIJ:  cpu time    0.0026: real time    0.0026
    EDDIAG:  cpu time    0.3293: real time    0.3305
  RMM-DIIS:  cpu time    0.8289: real time    0.8335
    ORTHCH:  cpu time    0.0299: real time    0.0305
       DOS:  cpu time    0.0008: real time    0.0008
    CHARGE:  cpu time    0.0793: real time    0.0795
    MIXING:  cpu time    0.0010: real time    0.0010
    --------------------------------------------
      LOOP:  cpu time    1.2831: real time    1.2897

 eigenvalue-minimisations  :  1276
 total energy-change (2. order) : 0.4174838E-03  (-0.8819214E-06)
 number of electron      74.0000013 magnetization 
 augmentation part        5.9634656 magnetization 

 Broyden mixing:
  rms(total) = 0.27170E-02    rms(broyden)= 0.27165E-02
  rms(prec ) = 0.65697E-02
  weight for this iteration     100.00

 eigenvalues of (default mixing * dielectric matrix)
  average eigenvalue GAMMA=   1.3719
  3.0436  2.8035  2.3108  1.5901  0.2354  1.0629  1.0629  0.8931  0.8931  0.5976
  0.5976

 Free energy of the ion-electron system (eV)
  ---------------------------------------------------
  alpha Z        PSCENC =       110.66731646
  Ewald energy   TEWEN  =     26483.34300238
  -Hartree energ DENC   =    -30643.42522953
  -exchange      EXHF   =         0.00000000
  -V(xc)+E(xc)   XCENC  =      -219.93090092
  PAW double counting   =      4976.88531344    -4476.95870432
  entropy T*S    EENTRO =        -0.00352625
  eigenvalues    EBANDS =      -458.98901978
  atomic energy  EATOM  =      4121.42696706
  Solvation  Ediel_sol  =         0.00000000
  ---------------------------------------------------
  free energy    TOTEN  =      -106.98478146 eV

  energy without entropy =     -106.98125522  energy(sigma->0) =     -106.98301834


--------------------------------------------------------------------------------------------------------




--------------------------------------- Iteration      1(  20)  ---------------------------------------


    POTLOK:  cpu time    0.0101: real time    0.0102
    SETDIJ:  cpu time    0.0022: real time    0.0022
    EDDIAG:  cpu time    0.3491: real time    0.3502
  RMM-DIIS:  cpu time    0.9871: real time    0.9933
    ORTHCH:  cpu time    0.0315: real time    0.0316
       DOS:  cpu time    0.0008: real time    0.0008
    CHARGE:  cpu time    0.0821: real time    0.0824
    MIXING:  cpu time    0.0014: real time    0.0014
    --------------------------------------------
      LOOP:  cpu time    1.4644: real time    1.4720

 eigenvalue-minimisations  :  1060
 total energy-change (2. order) : 0.4397117E-04  (-0.2777363E-06)
 number of electron      74.0000013 magnetization 
 augmentation part        5.9634352 magnetization 

 Broyden mixing:
  rms(total) = 0.16433E-03    rms(broyden)= 0.14750E-03
  rms(prec ) = 0.22325E-03
  weight for this iteration     100.00
  WARNING: grid for Broyden might be to small

 eigenvalues of (default mixing * dielectric matrix)
  average eigenvalue GAMMA=   1.4101
  3.2962  2.7814  2.4177  2.0696  0.2354  1.0413  1.0413  1.0055  0.9220  0.9220
  0.5946  0.5946

 Free energy of the ion-electron system (eV)
  ---------------------------------------------------
  alpha Z        PSCENC =       110.66731646
  Ewald energy   TEWEN  =     26483.34300238
  -Hartree energ DENC   =    -30643.42290444
  -exchange      EXHF   =         0.00000000
  -V(xc)+E(xc)   XCENC  =      -219.93158392
  PAW double counting   =      4976.89315878    -4476.96647531
  entropy T*S    EENTRO =        -0.00356734
  eigenvalues    EBANDS =      -458.99065117
  atomic energy  EATOM  =      4121.42696706
  Solvation  Ediel_sol  =         0.00000000
  ---------------------------------------------------
  free energy    TOTEN  =      -106.98473749 eV

  energy without entropy =     -106.98117016  energy(sigma->0) =     -106.98295383


--------------------------------------------------------------------------------------------------------




--------------------------------------- Iteration      1(  21)  ---------------------------------------


    POTLOK:  cpu time    0.0113: real time    0.0115
    SETDIJ:  cpu time    0.0023: real time    0.0023
    EDDIAG:  cpu time    0.3259: real time    0.3273
  RMM-DIIS:  cpu time    0.7337: real time    0.7355
    ORTHCH:  cpu time    0.0282: real time    0.0283
       DOS:  cpu time    0.0007: real time    0.0007
    --------------------------------------------
      LOOP:  cpu time    1.1022: real time    1.1056

 eigenvalue-minimisations  :   855
 total energy-change (2. order) :-0.2228727E-05  (-0.8280882E-07)
 number of electron      74.0000013 magnetization 
 augmentation part        5.9634352 magnetization 

 Free energy of the ion-electron system (eV)
  ---------------------------------------------------
  alpha Z        PSCENC =       110.66731646
  Ewald energy   TEWEN  =     26483.34300238
  -Hartree energ DENC   =    -30643.42713720
  -exchange      EXHF   =         0.00000000
  -V(xc)+E(xc)   XCENC  =      -219.93161936
  PAW double counting   =      4976.92179110    -4476.99506200
  entropy T*S    EENTRO =        -0.00356714
  eigenvalues    EBANDS =      -458.98643104
  atomic energy  EATOM  =      4121.42696706
  Solvation  Ediel_sol  =         0.00000000
  ---------------------------------------------------
  free energy    TOTEN  =      -106.98473972 eV

  energy without entropy =     -106.98117258  energy(sigma->0) =     -106.98295615


--------------------------------------------------------------------------------------------------------




 average (electrostatic) potential at core
  the test charge radii are     1.0714  0.7215
  (the norm of the test charge is              1.0000)
       1 -39.4316       2 -39.2877       3 -39.2446       4 -39.2442       5 -39.2448
       6 -39.2475       7 -39.4309       8 -39.2477       9 -39.2442      10 -39.2871
      11 -73.7154      12 -73.7072      13 -73.7149      14 -73.8127      15 -73.7072
      16 -73.7085      17 -73.7083      18 -73.7073      19 -73.8122
 
 
 
 E-fermi :   3.0372     XC(G=0):  -7.6211     alpha+bet : -8.2245


 k-point     1 :       0.0625    0.0625    0.0000
  band No.  band energies     occupation 
      1     -17.9515      2.00000
      2     -17.8932      2.00000
      3     -17.7894      2.00000
      4     -17.6453      2.00000
      5     -17.4727      2.00000
      6     -17.2872      2.00000
      7     -17.1079      2.00000
      8     -16.9556      2.00000
      9     -16.8512      2.00000
     10      -5.2329      2.00000
     11      -5.0547      2.00000
     12      -4.7480      2.00000
     13      -4.3250      2.00000
     14      -3.8126      2.00000
     15      -3.2467      2.00000
     16      -2.6767      2.00000
     17      -2.1842      2.00000
     18      -1.9641      2.00000
     19      -1.9446      2.00000
     20      -1.8516      2.00000
     21      -1.8506      2.00000
     22      -1.7071      2.00000
     23      -1.6819      2.00000
     24      -1.6400      2.00000
     25      -1.6094      2.00000
     26      -1.5631      2.00000
     27      -1.5511      2.00000
     28      -1.4599      2.00000
     29      -1.4350      2.00000
     30      -1.3523      2.00000
     31      -1.2870      2.00000
     32      -1.2288      2.00000
     33      -1.1796      2.00000
     34      -1.1077      2.00000
     35      -1.0964      2.00000
     36      -1.0543      2.00000
     37       0.8456      2.00000
     38       0.8466      2.00000
     39       4.3325      0.00000
     40       4.6866      0.00000
     41       5.1343      0.00000
     42       5.5897      0.00000
     43       6.0314      0.00000
     44       6.4756      0.00000
     45       6.8560      0.00000
     46       7.1471      0.00000
     47       7.2778      0.00000
     48       7.3699      0.00000
     49       7.5349      0.00000
     50       8.6096      0.00000

 k-point     2 :       0.1875    0.0625    0.0000
  band No.  band energies     occupation 
      1     -17.6383      2.00000
      2     -17.5917      2.00000
      3     -17.5061      2.00000
      4     -17.3860      2.00000
      5     -17.2423      2.00000
      6     -17.0888      2.00000
      7     -16.9415      2.00000
      8     -16.8172      2.00000
      9     -16.7324      2.00000
     10      -4.7669      2.00000
     11      -4.6541      2.00000
     12      -4.4709      2.00000
     13      -4.2387      2.00000
     14      -3.9825      2.00000
     15      -3.7211      2.00000
     16      -3.4738      2.00000
     17      -3.2615      2.00000
     18      -3.0898      2.00000
     19      -2.9594      2.00000
     20      -2.9125      2.00000
     21      -2.7547      2.00000
     22      -2.5152      2.00000
     23      -2.2305      2.00000
     24      -1.9459      2.00000
     25      -1.8923      2.00000
     26      -1.8643      2.00000
     27      -1.7984      2.00000
     28      -1.7360      2.00000
     29      -1.6378      2.00000
     30      -1.6278      2.00000
     31      -1.5355      2.00000
     32      -1.4800      2.00000
     33      -1.3938      2.00000
     34      -1.3873      2.00000
     35      -1.3161      2.00000
     36      -1.2180      2.00000
     37       1.5042      2.00000
     38       1.5050      2.00000
     39       5.6880      0.00000
     40       5.9276      0.00000
     41       6.2651      0.00000
     42       6.6225      0.00000
     43       6.9683      0.00000
     44       7.3745      0.00000
     45       7.8100      0.00000
     46       8.2313      0.00000
     47       8.3656      0.00000
     48       8.5472      0.00000
     49       8.5979      0.00000
     50      10.2918      0.00000

 k-point     3 :       0.3125    0.0625   -0.0000
  band No.  band energies     occupation 
      1     -17.2053      2.00000
      2     -17.1792      2.00000
      3     -17.1241      2.00000
      4     -17.0444      2.00000
      5     -16.9493      2.00000
      6     -16.8483      2.00000
      7     -16.7522      2.00000
      8     -16.6715      2.00000
      9     -16.6165      2.00000
     10      -4.7895      2.00000
     11      -4.6918      2.00000
     12      -4.5991      2.00000
     13      -4.5419      2.00000
     14      -4.4760      2.00000
     15      -4.3614      2.00000
     16      -4.2720      2.00000
     17      -4.1386      2.00000
     18      -4.0963      2.00000
     19      -3.8246      2.00000
     20      -3.4590      2.00000
     21      -3.0540      2.00000
     22      -2.6521      2.00000
     23      -2.3050      2.00000
     24      -2.1881      2.00000
     25      -2.1722      2.00000
     26      -2.1091      2.00000
     27      -2.0526      2.00000
     28      -2.0285      2.00000
     29      -1.9882      2.00000
     30      -1.8947      2.00000
     31      -1.8179      2.00000
     32      -1.7566      2.00000
     33      -1.6477      2.00000
     34      -1.6048      2.00000
     35      -1.5588      2.00000
     36      -1.4553      2.00000
     37       2.6263      2.00000
     38       2.6271      2.00000
     39       6.7437      0.00000
     40       6.9068      0.00000
     41       7.1479      0.00000
     42       7.4467      0.00000
     43       7.7654      0.00000
     44       8.0523      0.00000
     45       8.3208      0.00000
     46       8.6668      0.00000
     47       8.8516      0.00000
     48       9.0094      0.00000
     49       9.0976      0.00000
     50       9.2408      0.00000

 k-point     4 :       0.4375    0.0625   -0.0000
  band No.  band energies     occupation 
      1     -16.8814      2.00000
      2     -16.8791      2.00000
      3     -16.8481      2.00000
      4     -16.8133      2.00000
      5     -16.7702      2.00000
      6     -16.7231      2.00000
      7     -16.6771      2.00000
      8     -16.6372      2.00000
      9     -16.6091      2.00000
     10      -5.3483      2.00000
     11      -5.2449      2.00000
     12      -5.0778      2.00000
     13      -4.8827      2.00000
     14      -4.8490      2.00000
     15      -4.7610      2.00000
     16      -4.7149      2.00000
     17      -4.6187      2.00000
     18      -4.5923      2.00000
     19      -3.0672      2.00000
     20      -2.9303      2.00000
     21      -2.7274      2.00000
     22      -2.6252      2.00000
     23      -2.5102      2.00000
     24      -2.3690      2.00000
     25      -2.3582      2.00000
     26      -2.3325      2.00000
     27      -2.2788      2.00000
     28      -2.2387      2.00000
     29      -2.1305      2.00000
     30      -2.0695      2.00000
     31      -1.9660      2.00000
     32      -1.9043      2.00000
     33      -1.7723      2.00000
     34      -1.7609      2.00000
     35      -1.6677      2.00000
     36      -1.6218      2.00000
     37       4.0780      0.00000
     38       4.0788      0.00000
     39       5.7147      0.00000
     40       5.7156      0.00000
     41       7.0742      0.00000
     42       7.4600      0.00000
     43       7.9631      0.00000
     44       8.3657      0.00000
     45       8.4544      0.00000
     46       8.5790      0.00000
     47       8.7585      0.00000
     48       8.8082      0.00000
     49       8.9389      0.00000
     50       8.9724      0.00000

 k-point     5 :      -0.4375    0.0625    0.0000
  band No.  band energies     occupation 
      1     -17.0093      2.00000
      2     -16.9964      2.00000
      3     -16.9580      2.00000
      4     -16.9018      2.00000
      5     -16.8345      2.00000
      6     -16.7629      2.00000
      7     -16.6949      2.00000
      8     -16.6376      2.00000
      9     -16.5983      2.00000
     10      -5.1480      2.00000
     11      -5.0461      2.00000
     12      -4.8816      2.00000
     13      -4.7518      2.00000
     14      -4.6993      2.00000
     15      -4.6368      2.00000
     16      -4.5543      2.00000
     17      -4.4511      2.00000
     18      -4.4246      2.00000
     19      -3.4616      2.00000
     20      -3.2184      2.00000
     21      -2.8822      2.00000
     22      -2.5521      2.00000
     23      -2.3436      2.00000
     24      -2.2993      2.00000
     25      -2.2685      2.00000
     26      -2.2463      2.00000
     27      -2.2275      2.00000
     28      -2.1702      2.00000
     29      -2.0771      2.00000
     30      -2.0099      2.00000
     31      -1.9128      2.00000
     32      -1.8525      2.00000
     33      -1.7327      2.00000
     34      -1.7010      2.00000
     35      -1.6357      2.00000
     36      -1.5578      2.00000
     37       3.3557      0.00000
     38       3.3565      0.00000
     39       6.4963      0.00000
     40       6.5022      0.00000
     41       7.0421      0.00000
     42       7.4297      0.00000
     43       7.8987      0.00000
     44       8.3319      0.00000
     45       8.5625      0.00000
     46       8.6340      0.00000
     47       8.7681      0.00000
     48       8.7982      0.00000
     49       9.0116      0.00000
     50       9.1126      0.00000

 k-point     6 :      -0.3125    0.0625    0.0000
  band No.  band energies     occupation 
      1     -17.4254      2.00000
      2     -17.3879      2.00000
      3     -17.3161      2.00000
      4     -17.2146      2.00000
      5     -17.0932      2.00000
      6     -16.9639      2.00000
      7     -16.8406      2.00000
      8     -16.7369      2.00000
      9     -16.6661      2.00000
     10      -4.5421      2.00000
     11      -4.4536      2.00000
     12      -4.4081      2.00000
     13      -4.3690      2.00000
     14      -4.2551      2.00000
     15      -4.0953      2.00000
     16      -3.9282      2.00000
     17      -3.8006      2.00000
     18      -3.6767      2.00000
     19      -3.5774      2.00000
[...]
     48       9.4843      0.00000
     49       9.8221      0.00000
     50      10.1280      0.00000

 k-point    17 :      -0.4375    0.3125    0.0000
  band No.  band energies     occupation 
      1     -17.1159      2.00000
      2     -16.9695      2.00000
      3     -16.8704      2.00000
      4     -16.8072      2.00000
      5     -16.7446      2.00000
      6     -16.6721      2.00000
      7     -16.5932      2.00000
      8     -16.5025      2.00000
      9     -16.4069      2.00000
     10      -4.8763      2.00000
     11      -4.6944      2.00000
     12      -4.5986      2.00000
     13      -4.5272      2.00000
     14      -4.4224      2.00000
     15      -4.3392      2.00000
     16      -4.2768      2.00000
     17      -4.1460      2.00000
     18      -4.0608      2.00000
     19      -3.5803      2.00000
     20      -3.2623      2.00000
     21      -2.9153      2.00000
     22      -2.5837      2.00000
     23      -2.5299      2.00000
     24      -2.3649      2.00000
     25      -2.3119      2.00000
     26      -2.2352      2.00000
     27      -2.1812      2.00000
     28      -2.1345      2.00000
     29      -2.0763      2.00000
     30      -1.9658      2.00000
     31      -1.9414      2.00000
     32      -1.8084      2.00000
     33      -1.7643      2.00000
     34      -1.6371      2.00000
     35      -1.5408      2.00000
     36      -1.3652      2.00000
     37       3.0089      0.00279
     38       3.0113      0.00224
     39       6.9579      0.00000
     40       7.0703      0.00000
     41       7.4241      0.00000
     42       7.7514      0.00000
     43       8.1203      0.00000
     44       8.4491      0.00000
     45       8.6642      0.00000
     46       8.8373      0.00000
     47       9.0692      0.00000
     48       9.2469      0.00000
     49       9.3967      0.00000
     50       9.4865      0.00000

 k-point    18 :      -0.3125    0.3125    0.0000
  band No.  band energies     occupation 
      1     -17.3598      2.00000
      2     -17.2052      2.00000
      3     -17.1026      2.00000
      4     -17.0234      2.00000
      5     -16.9209      2.00000
      6     -16.8123      2.00000
      7     -16.7009      2.00000
      8     -16.5894      2.00000
      9     -16.4679      2.00000
     10      -4.5786      2.00000
     11      -4.5195      2.00000
     12      -4.3856      2.00000
     13      -4.3262      2.00000
     14      -4.2279      2.00000
     15      -4.1432      2.00000
     16      -4.0111      2.00000
     17      -3.9234      2.00000
     18      -3.7733      2.00000
     19      -3.6396      2.00000
     20      -3.3915      2.00000
     21      -2.9959      2.00000
     22      -2.5881      2.00000
     23      -2.2110      2.00000
     24      -2.0913      2.00000
     25      -1.9373      2.00000
     26      -1.9176      2.00000
     27      -1.8340      2.00000
     28      -1.7585      2.00000
     29      -1.7279      2.00000
     30      -1.6624      2.00000
     31      -1.5609      2.00000
     32      -1.5501      2.00000
     33      -1.4553      2.00000
     34      -1.3471      2.00000
     35      -1.3147      2.00000
     36      -1.2302      2.00000
     37       2.1168      2.00000
     38       2.1171      2.00000
     39       6.5211      0.00000
     40       6.7653      0.00000
     41       7.0222      0.00000
     42       7.3109      0.00000
     43       7.5888      0.00000
     44       7.8815      0.00000
     45       8.2544      0.00000
     46       8.6462      0.00000
     47       8.8159      0.00000
     48       8.9451      0.00000
     49       9.1398      0.00000
     50       9.2644      0.00000

 k-point    19 :       0.4375    0.4375    0.0000
  band No.  band energies     occupation 
      1     -16.9340      2.00000
      2     -16.7940      2.00000
      3     -16.7144      2.00000
      4     -16.6494      2.00000
      5     -16.5976      2.00000
      6     -16.5675      2.00000
      7     -16.5277      2.00000
      8     -16.4689      2.00000
      9     -16.4076      2.00000
     10      -5.2273      2.00000
     11      -5.0397      2.00000
     12      -4.8866      2.00000
     13      -4.7599      2.00000
     14      -4.6734      2.00000
     15      -4.5767      2.00000
     16      -4.5039      2.00000
     17      -4.4023      2.00000
     18      -4.3437      2.00000
     19      -3.0341      2.00000
     20      -2.8886      2.00000
     21      -2.7665      2.00000
     22      -2.7153      2.00000
     23      -2.6566      2.00000
     24      -2.5607      2.00000
     25      -2.4952      2.00000
     26      -2.3665      2.00000
     27      -2.3302      2.00000
     28      -2.2247      2.00000
     29      -2.1713      2.00000
     30      -2.1134      2.00000
     31      -2.0260      2.00000
     32      -1.9617      2.00000
     33      -1.8435      2.00000
     34      -1.7498      2.00000
     35      -1.6067      2.00000
     36      -1.5068      2.00000
     37       4.2865      0.00000
     38       4.3174      0.00000
     39       5.5660      0.00000
     40       5.5883      0.00000
     41       7.5437      0.00000
     42       7.9048      0.00000
     43       8.3719      0.00000
     44       8.6592      0.00000
     45       8.8277      0.00000
     46       8.9445      0.00000
     47       9.0691      0.00000
     48       9.3015      0.00000
     49       9.3246      0.00000
     50       9.4009      0.00000

 k-point    20 :      -0.4375    0.4375    0.0000
  band No.  band energies     occupation 
      1     -17.0217      2.00000
      2     -16.8797      2.00000
      3     -16.7888      2.00000
      4     -16.7221      2.00000
      5     -16.6801      2.00000
      6     -16.6291      2.00000
      7     -16.5699      2.00000
      8     -16.4934      2.00000
      9     -16.4153      2.00000
     10      -5.2793      2.00000
     11      -5.0908      2.00000
     12      -4.9367      2.00000
     13      -4.8291      2.00000
     14      -4.7253      2.00000
     15      -4.6364      2.00000
     16      -4.5569      2.00000
     17      -4.4411      2.00000
     18      -4.3777      2.00000
     19      -3.2151      2.00000
     20      -2.9547      2.00000
     21      -2.6949      2.00000
     22      -2.4433      2.00000
     23      -2.3196      2.00000
     24      -2.2627      2.00000
     25      -2.1412      2.00000
     26      -2.1084      2.00000
     27      -2.1015      2.00000
     28      -2.0049      2.00000
     29      -1.9286      2.00000
     30      -1.8309      2.00000
     31      -1.7996      2.00000
     32      -1.7277      2.00000
     33      -1.6206      2.00000
     34      -1.5113      2.00000
     35      -1.5060      2.00000
     36      -1.3931      2.00000
     37       3.5477      0.00000
     38       3.5597      0.00000
     39       5.8959      0.00000
     40       5.9277      0.00000
     41       7.0217      0.00000
     42       7.4255      0.00000
     43       7.9120      0.00000
     44       8.3409      0.00000
     45       8.4002      0.00000
     46       8.5742      0.00000
     47       8.6713      0.00000
     48       8.7712      0.00000
     49       8.8730      0.00000
     50       8.9953      0.00000


--------------------------------------------------------------------------------------------------------


 soft charge-density along one line, spin component           1
         0         1         2         3         4         5         6         7         8         9
 total charge-density along one line
 
 pseudopotential strength for first ion, spin component:           1
  2.998   9.609  -0.002  -0.002  -0.002  -0.004  -0.004  -0.004
  9.609  30.607  -0.008  -0.008  -0.008  -0.013  -0.013  -0.013
 -0.002  -0.008   7.049  -0.001  -0.001  10.432  -0.001  -0.001
 -0.002  -0.008  -0.001   7.049  -0.001  -0.001  10.432  -0.001
 -0.002  -0.008  -0.001  -0.001   7.049  -0.001  -0.001  10.432
 -0.004  -0.013  10.432  -0.001  -0.001  14.569  -0.002  -0.002
 -0.004  -0.013  -0.001  10.432  -0.001  -0.002  14.569  -0.002
 -0.004  -0.013  -0.001  -0.001  10.432  -0.002  -0.002  14.569
 -0.000  -0.001  -0.001  -0.000  -0.001  -0.002  -0.000  -0.002
 -0.000  -0.001  -0.001  -0.001  -0.000  -0.002  -0.002  -0.000
 -0.000  -0.000   0.002  -0.004   0.002   0.003  -0.005   0.003
 -0.000  -0.001  -0.000  -0.001  -0.001  -0.000  -0.002  -0.002
 -0.000  -0.000   0.004  -0.000  -0.004   0.004  -0.000  -0.004
 total augmentation occupancy for first ion, spin component:           1
  1.166  -0.028  -0.007  -0.007  -0.007  -0.004  -0.004  -0.004  -0.014  -0.014   0.000  -0.014   0.000
 -0.028   0.001  -0.003  -0.003  -0.003   0.000   0.000   0.000   0.000   0.000  -0.000   0.000  -0.000
 -0.007  -0.003   0.086   0.003   0.003  -0.007   0.000   0.000   0.004   0.004  -0.010   0.002  -0.017
 -0.007  -0.003   0.003   0.086   0.003   0.000  -0.007   0.000   0.002   0.004   0.020   0.004  -0.000
 -0.007  -0.003   0.003   0.003   0.086   0.000   0.000  -0.007   0.004   0.002  -0.010   0.004   0.017
 -0.004   0.000  -0.007   0.000   0.000   0.001  -0.000  -0.000  -0.000  -0.000   0.001  -0.000   0.002
 -0.004   0.000   0.000  -0.007   0.000  -0.000   0.001  -0.000  -0.000  -0.000  -0.002  -0.000   0.000
 -0.004   0.000   0.000   0.000  -0.007  -0.000  -0.000   0.001  -0.000  -0.000   0.001  -0.000  -0.002
 -0.014   0.000   0.004   0.002   0.004  -0.000  -0.000  -0.000   0.007  -0.000   0.000  -0.000   0.000
 -0.014   0.000   0.004   0.004   0.002  -0.000  -0.000  -0.000  -0.000   0.007  -0.000  -0.000   0.000
  0.000  -0.000  -0.010   0.020  -0.010   0.001  -0.002   0.001   0.000  -0.000   0.023  -0.000  -0.000
 -0.014   0.000   0.002   0.004   0.004  -0.000  -0.000  -0.000  -0.000  -0.000  -0.000   0.007  -0.000
  0.000  -0.000  -0.017  -0.000   0.017   0.002   0.000  -0.002   0.000   0.000  -0.000  -0.000   0.023


------------------------ aborting loop because EDIFF is reached ----------------------------------------


    CHARGE:  cpu time    0.0792: real time    0.0794
    FORLOC:  cpu time    0.0021: real time    0.0021
    FORNL :  cpu time    0.5498: real time    0.5519
    STRESS:  cpu time    1.5244: real time    1.5292
    FORCOR:  cpu time    0.0115: real time    0.0116
    FORHAR:  cpu time    0.0041: real time    0.0041
    MIXING:  cpu time    0.0005: real time    0.0005
    OFIELD:  cpu time    0.0000: real time    0.0000

  FORCE on cell =-STRESS in cart. coord.  units (eV):
  Direction    XX          YY          ZZ          XY          YZ          ZX
  --------------------------------------------------------------------------------------
  Alpha Z   110.66732   110.66732   110.66732
  Ewald    8823.90361  8823.88529  8823.88496-19793.20091-19793.21024-19793.20086
  Hartree 10213.01417 10212.99563 10212.99574-19567.15080-19567.16003-19567.15081
  E(xc)    -331.03658  -331.03661  -331.03658     0.00989     0.00988     0.00990
  Local  -19996.16776-19996.13010-19996.13069 39359.40005 39359.41888 39359.40068
  n-local  -156.24778  -161.54848  -166.96698    -2.40272     1.85392    -0.28047
  augment    61.27391    61.27393    61.27391     0.00848     0.00845     0.00850
  Kinetic  1266.68631  1279.15479  1292.31211    15.74325   -13.25591     0.98918
  Fock        0.00000     0.00000     0.00000     0.00000     0.00000     0.00000
  -------------------------------------------------------------------------------------
  Total      -0.54842    -0.54842    -0.54842    -0.05056    -0.05056    -0.05056
  in kB      -3.03152    -3.03151    -3.03152    -0.27946    -0.27946    -0.27946
  external pressure =       -3.03 kB  Pullay stress =        0.00 kB


 VOLUME and BASIS-vectors are now :
 -----------------------------------------------------------------------------
  energy-cutoff  :      450.00
  volume of cell :      289.84
      direct lattice vectors                 reciprocal lattice vectors
     2.124436000 -2.124435000  0.000000000     0.313808828 -0.156904414 -0.156904414
     0.000000000  2.124436000 -2.124436000     0.156904340  0.156904414 -0.313808754
    21.406867000 21.406867000 21.406867000     0.015571322  0.015571330  0.015571330

  length of vectors
     3.004405496  3.004406204 37.077781275     0.384335753  0.384335662  0.026970330


 FORCES acting on ions
    electron-ion (+dipol)            ewald-force                    non-local-force                 convergence-correction
 -----------------------------------------------------------------------------------------------
   0.362E+03 0.362E+03 0.362E+03   -.361E+03 -.361E+03 -.361E+03   -.387E+00 -.387E+00 -.387E+00   0.591E-04 0.591E-04 0.591E-04
   0.291E+03 0.291E+03 0.291E+03   -.291E+03 -.291E+03 -.291E+03   -.121E-01 -.121E-01 -.121E-01   -.232E-02 -.232E-02 -.232E-02
   0.124E+03 0.124E+03 0.124E+03   -.125E+03 -.125E+03 -.125E+03   0.229E-01 0.229E-01 0.229E-01   0.101E-02 0.101E-02 0.101E-02
   0.415E+02 0.415E+02 0.415E+02   -.415E+02 -.415E+02 -.415E+02   0.120E-01 0.120E-01 0.120E-01   0.191E-02 0.191E-02 0.191E-02
   -.124E+03 -.124E+03 -.124E+03   0.124E+03 0.124E+03 0.124E+03   0.113E-01 0.113E-01 0.113E-01   0.254E-02 0.254E-02 0.254E-02
   -.207E+03 -.207E+03 -.207E+03   0.207E+03 0.207E+03 0.207E+03   0.123E-01 0.123E-01 0.123E-01   0.264E-02 0.264E-02 0.264E-02
   -.363E+03 -.363E+03 -.363E+03   0.363E+03 0.363E+03 0.363E+03   0.542E+00 0.542E+00 0.542E+00   0.793E-03 0.793E-03 0.793E-03
   0.208E+03 0.208E+03 0.208E+03   -.208E+03 -.208E+03 -.208E+03   0.215E-01 0.215E-01 0.215E-01   -.242E-02 -.242E-02 -.242E-02
   -.415E+02 -.415E+02 -.415E+02   0.415E+02 0.415E+02 0.415E+02   0.805E-02 0.805E-02 0.805E-02   0.249E-02 0.249E-02 0.249E-02
   -.291E+03 -.291E+03 -.291E+03   0.290E+03 0.290E+03 0.290E+03   0.150E-01 0.150E-01 0.150E-01   0.248E-02 0.248E-02 0.248E-02
   0.747E+03 0.747E+03 0.747E+03   -.747E+03 -.747E+03 -.747E+03   0.716E-01 0.716E-01 0.716E-01   -.628E-02 -.628E-02 -.628E-02
   -.370E-01 -.370E-01 -.370E-01   -.390E-01 -.390E-01 -.390E-01   0.993E-01 0.993E-01 0.993E-01   0.736E-02 0.736E-02 0.736E-02
   -.747E+03 -.747E+03 -.747E+03   0.747E+03 0.747E+03 0.747E+03   0.643E-01 0.643E-01 0.643E-01   0.796E-02 0.796E-02 0.796E-02
   0.993E+03 0.993E+03 0.993E+03   -.994E+03 -.994E+03 -.994E+03   0.100E+01 0.100E+01 0.100E+01   0.645E-02 0.645E-02 0.645E-02
   0.249E+03 0.249E+03 0.249E+03   -.249E+03 -.249E+03 -.249E+03   0.917E-01 0.917E-01 0.917E-01   0.238E-02 0.238E-02 0.238E-02
   -.498E+03 -.498E+03 -.498E+03   0.498E+03 0.498E+03 0.498E+03   0.873E-01 0.873E-01 0.873E-01   0.771E-02 0.771E-02 0.771E-02
   0.498E+03 0.498E+03 0.498E+03   -.498E+03 -.498E+03 -.498E+03   0.394E-01 0.394E-01 0.394E-01   0.941E-02 0.941E-02 0.941E-02
   -.249E+03 -.249E+03 -.249E+03   0.249E+03 0.249E+03 0.249E+03   0.963E-01 0.963E-01 0.963E-01   0.747E-02 0.747E-02 0.747E-02
   -.993E+03 -.993E+03 -.993E+03   0.994E+03 0.994E+03 0.994E+03   -.130E+01 -.130E+01 -.130E+01   0.656E-02 0.656E-02 0.656E-02
 -----------------------------------------------------------------------------------------------
   -.569E+00 -.569E+00 -.569E+00   0.341E-12 0.114E-12 -.227E-12   0.499E+00 0.499E+00 0.499E+00   0.582E-01 0.582E-01 0.582E-01
 
 
 POSITION                                       TOTAL-FORCE (eV/Angst)
 -----------------------------------------------------------------------------------
      0.54994      0.54994      0.54994         0.001862      0.001862      0.001862
      2.70214      2.70215      0.57771        -0.001698     -0.001698     -0.001698
      4.82571      4.82571      4.82571        -0.000709     -0.000709     -0.000709
      6.95067      6.95067      4.82623        -0.025843     -0.025843     -0.025843
      9.07510      9.07510      9.07510        -0.026274     -0.026274     -0.026274
     11.19952     11.19952      9.07509        -0.026971     -0.026971     -0.026971
     13.32396     13.32396     13.32396         0.276280      0.276280      0.276280
      4.82669      2.70226      2.70226        -0.003636     -0.003636     -0.003636
      9.07509      6.95065      6.95065        -0.029018     -0.029018     -0.029018
     13.32397     11.19953     11.19953        -0.089822     -0.089822     -0.089822
      2.70403      2.70403      2.70403        -0.004133     -0.004133     -0.004133
      6.95066      6.95066      6.95066         0.031271      0.031271      0.031271
     11.19954     11.19954     11.19954         0.028828      0.028828      0.028828
      2.70521      0.58077      0.58077         0.002386      0.002386      0.002386
      6.95065      4.82621      4.82622         0.027734      0.027734      0.027734
     11.19953      9.07509      9.07509         0.022712      0.022712      0.022712
      4.82790      4.82790      2.70346        -0.004559     -0.004559     -0.004559
      9.07508      9.07509      6.95065         0.028402      0.028402      0.028402
     13.32396     13.32396     11.19952        -0.206812     -0.206812     -0.206812
 -----------------------------------------------------------------------------------
    total drift:                               -0.011628     -0.011635     -0.011628


--------------------------------------------------------------------------------------------------------



  FREE ENERGIE OF THE ION-ELECTRON SYSTEM (eV)
  ---------------------------------------------------
  free  energy   TOTEN  =      -106.99778817 eV

  energy  without entropy=     -106.99423370  energy(sigma->0) =     -106.99601093
 
 d Force = 0.2175543E-04[ 0.162E-04, 0.273E-04]  d Energy = 0.2371475E-04-0.196E-05
 d Force = 0.2916771E+01[ 0.292E+01, 0.292E+01]  d Ewald  = 0.2916771E+01 0.495E-09


--------------------------------------------------------------------------------------------------------


    POTLOK:  cpu time    0.0130: real time    0.0130


--------------------------------------------------------------------------------------------------------


 stress matrix after NEB project (eV)
     -0.54842     -0.05056     -0.05056
     -0.05056     -0.54842     -0.05056
     -0.05056     -0.05056     -0.54842
  FORCES: max atom, RMS     0.007896    0.003170
  FORCE total and by dimension    0.013816    0.004559
  Stress total and by dimension    0.957924    0.548417
 Conjugate gradient step on ions:
 trial-energy change:   -0.000024  1 .order   -0.000022   -0.000027   -0.000016
  (g-gl).g = 0.315E-04      g.g   = 0.296E-04  gl.gl    = 0.535E-04
 g(Force)  = 0.296E-04   g(Stress)= 0.000E+00 ortho     = 0.678E-06
 gamma     =   0.58867
 trial     =   0.90861
 opt step  =   2.23768  (harmonic =   2.23768) maximal distance =0.00000000
 next E    =  -106.997798   (d E  =  -0.00003)


--------------------------------------------------------------------------------------------------------


  
 reached required accuracy - stopping structural energy minimisation
     LOOP+:  cpu time   17.1933: real time   17.2985
    4ORBIT:  cpu time    0.0000: real time    0.0000

 total amount of memory used by VASP MPI-rank0    42788. kBytes
=======================================================================

   base      :      30000. kBytes
   nonlr-proj:       2461. kBytes
   fftplans  :       2059. kBytes
   grid      :       2996. kBytes
   one-center:         40. kBytes
   wavefun   :       5232. kBytes
 
  
  
 General timing and accounting informations for this job:
 ========================================================
  
                  Total CPU time used (sec):      576.884
                            User time (sec):      575.453
                          System time (sec):        1.431
                         Elapsed time (sec):      579.333
  
                   Maximum memory used (kb):      119896.
                   Average memory used (kb):           0.
  
                          Minor page faults:        91176
                          Major page faults:            0
                 Voluntary context switches:          511
