   7   7   0   0
  0.2496935E+02  0.3004406E-09  0.3004406E-09  0.2235926E-08  0.5000000E-15
  1.000000000000000E-004
  CAR 
 Al110                                   
      8.47748716    -23.72043926  301     -4.96026116      1.00000000
    -23.720  0.0000E+00  0.0000E+00
    -23.613  0.0000E+00  0.0000E+00
    -23.506  0.0000E+00  0.0000E+00
    -23.398  0.0000E+00  0.0000E+00
    -23.291  0.0000E+00  0.0000E+00
    -23.184  0.0000E+00  0.0000E+00
    -23.076  0.0000E+00  0.0000E+00
    -22.969  0.0000E+00  0.0000E+00
    -22.862  0.0000E+00  0.0000E+00
    -22.755  0.0000E+00  0.0000E+00
    -22.647  0.0000E+00  0.0000E+00
    -22.540  0.7112E-18  0.7633E-19
    -22.433  0.3951E-09  0.4241E-10
    -22.325  0.3120E-04  0.3348E-05
    -22.218  0.1257E-02  0.1383E-03
    -22.111  0.1345E-02  0.2826E-03
    -22.003  0.2689E-02  0.5712E-03
    -21.896  0.1896E-02  0.7747E-03
    -21.789  0.1394E-02  0.9243E-03
    -21.681  0.4036E-02  0.1358E-02
    -21.574  0.4294E-02  0.1818E-02
    -21.467  0.5685E-02  0.2428E-02
    -21.359  0.8116E-02  0.3300E-02
    -21.252  0.1021E-01  0.4395E-02
    -21.145  0.1110E-01  0.5586E-02
    -21.037  0.8114E-02  0.6457E-02
    -20.930  0.1143E-01  0.7684E-02
    -20.823  0.2934E-02  0.7999E-02
    -20.715  0.2282E-03  0.8023E-02
    -20.608  0.2985E-02  0.8344E-02
    -20.501  0.7522E-02  0.9151E-02
    -20.393  0.9996E-02  0.1022E-01
    -20.286  0.1549E-01  0.1189E-01
    -20.179  0.2193E-01  0.1424E-01
    -20.071  0.1418E-01  0.1576E-01
    -19.964  0.2213E-02  0.1600E-01
    -19.857  0.2927E-05  0.1600E-01
    -19.749  0.1950E-11  0.1600E-01
    -19.642  0.0000E+00  0.1600E-01
    -19.535  0.0000E+00  0.1600E-01
    -19.427  0.0000E+00  0.1600E-01
    -19.320  0.0000E+00  0.1600E-01
    -19.213  0.0000E+00  0.1600E-01
    -19.105  0.0000E+00  0.1600E-01
    -18.998  0.0000E+00  0.1600E-01
    -18.891  0.0000E+00  0.1600E-01
    -18.783  0.0000E+00  0.1600E-01
    -18.676  0.0000E+00  0.1600E-01
    -18.569  0.0000E+00  0.1600E-01
    -18.461  0.0000E+00  0.1600E-01
    -18.354  0.0000E+00  0.1600E-01
    -18.247  0.0000E+00  0.1600E-01
    -18.139  0.0000E+00  0.1600E-01
    -18.032  0.0000E+00  0.1600E-01
    -17.925  0.0000E+00  0.1600E-01
    -17.817  0.0000E+00  0.1600E-01
    -17.710  0.0000E+00  0.1600E-01
    -17.603  0.0000E+00  0.1600E-01
    -17.496  0.0000E+00  0.1600E-01
    -17.388  0.0000E+00  0.1600E-01
    -17.281  0.0000E+00  0.1600E-01
    -17.174  0.0000E+00  0.1600E-01
    -17.066  0.0000E+00  0.1600E-01
    -16.959  0.0000E+00  0.1600E-01
    -16.852  0.0000E+00  0.1600E-01
    -16.744  0.0000E+00  0.1600E-01
    -16.637  0.0000E+00  0.1600E-01
    -16.530  0.0000E+00  0.1600E-01
    -16.422  0.0000E+00  0.1600E-01
    -16.315  0.0000E+00  0.1600E-01
    -16.208  0.0000E+00  0.1600E-01
    -16.100  0.0000E+00  0.1600E-01
    -15.993  0.0000E+00  0.1600E-01
    -15.886  0.0000E+00  0.1600E-01
    -15.778  0.0000E+00  0.1600E-01
    -15.671  0.0000E+00  0.1600E-01
    -15.564  0.0000E+00  0.1600E-01
    -15.456  0.0000E+00  0.1600E-01
    -15.349  0.0000E+00  0.1600E-01
    -15.242  0.0000E+00  0.1600E-01
    -15.134  0.0000E+00  0.1600E-01
    -15.027  0.0000E+00  0.1600E-01
    -14.920  0.0000E+00  0.1600E-01
    -14.812  0.0000E+00  0.1600E-01
    -14.705  0.0000E+00  0.1600E-01
    -14.598  0.0000E+00  0.1600E-01
    -14.490  0.0000E+00  0.1600E-01
    -14.383  0.0000E+00  0.1600E-01
    -14.276  0.0000E+00  0.1600E-01
    -14.168  0.0000E+00  0.1600E-01
    -14.061  0.0000E+00  0.1600E-01
    -13.954  0.0000E+00  0.1600E-01
    -13.846  0.0000E+00  0.1600E-01
    -13.739  0.0000E+00  0.1600E-01
    -13.632  0.0000E+00  0.1600E-01
    -13.524  0.0000E+00  0.1600E-01
    -13.417  0.0000E+00  0.1600E-01
    -13.310  0.0000E+00  0.1600E-01
    -13.202  0.0000E+00  0.1600E-01
    -13.095  0.0000E+00  0.1600E-01
    -12.988  0.0000E+00  0.1600E-01
    -12.880  0.0000E+00  0.1600E-01
    -12.773  0.0000E+00  0.1600E-01
    -12.666  0.0000E+00  0.1600E-01
    -12.558  0.0000E+00  0.1600E-01
    -12.451  0.0000E+00  0.1600E-01
    -12.344  0.0000E+00  0.1600E-01
    -12.237  0.0000E+00  0.1600E-01
    -12.129  0.0000E+00  0.1600E-01
    -12.022  0.0000E+00  0.1600E-01
    -11.915  0.0000E+00  0.1600E-01
    -11.807  0.0000E+00  0.1600E-01
    -11.700  0.0000E+00  0.1600E-01
    -11.593  0.0000E+00  0.1600E-01
    -11.485  0.0000E+00  0.1600E-01
    -11.378  0.0000E+00  0.1600E-01
    -11.271  0.0000E+00  0.1600E-01
    -11.163  0.0000E+00  0.1600E-01
    -11.056  0.0000E+00  0.1600E-01
    -10.949  0.0000E+00  0.1600E-01
    -10.841  0.0000E+00  0.1600E-01
    -10.734  0.0000E+00  0.1600E-01
    -10.627  0.0000E+00  0.1600E-01
    -10.519  0.0000E+00  0.1600E-01
    -10.412  0.0000E+00  0.1600E-01
    -10.305  0.0000E+00  0.1600E-01
    -10.197  0.0000E+00  0.1600E-01
    -10.090  0.0000E+00  0.1600E-01
     -9.983  0.0000E+00  0.1600E-01
     -9.875  0.0000E+00  0.1600E-01
     -9.768  0.0000E+00  0.1600E-01
     -9.661  0.6220E-16  0.1600E-01
     -9.553  0.8398E-08  0.1600E-01
     -9.446  0.1766E-03  0.1602E-01
     -9.339  0.3041E-02  0.1635E-01
     -9.231  0.1876E-02  0.1655E-01
     -9.124  0.2706E-02  0.1684E-01
     -9.017  0.2952E-02  0.1715E-01
     -8.909  0.7453E-02  0.1795E-01
     -8.802  0.9656E-02  0.1899E-01
     -8.695  0.7746E-02  0.1982E-01
     -8.587  0.1109E-01  0.2101E-01
     -8.480  0.1143E-01  0.2224E-01
     -8.373  0.2700E-02  0.2253E-01
     -8.265  0.3345E-02  0.2289E-01
     -8.158  0.1609E-02  0.2306E-01
     -8.051  0.1751E-02  0.2325E-01
     -7.943  0.1092E-02  0.2336E-01
     -7.836  0.1194E-01  0.2465E-01
     -7.729  0.1180E-01  0.2591E-01
     -7.621  0.7538E-02  0.2672E-01
     -7.514  0.6961E-02  0.2747E-01
     -7.407  0.9513E-02  0.2849E-01
     -7.299  0.7580E-02  0.2930E-01
     -7.192  0.4788E-02  0.2982E-01
     -7.085  0.7017E-02  0.3057E-01
     -6.978  0.7264E-02  0.3135E-01
     -6.870  0.7709E-02  0.3218E-01
     -6.763  0.8479E-02  0.3309E-01
     -6.656  0.4964E-02  0.3362E-01
     -6.548  0.9044E-02  0.3459E-01
     -6.441  0.1152E-01  0.3583E-01
     -6.334  0.1391E-01  0.3732E-01
     -6.226  0.1241E-01  0.3865E-01
     -6.119  0.1686E-01  0.4046E-01
     -6.012  0.2120E-01  0.4274E-01
     -5.904  0.1469E-01  0.4431E-01
     -5.797  0.1160E-01  0.4556E-01
     -5.690  0.8130E-02  0.4643E-01
     -5.582  0.1095E-01  0.4761E-01
     -5.475  0.7785E-02  0.4844E-01
     -5.368  0.9621E-02  0.4947E-01
     -5.260  0.1062E-01  0.5061E-01
     -5.153  0.2150E-01  0.5292E-01
     -5.046  0.3423E-01  0.5660E-01
     -4.938  0.3704E-01  0.6057E-01
     -4.831  0.1631E-01  0.6232E-01
     -4.724  0.8891E-02  0.6328E-01
     -4.616  0.4905E-02  0.6380E-01
     -4.509  0.1807E-02  0.6400E-01
     -4.402  0.4072E-04  0.6400E-01
     -4.294  0.6636E-09  0.6400E-01
     -4.187  0.1552E-17  0.6400E-01
     -4.080  0.0000E+00  0.6400E-01
     -3.972  0.0000E+00  0.6400E-01
     -3.865  0.0000E+00  0.6400E-01
     -3.758  0.0000E+00  0.6400E-01
     -3.650  0.0000E+00  0.6400E-01
     -3.543  0.0000E+00  0.6400E-01
     -3.436  0.0000E+00  0.6400E-01
     -3.328  0.0000E+00  0.6400E-01
     -3.221  0.0000E+00  0.6400E-01
     -3.114  0.0000E+00  0.6400E-01
     -3.006  0.0000E+00  0.6400E-01
     -2.899  0.0000E+00  0.6400E-01
     -2.792  0.0000E+00  0.6400E-01
     -2.684  0.0000E+00  0.6400E-01
     -2.577  0.0000E+00  0.6400E-01
     -2.470  0.0000E+00  0.6400E-01
     -2.362  0.0000E+00  0.6400E-01
     -2.255  0.0000E+00  0.6400E-01
     -2.148  0.0000E+00  0.6400E-01
     -2.041  0.0000E+00  0.6400E-01
     -1.933  0.0000E+00  0.6400E-01
     -1.826  0.0000E+00  0.6400E-01
     -1.719  0.0000E+00  0.6400E-01
     -1.611  0.0000E+00  0.6400E-01
     -1.504  0.0000E+00  0.6400E-01
     -1.397  0.0000E+00  0.6400E-01
     -1.289  0.0000E+00  0.6400E-01
     -1.182  0.0000E+00  0.6400E-01
     -1.075  0.0000E+00  0.6400E-01
     -0.967  0.0000E+00  0.6400E-01
     -0.860  0.0000E+00  0.6400E-01
     -0.753  0.0000E+00  0.6400E-01
     -0.645  0.0000E+00  0.6400E-01
     -0.538  0.0000E+00  0.6400E-01
     -0.431  0.0000E+00  0.6400E-01
     -0.323  0.0000E+00  0.6400E-01
     -0.216  0.0000E+00  0.6400E-01
     -0.109  0.0000E+00  0.6400E-01
     -0.001  0.0000E+00  0.6400E-01
      0.106  0.0000E+00  0.6400E-01
      0.213  0.0000E+00  0.6400E-01
      0.321  0.6918E-17  0.6400E-01
      0.428  0.1660E-08  0.6400E-01
      0.535  0.5814E-04  0.6401E-01
      0.643  0.1011E-02  0.6411E-01
      0.750  0.9581E-04  0.6412E-01
      0.857  0.1381E-04  0.6413E-01
      0.965  0.8952E-03  0.6422E-01
      1.072  0.2556E-03  0.6425E-01
      1.179  0.8110E-07  0.6425E-01
      1.287  0.2247E-12  0.6425E-01
      1.394  0.9961E-06  0.6425E-01
      1.501  0.8903E-03  0.6435E-01
      1.609  0.1431E-02  0.6450E-01
      1.716  0.2523E-03  0.6453E-01
      1.823  0.9046E-03  0.6462E-01
      1.931  0.1496E-04  0.6462E-01
      2.038  0.7597E-07  0.6463E-01
      2.145  0.4511E-03  0.6467E-01
      2.253  0.2906E-02  0.6499E-01
      2.360  0.1368E-03  0.6500E-01
      2.467  0.2448E-03  0.6503E-01
      2.575  0.9048E-03  0.6512E-01
      2.682  0.5160E-04  0.6513E-01
      2.789  0.2352E-02  0.6538E-01
      2.897  0.2254E-02  0.6562E-01
      3.004  0.2182E-02  0.6586E-01
      3.111  0.1334E-02  0.6600E-01
      3.218  0.8125E-03  0.6609E-01
      3.326  0.1943E-02  0.6630E-01
      3.433  0.1718E-02  0.6648E-01
      3.540  0.1657E-02  0.6666E-01
      3.648  0.4864E-02  0.6718E-01
      3.755  0.3906E-02  0.6760E-01
      3.862  0.2656E-02  0.6788E-01
      3.970  0.2018E-02  0.6810E-01
      4.077  0.4611E-02  0.6860E-01
      4.184  0.3629E-02  0.6899E-01
      4.292  0.2847E-02  0.6929E-01
      4.399  0.2916E-02  0.6960E-01
      4.506  0.4789E-02  0.7012E-01
      4.614  0.5712E-02  0.7073E-01
      4.721  0.3506E-02  0.7111E-01
      4.828  0.4767E-02  0.7162E-01
      4.936  0.2237E-02  0.7186E-01
      5.043  0.6763E-02  0.7258E-01
      5.150  0.1295E-02  0.7272E-01
      5.258  0.3229E-02  0.7307E-01
      5.365  0.5213E-02  0.7363E-01
      5.472  0.1055E-01  0.7476E-01
      5.580  0.9887E-02  0.7582E-01
      5.687  0.3923E-02  0.7624E-01
      5.794  0.1290E-02  0.7638E-01
      5.902  0.4300E-02  0.7684E-01
      6.009  0.6671E-02  0.7756E-01
      6.116  0.1310E-02  0.7770E-01
      6.224  0.3640E-02  0.7809E-01
      6.331  0.8080E-02  0.7896E-01
      6.438  0.3054E-02  0.7929E-01
      6.546  0.2660E-02  0.7957E-01
      6.653  0.7916E-03  0.7966E-01
      6.760  0.1965E-02  0.7987E-01
      6.868  0.6709E-04  0.7988E-01
      6.975  0.1570E-03  0.7989E-01
      7.082  0.9766E-03  0.8000E-01
      7.190  0.3109E-04  0.8000E-01
      7.297  0.3951E-09  0.8000E-01
      7.404  0.7758E-18  0.8000E-01
      7.512  0.0000E+00  0.8000E-01
      7.619  0.0000E+00  0.8000E-01
      7.726  0.0000E+00  0.8000E-01
      7.834  0.0000E+00  0.8000E-01
      7.941  0.0000E+00  0.8000E-01
      8.048  0.0000E+00  0.8000E-01
      8.156  0.0000E+00  0.8000E-01
      8.263  0.0000E+00  0.8000E-01
      8.370  0.0000E+00  0.8000E-01
      8.477  0.0000E+00  0.8000E-01
