       N       E                     dE             d eps       ncg     rms          rms(c)
DAV:   1     0.218405998241E+03    0.21841E+03   -0.12655E+04   810   0.109E+03
DAV:   2    -0.160483412655E+02   -0.23445E+03   -0.23265E+03  1110   0.268E+02
DAV:   3    -0.400296001074E+02   -0.23981E+02   -0.23389E+02   900   0.100E+02
DAV:   4    -0.403940184027E+02   -0.36442E+00   -0.36274E+00  1200   0.141E+01
DAV:   5    -0.403984308103E+02   -0.44124E-02   -0.44121E-02   940   0.135E+00
DAV:   6    -0.403985293449E+02   -0.98535E-04   -0.98519E-04  1190   0.196E-01
DAV:   7    -0.403985321511E+02   -0.28062E-05   -0.28067E-05  1070   0.292E-02
DAV:   8    -0.403985322287E+02   -0.77624E-07   -0.76861E-07   920   0.501E-03    0.116E+01
RMM:   9    -0.367275917626E+02    0.36709E+01   -0.15605E+01   800   0.221E+01    0.510E+00
RMM:  10    -0.367677881237E+02   -0.40196E-01   -0.12203E+00   800   0.603E+00    0.374E+00
RMM:  11    -0.365791059196E+02    0.18868E+00   -0.13994E-01   800   0.233E+00    0.243E+00
RMM:  12    -0.375996633167E+02   -0.10206E+01   -0.50277E-01   800   0.380E+00    0.977E+00
RMM:  13    -0.367369683549E+02    0.86269E+00   -0.14149E-01   800   0.218E+00    0.534E+00
RMM:  14    -0.365704259622E+02    0.16654E+00   -0.47056E-02   800   0.125E+00    0.411E+00
RMM:  15    -0.365894900188E+02   -0.19064E-01   -0.56514E-02   800   0.122E+00    0.470E+00
RMM:  16    -0.366040509707E+02   -0.14561E-01   -0.44181E-03   802   0.468E-01    0.509E+00
RMM:  17    -0.365697136101E+02    0.34337E-01   -0.47514E-03   800   0.381E-01    0.397E+00
RMM:  18    -0.365396849751E+02    0.30029E-01   -0.10394E-02   800   0.599E-01    0.103E+00
RMM:  19    -0.365502438847E+02   -0.10559E-01   -0.24926E-03   800   0.476E-01    0.107E+00
RMM:  20    -0.365449015397E+02    0.53423E-02   -0.19504E-03   800   0.252E-01    0.758E-01
RMM:  21    -0.365437557575E+02    0.11458E-02   -0.44013E-04   784   0.114E-01    0.553E-01
RMM:  22    -0.365435805742E+02    0.17518E-03   -0.79905E-04   800   0.165E-01    0.368E-01
RMM:  23    -0.365439907710E+02   -0.41020E-03   -0.12886E-04   749   0.928E-02    0.302E-01
RMM:  24    -0.365437001869E+02    0.29058E-03   -0.15575E-04   752   0.731E-02    0.166E-01
RMM:  25    -0.365437740332E+02   -0.73846E-04   -0.65968E-05   672   0.530E-02    0.161E-01
RMM:  26    -0.365437834007E+02   -0.93675E-05   -0.22494E-05   529   0.354E-02
   1 F= -.36543783E+02 E0= -.36535353E+02  d E =-.365438E+02
       N       E                     dE             d eps       ncg     rms          rms(c)
DAV:   1    -0.367654178277E+02   -0.22164E+00   -0.15053E+01   800   0.273E+01
DAV:   2    -0.367890553727E+02   -0.23638E-01   -0.23637E-01  1140   0.316E+00
DAV:   3    -0.367891199621E+02   -0.64589E-04   -0.64589E-04  1040   0.159E-01
DAV:   4    -0.367891207803E+02   -0.81817E-06   -0.81745E-06  1030   0.171E-02
DAV:   5    -0.367891208364E+02   -0.56113E-07   -0.56151E-07   770   0.417E-03
DAV:   6    -0.367891208496E+02   -0.13168E-07   -0.13710E-07   850   0.191E-03
DAV:   7    -0.367891208532E+02   -0.36778E-08   -0.40513E-08   600   0.993E-04
DAV:   8    -0.367891208548E+02   -0.15923E-08   -0.12569E-08   610   0.533E-04    0.674E+00
RMM:   9    -0.484950736864E+02   -0.11706E+02   -0.67548E+00   800   0.119E+01    0.161E+01
RMM:  10    -0.397262458883E+02    0.87688E+01   -0.29294E+00   800   0.867E+00    0.102E+01
RMM:  11    -0.378350661261E+02    0.18912E+01   -0.31536E-01   800   0.246E+00    0.897E+00
RMM:  12    -0.369965627060E+02    0.83850E+00   -0.72598E-02   800   0.131E+00    0.896E+00
RMM:  13    -0.389500850469E+02   -0.19535E+01   -0.29095E-01   800   0.213E+00    0.893E+00
RMM:  14    -0.387223788779E+02    0.22771E+00   -0.34901E-02   801   0.112E+00    0.881E+00
RMM:  15    -0.376679358955E+02    0.10544E+01   -0.73128E-02   800   0.117E+00    0.829E+00
RMM:  16    -0.371761571845E+02    0.49178E+00   -0.23661E-02   800   0.791E-01    0.803E+00
RMM:  17    -0.366874415522E+02    0.48872E+00   -0.26463E-02   800   0.657E-01    0.271E+00
RMM:  18    -0.366764096583E+02    0.11032E-01   -0.26035E-03   799   0.496E-01    0.263E+00
RMM:  19    -0.366542718735E+02    0.22138E-01   -0.26064E-03   800   0.287E-01    0.188E+00
RMM:  20    -0.370357045672E+02   -0.38143E+00   -0.14773E-02   800   0.597E-01    0.835E+00
RMM:  21    -0.367007089005E+02    0.33500E+00   -0.64435E-03   800   0.716E-01    0.380E+00
RMM:  22    -0.366745669212E+02    0.26142E-01   -0.18810E-03   800   0.394E-01    0.315E+00
RMM:  23    -0.366390238457E+02    0.35543E-01   -0.27794E-03   800   0.297E-01    0.781E-01
RMM:  24    -0.366390606446E+02   -0.36799E-04   -0.14382E-03   800   0.247E-01    0.620E-01
RMM:  25    -0.366483690959E+02   -0.93085E-02   -0.33520E-04   767   0.117E-01    0.180E+00
RMM:  26    -0.366536307466E+02   -0.52617E-02   -0.12822E-04   716   0.837E-02    0.217E+00
RMM:  27    -0.366400437202E+02    0.13587E-01   -0.46613E-04   800   0.117E-01    0.445E-01
RMM:  28    -0.366447808078E+02   -0.47371E-02   -0.47398E-04   790   0.131E-01    0.135E+00
RMM:  29    -0.366399411149E+02    0.48397E-02   -0.11370E-04   760   0.110E-01    0.520E-01
RMM:  30    -0.366395149479E+02    0.42617E-03   -0.88800E-05   707   0.652E-02    0.233E-01
RMM:  31    -0.366395491560E+02   -0.34208E-04   -0.18615E-05   514   0.288E-02    0.184E-01
RMM:  32    -0.366396364791E+02   -0.87323E-04   -0.16658E-05   505   0.254E-02    0.200E-01
RMM:  33    -0.366395498599E+02    0.86619E-04   -0.51449E-06   471   0.138E-02    0.275E-02
RMM:  34    -0.366396340698E+02   -0.84210E-04   -0.42297E-06   455   0.148E-02    0.149E-01
RMM:  35    -0.366396228688E+02    0.11201E-04   -0.17171E-06   437   0.119E-02    0.140E-01
RMM:  36    -0.366395784800E+02    0.44389E-04   -0.12949E-06   413   0.735E-03    0.105E-02
RMM:  37    -0.366395929811E+02   -0.14501E-04   -0.72224E-07   356   0.834E-03    0.777E-03
RMM:  38    -0.366396002959E+02   -0.73148E-05   -0.19526E-07   189   0.382E-03
   2 F= -.36639600E+02 E0= -.36630432E+02  d E =-.958169E-01
       N       E                     dE             d eps       ncg     rms          rms(c)
DAV:   1    -0.369814194111E+02   -0.34183E+00   -0.46542E+01   800   0.471E+01
DAV:   2    -0.370568819833E+02   -0.75463E-01   -0.75459E-01  1140   0.570E+00
DAV:   3    -0.370571142589E+02   -0.23228E-03   -0.23227E-03  1100   0.304E-01
DAV:   4    -0.370571176187E+02   -0.33598E-05   -0.33605E-05  1130   0.334E-02
DAV:   5    -0.370571176947E+02   -0.76015E-07   -0.75421E-07   850   0.479E-03
DAV:   6    -0.370571177075E+02   -0.12833E-07   -0.13393E-07   860   0.174E-03
DAV:   7    -0.370571177120E+02   -0.44774E-08   -0.43288E-08   720   0.911E-04
DAV:   8    -0.370571177131E+02   -0.10746E-08   -0.14865E-08   610   0.505E-04    0.735E+00
RMM:   9    -0.497034481130E+02   -0.12646E+02   -0.80362E+00   803   0.130E+01    0.173E+01
RMM:  10    -0.398529295792E+02    0.98505E+01   -0.33327E+00   800   0.948E+00    0.106E+01
RMM:  11    -0.393983681823E+02    0.45456E+00   -0.76983E-02   809   0.137E+00    0.101E+01
RMM:  12    -0.374570515908E+02    0.19413E+01   -0.19028E-01   800   0.191E+00    0.981E+00
RMM:  13    -0.367745796940E+02    0.68247E+00   -0.30349E-02   813   0.704E-01    0.560E+00
RMM:  14    -0.368590079222E+02   -0.84428E-01   -0.10057E-02   800   0.652E-01    0.751E+00
RMM:  15    -0.367636320991E+02    0.95376E-01   -0.18946E-02   800   0.613E-01    0.410E+00
RMM:  16    -0.368275015369E+02   -0.63869E-01   -0.40087E-02   800   0.134E+00    0.573E+00
RMM:  17    -0.367635165143E+02    0.63985E-01   -0.29635E-03   800   0.361E-01    0.404E+00
RMM:  18    -0.367154723441E+02    0.48044E-01   -0.29242E-03   800   0.304E-01    0.240E+00
RMM:  19    -0.367255428010E+02   -0.10070E-01   -0.11910E-03   801   0.227E-01    0.294E+00
RMM:  20    -0.367219598559E+02    0.35829E-02   -0.24391E-03   800   0.219E-01    0.278E+00
RMM:  21    -0.367333092329E+02   -0.11349E-01   -0.21203E-03   800   0.404E-01    0.298E+00
RMM:  22    -0.367084758782E+02    0.24833E-01   -0.12492E-03   800   0.213E-01    0.178E+00
RMM:  23    -0.367113589879E+02   -0.28831E-02   -0.43086E-04   782   0.139E-01    0.204E+00
RMM:  24    -0.366996043492E+02    0.11755E-01   -0.53989E-04   800   0.108E-01    0.735E-01
RMM:  25    -0.367028415285E+02   -0.32372E-02   -0.38862E-04   800   0.181E-01    0.117E+00
RMM:  26    -0.366989151361E+02    0.39264E-02   -0.19753E-04   764   0.124E-01    0.344E-01
RMM:  27    -0.366989163971E+02   -0.12610E-05   -0.69631E-05   719   0.863E-02
   3 F= -.36698916E+02 E0= -.36689377E+02  d E =-.155133E+00
       N       E                     dE             d eps       ncg     rms          rms(c)
DAV:   1    -0.367075896509E+02   -0.86745E-02   -0.11413E+00   800   0.735E+00
DAV:   2    -0.367091857593E+02   -0.15961E-02   -0.15961E-02  1130   0.839E-01
DAV:   3    -0.367091900268E+02   -0.42675E-05   -0.42671E-05  1080   0.427E-02
DAV:   4    -0.367091900764E+02   -0.49508E-07   -0.49914E-07   910   0.452E-03
DAV:   5    -0.367091900829E+02   -0.65606E-08   -0.70128E-08   810   0.148E-03
DAV:   6    -0.367091900852E+02   -0.22731E-08   -0.19499E-08   640   0.729E-04
DAV:   7    -0.367091900858E+02   -0.62118E-09   -0.59680E-09   550   0.383E-04
DAV:   8    -0.367091900865E+02   -0.73146E-09   -0.19132E-09   490   0.204E-04    0.160E+00
RMM:   9    -0.387076179523E+02   -0.19984E+01   -0.45105E-01   800   0.329E+00    0.928E+00
RMM:  10    -0.368049284248E+02    0.19027E+01   -0.23649E-01   800   0.245E+00    0.529E+00
RMM:  11    -0.366944133232E+02    0.11052E+00   -0.28633E-02   800   0.818E-01    0.835E-01
RMM:  12    -0.367147860452E+02   -0.20373E-01   -0.35240E-03   805   0.388E-01    0.223E+00
RMM:  13    -0.367031162812E+02    0.11670E-01   -0.40366E-04   783   0.166E-01    0.137E+00
RMM:  14    -0.367205250990E+02   -0.17409E-01   -0.32438E-04   800   0.102E-01    0.268E+00
RMM:  15    -0.366967310131E+02    0.23794E-01   -0.63558E-04   795   0.132E-01    0.212E-01
RMM:  16    -0.366988923119E+02   -0.21613E-02   -0.10217E-04   734   0.106E-01    0.180E-01
RMM:  17    -0.366991434970E+02   -0.25119E-03   -0.74439E-05   714   0.674E-02    0.258E-01
RMM:  18    -0.366989215895E+02    0.22191E-03   -0.22545E-05   540   0.390E-02    0.106E-01
RMM:  19    -0.366989577144E+02   -0.36125E-04   -0.10862E-05   482   0.222E-02    0.531E-02
RMM:  20    -0.366989891459E+02   -0.31432E-04   -0.32919E-06   465   0.169E-02    0.457E-02
RMM:  21    -0.366989983517E+02   -0.92058E-05   -0.29391E-06   477   0.120E-02
   4 F= -.36698998E+02 E0= -.36689473E+02  d E =-.155215E+00
       N       E                     dE             d eps       ncg     rms          rms(c)
DAV:   1    -0.366999516191E+02   -0.96247E-03   -0.89444E-02   930   0.205E+00
DAV:   2    -0.367000711157E+02   -0.11950E-03   -0.11950E-03  1130   0.230E-01
DAV:   3    -0.367000713844E+02   -0.26873E-06   -0.26908E-06   880   0.115E-02
DAV:   4    -0.367000714191E+02   -0.34628E-07   -0.34533E-07   870   0.375E-03
DAV:   5    -0.367000714268E+02   -0.77473E-08   -0.76670E-08   700   0.165E-03
DAV:   6    -0.367000714285E+02   -0.16553E-08   -0.19598E-08   510   0.799E-04
DAV:   7    -0.367000714289E+02   -0.45770E-09   -0.54173E-09   430   0.397E-04
DAV:   8    -0.367000714292E+02   -0.29627E-09   -0.15814E-09   400   0.206E-04    0.427E-01
RMM:   9    -0.371006303060E+02   -0.40056E+00   -0.31545E-02   800   0.831E-01    0.889E+00
RMM:  10    -0.366809368353E+02    0.41969E+00   -0.21712E-02   800   0.943E-01    0.801E-01
RMM:  11    -0.366978405444E+02   -0.16904E-01   -0.24671E-03   800   0.497E-01    0.201E-01
RMM:  12    -0.366993184085E+02   -0.14779E-02   -0.14252E-04   762   0.129E-01    0.332E-02
RMM:  13    -0.366993477375E+02   -0.29329E-04   -0.11239E-05   483   0.280E-02    0.331E-02
RMM:  14    -0.366993598184E+02   -0.12081E-04   -0.32007E-06   476   0.150E-02    0.718E-03
RMM:  15    -0.366993603082E+02   -0.48981E-06   -0.63553E-06   467   0.146E-02
   5 F= -.36699360E+02 E0= -.36689815E+02  d E =-.155577E+00
       N       E                     dE             d eps       ncg     rms          rms(c)
DAV:   1    -0.367000937689E+02   -0.73395E-03   -0.10335E-01   830   0.222E+00
DAV:   2    -0.367002351206E+02   -0.14135E-03   -0.14135E-03  1120   0.250E-01
DAV:   3    -0.367002354665E+02   -0.34593E-06   -0.34560E-06   870   0.126E-02
DAV:   4    -0.367002355056E+02   -0.39077E-07   -0.39318E-07   850   0.394E-03
DAV:   5    -0.367002355145E+02   -0.89701E-08   -0.87752E-08   590   0.174E-03
DAV:   6    -0.367002355164E+02   -0.18479E-08   -0.22472E-08   520   0.841E-04
DAV:   7    -0.367002355172E+02   -0.84856E-09   -0.62227E-09   430   0.417E-04
DAV:   8    -0.367002355176E+02   -0.38585E-09   -0.18225E-09   400   0.217E-04    0.444E-01
RMM:   9    -0.371226359997E+02   -0.42240E+00   -0.33997E-02   800   0.862E-01    0.893E+00
RMM:  10    -0.366810882419E+02    0.44155E+00   -0.23024E-02   800   0.960E-01    0.859E-01
RMM:  11    -0.366978014930E+02   -0.16713E-01   -0.25928E-03   800   0.498E-01    0.213E-01
RMM:  12    -0.366993935565E+02   -0.15921E-02   -0.16246E-04   767   0.134E-01    0.479E-02
RMM:  13    -0.366994114993E+02   -0.17943E-04   -0.15672E-05   489   0.298E-02    0.374E-02
RMM:  14    -0.366994256321E+02   -0.14133E-04   -0.41216E-06   479   0.172E-02    0.710E-03
RMM:  15    -0.366994255514E+02    0.80689E-07   -0.82766E-06   468   0.161E-02
   6 F= -.36699426E+02 E0= -.36689870E+02  d E =-.155642E+00
       N       E                     dE             d eps       ncg     rms          rms(c)
DAV:   1    -0.367069862123E+02   -0.75606E-02   -0.40347E+00   800   0.142E+01
DAV:   2    -0.367123350180E+02   -0.53488E-02   -0.53486E-02  1140   0.151E+00
DAV:   3    -0.367123477578E+02   -0.12740E-04   -0.12739E-04  1100   0.705E-02
DAV:   4    -0.367123478983E+02   -0.14056E-06   -0.14049E-06   940   0.752E-03
DAV:   5    -0.367123479175E+02   -0.19167E-07   -0.19119E-07   730   0.240E-03
DAV:   6    -0.367123479224E+02   -0.49222E-08   -0.52076E-08   760   0.117E-03
DAV:   7    -0.367123479240E+02   -0.16089E-08   -0.15693E-08   570   0.603E-04
DAV:   8    -0.367123479245E+02   -0.46589E-09   -0.49887E-09   550   0.317E-04    0.680E-01
RMM:   9    -0.372982202079E+02   -0.58587E+00   -0.59570E-02   800   0.114E+00    0.915E+00
RMM:  10    -0.366945502817E+02    0.60367E+00   -0.33805E-02   800   0.106E+00    0.123E+00
RMM:  11    -0.367068950616E+02   -0.12345E-01   -0.67690E-03   800   0.577E-01    0.418E-01
RMM:  12    -0.367085148210E+02   -0.16198E-02   -0.51030E-04   800   0.175E-01    0.219E-01
RMM:  13    -0.367083079533E+02    0.20687E-03   -0.15433E-04   740   0.689E-02    0.192E-01
RMM:  14    -0.367083759855E+02   -0.68032E-04   -0.10115E-04   716   0.631E-02    0.169E-01
RMM:  15    -0.367082662274E+02    0.10976E-03   -0.19815E-05   511   0.322E-02    0.329E-02
RMM:  16    -0.367082908392E+02   -0.24612E-04   -0.57047E-06   480   0.165E-02    0.209E-02
RMM:  17    -0.367083084144E+02   -0.17575E-04   -0.25871E-06   437   0.963E-03    0.225E-02
RMM:  18    -0.367083148418E+02   -0.64273E-05   -0.88271E-07   366   0.688E-03
   7 F= -.36708315E+02 E0= -.36698737E+02  d E =-.888929E-02
       N       E                     dE             d eps       ncg     rms          rms(c)
DAV:   1    -0.367080177582E+02    0.29066E-03   -0.14868E+01   800   0.273E+01
DAV:   2    -0.367268907488E+02   -0.18873E-01   -0.18869E-01  1140   0.285E+00
DAV:   3    -0.367269402001E+02   -0.49451E-04   -0.49451E-04  1060   0.139E-01
DAV:   4    -0.367269407749E+02   -0.57477E-06   -0.57483E-06  1000   0.149E-02
DAV:   5    -0.367269408243E+02   -0.49476E-07   -0.49287E-07   770   0.408E-03
DAV:   6    -0.367269408362E+02   -0.11866E-07   -0.11982E-07   730   0.191E-03
DAV:   7    -0.367269408392E+02   -0.30223E-08   -0.33801E-08   630   0.969E-04
DAV:   8    -0.367269408405E+02   -0.12510E-08   -0.10054E-08   640   0.508E-04    0.128E+00
RMM:   9    -0.380481684860E+02   -0.13212E+01   -0.20911E-01   800   0.211E+00    0.981E+00
RMM:  10    -0.367157101933E+02    0.13325E+01   -0.11758E-01   800   0.175E+00    0.256E+00
RMM:  11    -0.368579380787E+02   -0.14223E+00   -0.19437E-02   800   0.680E-01    0.667E+00
RMM:  12    -0.367718712613E+02    0.86067E-01   -0.67160E-03   800   0.559E-01    0.482E+00
RMM:  13    -0.367068766116E+02    0.64995E-01   -0.45179E-03   800   0.355E-01    0.361E-01
RMM:  14    -0.367179057942E+02   -0.11029E-01   -0.14141E-03   800   0.299E-01    0.132E+00
RMM:  15    -0.367126903395E+02    0.52155E-02   -0.35020E-04   780   0.137E-01    0.465E-01
RMM:  16    -0.367125181695E+02    0.17217E-03   -0.21603E-04   777   0.123E-01    0.326E-01
RMM:  17    -0.367126310789E+02   -0.11291E-03   -0.52800E-05   713   0.542E-02    0.336E-01
RMM:  18    -0.367123294320E+02    0.30165E-03   -0.42436E-05   632   0.440E-02    0.134E-01
RMM:  19    -0.367122856276E+02    0.43804E-04   -0.11314E-05   487   0.308E-02    0.110E-01
RMM:  20    -0.367123112871E+02   -0.25659E-04   -0.18027E-05   500   0.289E-02    0.577E-02
RMM:  21    -0.367123729599E+02   -0.61673E-04   -0.10833E-05   481   0.237E-02    0.308E-02
RMM:  22    -0.367123900293E+02   -0.17069E-04   -0.20398E-06   437   0.133E-02    0.248E-03
RMM:  23    -0.367124022139E+02   -0.12185E-04   -0.10902E-06   383   0.662E-03    0.915E-03
RMM:  24    -0.367124116703E+02   -0.94564E-05   -0.66282E-07   276   0.493E-03
   8 F= -.36712412E+02 E0= -.36702779E+02  d E =-.129861E-01
       N       E                     dE             d eps       ncg     rms          rms(c)
DAV:   1    -0.367125943018E+02   -0.19209E-03   -0.98576E-01   800   0.702E+00
DAV:   2    -0.367139629084E+02   -0.13686E-02   -0.13686E-02  1180   0.747E-01
DAV:   3    -0.367139659019E+02   -0.29935E-05   -0.29930E-05   980   0.355E-02
DAV:   4    -0.367139659343E+02   -0.32339E-07   -0.32916E-07   960   0.370E-03
DAV:   5    -0.367139659388E+02   -0.44975E-08   -0.45106E-08   620   0.118E-03
DAV:   6    -0.367139659404E+02   -0.16610E-08   -0.12350E-08   480   0.579E-04
DAV:   7    -0.367139659409E+02   -0.50659E-09   -0.37339E-09   440   0.299E-04
DAV:   8    -0.367139659412E+02   -0.22465E-09   -0.11855E-09   400   0.157E-04    0.285E-01
RMM:   9    -0.368056982794E+02   -0.91732E-01   -0.86765E-03   800   0.440E-01    0.557E+00
RMM:  10    -0.367065016419E+02    0.99197E-01   -0.42272E-03   800   0.407E-01    0.348E-01
RMM:  11    -0.367128219493E+02   -0.63203E-02   -0.23370E-03   800   0.320E-01    0.203E-01
RMM:  12    -0.367130206559E+02   -0.19871E-03   -0.11972E-04   749   0.803E-02    0.125E-01
RMM:  13    -0.367130682654E+02   -0.47610E-04   -0.57458E-05   671   0.469E-02    0.331E-02
RMM:  14    -0.367130656501E+02    0.26153E-05   -0.24643E-05   562   0.261E-02
   9 F= -.36713066E+02 E0= -.36703465E+02  d E =-.136401E-01
       N       E                     dE             d eps       ncg     rms          rms(c)
DAV:   1    -0.367173899037E+02   -0.43216E-02   -0.19269E+00   800   0.102E+01
DAV:   2    -0.367202056455E+02   -0.28157E-02   -0.28157E-02  1110   0.115E+00
DAV:   3    -0.367202155972E+02   -0.99517E-05   -0.99522E-05  1040   0.608E-02
DAV:   4    -0.367202156692E+02   -0.72006E-07   -0.71311E-07   940   0.576E-03
DAV:   5    -0.367202156788E+02   -0.95999E-08   -0.97607E-08   660   0.184E-03
DAV:   6    -0.367202156814E+02   -0.25591E-08   -0.26283E-08   620   0.898E-04
DAV:   7    -0.367202156817E+02   -0.31037E-09   -0.78269E-09   500   0.465E-04
DAV:   8    -0.367202156825E+02   -0.84515E-09   -0.24325E-09   430   0.245E-04    0.466E-01
RMM:   9    -0.371420121157E+02   -0.42180E+00   -0.41781E-02   800   0.967E-01    0.793E+00
RMM:  10    -0.367099961663E+02    0.43202E+00   -0.22939E-02   800   0.833E-01    0.635E-01
RMM:  11    -0.367182223403E+02   -0.82262E-02   -0.41894E-03   800   0.419E-01    0.136E-01
RMM:  12    -0.367191122866E+02   -0.88995E-03   -0.12712E-04   753   0.949E-02    0.208E-01
RMM:  13    -0.367190566557E+02    0.55631E-04   -0.33249E-05   586   0.482E-02    0.363E-02
RMM:  14    -0.367190967628E+02   -0.40107E-04   -0.22672E-05   501   0.374E-02    0.328E-02
RMM:  15    -0.367190945565E+02    0.22062E-05   -0.36869E-06   480   0.144E-02
  10 F= -.36719095E+02 E0= -.36709557E+02  d E =-.602891E-02
       N       E                     dE             d eps       ncg     rms          rms(c)
DAV:   1    -0.367173055503E+02    0.17912E-02   -0.72187E+00   800   0.198E+01
DAV:   2    -0.367278131935E+02   -0.10508E-01   -0.10506E-01  1090   0.224E+00
DAV:   3    -0.367278518080E+02   -0.38614E-04   -0.38614E-04  1060   0.119E-01
DAV:   4    -0.367278520626E+02   -0.25460E-06   -0.25506E-06   950   0.111E-02
DAV:   5    -0.367278520972E+02   -0.34657E-07   -0.34229E-07   740   0.358E-03
DAV:   6    -0.367278521061E+02   -0.89315E-08   -0.91404E-08   660   0.175E-03
DAV:   7    -0.367278521088E+02   -0.26191E-08   -0.27052E-08   540   0.903E-04
DAV:   8    -0.367278521099E+02   -0.11146E-08   -0.83666E-09   520   0.475E-04    0.841E-01
RMM:   9    -0.376519602472E+02   -0.92411E+00   -0.13530E-01   800   0.178E+00    0.853E+00
RMM:  10    -0.367273266772E+02    0.92463E+00   -0.70366E-02   800   0.136E+00    0.187E+00
RMM:  11    -0.367227094929E+02    0.46172E-02   -0.10449E-02   800   0.553E-01    0.418E-01
RMM:  12    -0.367246642459E+02   -0.19548E-02   -0.72013E-04   799   0.199E-01    0.450E-01
RMM:  13    -0.367240500712E+02    0.61417E-03   -0.67295E-05   702   0.644E-02    0.760E-02
RMM:  14    -0.367241924194E+02   -0.14235E-03   -0.10840E-04   774   0.746E-02    0.145E-01
RMM:  15    -0.367241734684E+02    0.18951E-04   -0.20369E-05   500   0.324E-02    0.973E-02
RMM:  16    -0.367241787219E+02   -0.52535E-05   -0.58321E-06   480   0.224E-02
  11 F= -.36724179E+02 E0= -.36714753E+02  d E =-.111131E-01
       N       E                     dE             d eps       ncg     rms          rms(c)
DAV:   1    -0.367265728508E+02   -0.23994E-02   -0.25981E+00   800   0.122E+01
DAV:   2    -0.367294219931E+02   -0.28491E-02   -0.28491E-02  1180   0.125E+00
DAV:   3    -0.367294298986E+02   -0.79055E-05   -0.79059E-05  1020   0.611E-02
DAV:   4    -0.367294299956E+02   -0.96972E-07   -0.96896E-07   910   0.668E-03
DAV:   5    -0.367294300099E+02   -0.14331E-07   -0.13992E-07   770   0.226E-03
DAV:   6    -0.367294300133E+02   -0.33517E-08   -0.37845E-08   730   0.112E-03
DAV:   7    -0.367294300145E+02   -0.11651E-08   -0.11256E-08   560   0.584E-04
DAV:   8    -0.367294300149E+02   -0.46339E-09   -0.34750E-09   460   0.311E-04    0.952E-01
RMM:   9    -0.379595605833E+02   -0.12301E+01   -0.15804E-01   800   0.190E+00    0.968E+00
RMM:  10    -0.367319092357E+02    0.12277E+01   -0.10070E-01   800   0.164E+00    0.308E+00
RMM:  11    -0.367195476928E+02    0.12362E-01   -0.45032E-03   800   0.382E-01    0.680E-01
RMM:  12    -0.367263826423E+02   -0.68349E-02   -0.13766E-03   800   0.286E-01    0.710E-01
RMM:  13    -0.367258359153E+02    0.54673E-03   -0.22928E-04   800   0.134E-01    0.182E-01
RMM:  14    -0.367270927324E+02   -0.12568E-02   -0.13385E-04   771   0.630E-02    0.696E-01
RMM:  15    -0.367260584246E+02    0.10343E-02   -0.37919E-05   585   0.689E-02    0.447E-01
RMM:  16    -0.367255819578E+02    0.47647E-03   -0.23593E-05   536   0.277E-02    0.603E-02
RMM:  17    -0.367258115669E+02   -0.22961E-03   -0.10990E-05   488   0.334E-02    0.605E-02
RMM:  18    -0.367258396196E+02   -0.28053E-04   -0.60305E-06   477   0.239E-02    0.381E-02
RMM:  19    -0.367258345106E+02    0.51090E-05   -0.71889E-07   405   0.715E-03
  12 F= -.36725835E+02 E0= -.36716398E+02  d E =-.165579E-02
       N       E                     dE             d eps       ncg     rms          rms(c)
DAV:   1    -0.367258422008E+02   -0.25812E-05   -0.15401E-03  1030   0.297E-01
DAV:   2    -0.367258440042E+02   -0.18034E-05   -0.18033E-05  1130   0.309E-02
DAV:   3    -0.367258440090E+02   -0.48444E-08   -0.50801E-08   780   0.166E-03
DAV:   4    -0.367258440097E+02   -0.71122E-09   -0.72409E-09   620   0.601E-04
DAV:   5    -0.367258440101E+02   -0.34765E-09   -0.16398E-09   440   0.270E-04
DAV:   6    -0.367258440105E+02   -0.40745E-09   -0.42870E-10   410   0.131E-04
DAV:   7    -0.367258440105E+02    0.24102E-10   -0.12215E-10   400   0.661E-05
DAV:   8    -0.367258440100E+02    0.50500E-09   -0.35309E-11   400   0.345E-05    0.230E-02
RMM:   9    -0.367275034677E+02   -0.16595E-02   -0.94819E-05   700   0.458E-02    0.802E-01
RMM:  10    -0.367255713572E+02    0.19321E-02   -0.82765E-05   706   0.671E-02    0.281E-02
RMM:  11    -0.367258158076E+02   -0.24445E-03   -0.12174E-05   498   0.401E-02    0.879E-03
RMM:  12    -0.367258407871E+02   -0.24979E-04   -0.10149E-06   401   0.998E-03    0.481E-03
RMM:  13    -0.367258442301E+02   -0.34430E-05   -0.13349E-07   206   0.447E-03
  13 F= -.36725844E+02 E0= -.36716403E+02  d E =-.166551E-02
       N       E                     dE             d eps       ncg     rms          rms(c)
DAV:   1    -0.367258497121E+02   -0.89250E-05   -0.28848E-03   870   0.409E-01
DAV:   2    -0.367258530877E+02   -0.33756E-05   -0.33753E-05  1190   0.433E-02
DAV:   3    -0.367258530953E+02   -0.75684E-08   -0.84108E-08   690   0.214E-03
DAV:   4    -0.367258530964E+02   -0.10659E-08   -0.12069E-08   400   0.758E-04
DAV:   5    -0.367258530972E+02   -0.82946E-09   -0.27754E-09   400   0.342E-04
DAV:   6    -0.367258530976E+02   -0.37107E-09   -0.73058E-10   400   0.167E-04
DAV:   7    -0.367258530971E+02    0.51273E-09   -0.20690E-10   400   0.842E-05
DAV:   8    -0.367258530968E+02    0.21623E-09   -0.62471E-11   400   0.441E-05    0.319E-02
RMM:   9    -0.367289658252E+02   -0.31127E-02   -0.18195E-04   718   0.633E-02    0.110E+00
RMM:  10    -0.367253439156E+02    0.36219E-02   -0.15400E-04   747   0.895E-02    0.374E-02
RMM:  11    -0.367258050139E+02   -0.46110E-03   -0.21900E-05   529   0.528E-02    0.122E-02
RMM:  12    -0.367258433311E+02   -0.38317E-04   -0.18025E-06   430   0.131E-02    0.572E-03
RMM:  13    -0.367258478250E+02   -0.44940E-05   -0.23851E-07   244   0.565E-03
  14 F= -.36725848E+02 E0= -.36716407E+02  d E =-.166910E-02
       N       E                     dE             d eps       ncg     rms          rms(c)
DAV:   1    -0.367263287220E+02   -0.48539E-03   -0.23862E-01   800   0.337E+00
DAV:   2    -0.367266485030E+02   -0.31978E-03   -0.31978E-03  1140   0.355E-01
DAV:   3    -0.367266490874E+02   -0.58445E-06   -0.58392E-06   990   0.161E-02
DAV:   4    -0.367266491208E+02   -0.33341E-07   -0.33332E-07   710   0.343E-03
DAV:   5    -0.367266491269E+02   -0.61123E-08   -0.63282E-08   570   0.140E-03
DAV:   6    -0.367266491287E+02   -0.17844E-08   -0.14757E-08   490   0.656E-04
DAV:   7    -0.367266491284E+02    0.24579E-09   -0.37756E-09   470   0.323E-04
DAV:   8    -0.367266491288E+02   -0.31605E-09   -0.10340E-09   430   0.163E-04    0.351E-01
RMM:   9    -0.369834925036E+02   -0.25684E+00   -0.20154E-02   800   0.662E-01    0.838E+00
RMM:  10    -0.367049575124E+02    0.27853E+00   -0.12768E-02   800   0.747E-01    0.850E-01
RMM:  11    -0.367238748745E+02   -0.18917E-01   -0.21053E-03   800   0.433E-01    0.175E-01
RMM:  12    -0.367258880477E+02   -0.20132E-02   -0.14796E-04   764   0.125E-01    0.237E-02
RMM:  13    -0.367259905066E+02   -0.10246E-03   -0.14356E-05   494   0.317E-02    0.445E-02
RMM:  14    -0.367260078091E+02   -0.17302E-04   -0.42029E-06   477   0.164E-02    0.138E-02
RMM:  15    -0.367260057741E+02    0.20350E-05   -0.55426E-06   457   0.126E-02
  15 F= -.36726006E+02 E0= -.36716555E+02  d E =-.157949E-03
       N       E                     dE             d eps       ncg     rms          rms(c)
DAV:   1    -0.367260052489E+02    0.25602E-05   -0.82999E-04   990   0.200E-01
DAV:   2    -0.367260063925E+02   -0.11436E-05   -0.11433E-05  1100   0.213E-02
DAV:   3    -0.367260063949E+02   -0.24058E-08   -0.26495E-08   800   0.109E-03
DAV:   4    -0.367260063956E+02   -0.77034E-09   -0.35746E-09   510   0.374E-04
DAV:   5    -0.367260063955E+02    0.17144E-09   -0.81946E-10   450   0.167E-04
DAV:   6    -0.367260063952E+02    0.28945E-09   -0.21685E-10   430   0.820E-05
DAV:   7    -0.367260063957E+02   -0.49477E-09   -0.67298E-11   400   0.408E-05
DAV:   8    -0.367260063958E+02   -0.11596E-09   -0.20654E-11   400   0.215E-05    0.124E-02
RMM:   9    -0.367261301527E+02   -0.12376E-03   -0.12732E-05   464   0.183E-02    0.216E-01
RMM:  10    -0.367259705697E+02    0.15958E-03   -0.43507E-06   432   0.182E-02    0.194E-02
RMM:  11    -0.367260027783E+02   -0.32209E-04   -0.42816E-06   423   0.174E-02    0.102E-02
RMM:  12    -0.367260051106E+02   -0.23323E-05   -0.31153E-07   202   0.483E-03
  16 F= -.36726005E+02 E0= -.36716549E+02  d E =-.157286E-03
       N       E                     dE             d eps       ncg     rms          rms(c)
DAV:   1    -0.367260077398E+02   -0.49615E-05   -0.10501E-04   950   0.706E-02
DAV:   2    -0.367260078927E+02   -0.15289E-06   -0.15244E-06   570   0.786E-03
DAV:   3    -0.367260078997E+02   -0.70634E-08   -0.72927E-08   400   0.173E-03
DAV:   4    -0.367260079012E+02   -0.14511E-08   -0.10399E-08   400   0.641E-04
DAV:   5    -0.367260079010E+02    0.19600E-09   -0.23196E-09   400   0.277E-04
DAV:   6    -0.367260079014E+02   -0.36925E-09   -0.62453E-10   400   0.134E-04
DAV:   7    -0.367260079008E+02    0.61073E-09   -0.18934E-10   400   0.667E-05
DAV:   8    -0.367260079013E+02   -0.51887E-09   -0.61789E-11   400   0.354E-05    0.586E-03
RMM:   9    -0.367260808208E+02   -0.72919E-04   -0.41128E-06   384   0.105E-02    0.164E-01
RMM:  10    -0.367259794805E+02    0.10134E-03   -0.21795E-06   409   0.134E-02    0.119E-02
RMM:  11    -0.367260060759E+02   -0.26595E-04   -0.12097E-06   366   0.103E-02    0.543E-03
RMM:  12    -0.367260087231E+02   -0.26472E-05   -0.76391E-08   163   0.351E-03
  17 F= -.36726009E+02 E0= -.36716553E+02  d E =-.160898E-03
       N       E                     dE             d eps       ncg     rms          rms(c)
DAV:   1    -0.367260104733E+02   -0.43974E-05   -0.89728E-05  1060   0.654E-02
DAV:   2    -0.367260105899E+02   -0.11658E-06   -0.11617E-06   540   0.706E-03
DAV:   3    -0.367260105954E+02   -0.55725E-08   -0.54480E-08   400   0.152E-03
DAV:   4    -0.367260105959E+02   -0.49272E-09   -0.73783E-09   400   0.564E-04
DAV:   5    -0.367260105959E+02    0.36835E-10   -0.15353E-09   400   0.239E-04
DAV:   6    -0.367260105961E+02   -0.17394E-09   -0.38213E-10   400   0.114E-04
DAV:   7    -0.367260105962E+02   -0.17621E-09   -0.10729E-10   400   0.556E-05
DAV:   8    -0.367260105960E+02    0.19827E-09   -0.36203E-11   400   0.289E-05    0.679E-03
RMM:   9    -0.367261212502E+02   -0.11065E-03   -0.63817E-06   409   0.129E-02    0.204E-01
RMM:  10    -0.367259669756E+02    0.15427E-03   -0.34085E-06   418   0.163E-02    0.958E-03
RMM:  11    -0.367260077515E+02   -0.40776E-04   -0.16698E-06   396   0.125E-02    0.310E-03
RMM:  12    -0.367260108451E+02   -0.30937E-05   -0.11891E-07   181   0.419E-03
  18 F= -.36726011E+02 E0= -.36716556E+02  d E =-.163020E-03
       N       E                     dE             d eps       ncg     rms          rms(c)
DAV:   1    -0.367260120170E+02   -0.42655E-05   -0.22126E-05   920   0.328E-02
DAV:   2    -0.367260120636E+02   -0.46647E-07   -0.47078E-07   510   0.511E-03
DAV:   3    -0.367260120666E+02   -0.30063E-08   -0.28916E-08   400   0.120E-03
DAV:   4    -0.367260120669E+02   -0.23738E-09   -0.40217E-09   400   0.444E-04
DAV:   5    -0.367260120670E+02   -0.76398E-10   -0.79406E-10   400   0.183E-04
DAV:   6    -0.367260120670E+02   -0.22510E-10   -0.18868E-10   400   0.853E-05
DAV:   7    -0.367260120668E+02    0.17099E-09   -0.47942E-11   400   0.409E-05
DAV:   8    -0.367260120671E+02   -0.29536E-09   -0.14456E-11   400   0.209E-05    0.363E-03
RMM:   9    -0.367260419696E+02   -0.29903E-04   -0.17035E-06   325   0.689E-03    0.105E-01
RMM:  10    -0.367260007378E+02    0.41232E-04   -0.98393E-07   368   0.958E-03    0.454E-03
RMM:  11    -0.367260112514E+02   -0.10514E-04   -0.52722E-07   327   0.755E-03    0.135E-03
RMM:  12    -0.367260126466E+02   -0.13951E-05   -0.71431E-09   103   0.221E-03
  19 F= -.36726013E+02 E0= -.36716558E+02  d E =-.164822E-03
       N       E                     dE             d eps       ncg     rms          rms(c)
DAV:   1    -0.367260131583E+02   -0.19069E-05   -0.53772E-06   790   0.165E-02
DAV:   2    -0.367260131762E+02   -0.17827E-07   -0.17827E-07   500   0.332E-03
DAV:   3    -0.367260131777E+02   -0.14873E-08   -0.12900E-08   400   0.771E-04
DAV:   4    -0.367260131778E+02   -0.15825E-09   -0.19588E-09   400   0.286E-04
DAV:   5    -0.367260131774E+02    0.45520E-09   -0.41086E-10   400   0.116E-04
DAV:   6    -0.367260131779E+02   -0.49295E-09   -0.10255E-10   400   0.547E-05
DAV:   7    -0.367260131778E+02    0.67757E-10   -0.26808E-11   400   0.261E-05
DAV:   8    -0.367260131780E+02   -0.19418E-09   -0.87300E-12   400   0.136E-05    0.182E-03
RMM:   9    -0.367260208687E+02   -0.76907E-05   -0.21292E-07   158   0.345E-03
  20 F= -.36726021E+02 E0= -.36716573E+02  d E =-.173044E-03
       N       E                     dE             d eps       ncg     rms          rms(c)
DAV:   1    -0.367260080490E+02    0.51289E-05   -0.51177E-05   700   0.188E-02
DAV:   2    -0.367260080812E+02   -0.32220E-07   -0.32133E-07   610   0.453E-03
DAV:   3    -0.367260080840E+02   -0.27424E-08   -0.23938E-08   400   0.103E-03
DAV:   4    -0.367260080843E+02   -0.35220E-09   -0.39584E-09   400   0.393E-04
DAV:   5    -0.367260080842E+02    0.11005E-09   -0.93129E-10   400   0.168E-04
DAV:   6    -0.367260080841E+02    0.11460E-09   -0.25682E-10   400   0.840E-05
DAV:   7    -0.367260080841E+02    0.20691E-10   -0.80252E-11   400   0.430E-05
DAV:   8    -0.367260080842E+02   -0.15120E-09   -0.28198E-11   400   0.234E-05    0.331E-03
RMM:   9    -0.367260281190E+02   -0.20035E-04   -0.10586E-06   308   0.668E-03    0.761E-02
RMM:  10    -0.367260023881E+02    0.25731E-04   -0.65595E-07   355   0.825E-03    0.437E-03
RMM:  11    -0.367260126494E+02   -0.10261E-04   -0.31799E-07   258   0.568E-03    0.132E-03
RMM:  12    -0.367260135359E+02   -0.88643E-06   -0.25926E-08   112   0.319E-03
  21 F= -.36726014E+02 E0= -.36716559E+02  d E =-.165711E-03
       N       E                     dE             d eps       ncg     rms          rms(c)
DAV:   1    -0.367260138253E+02   -0.11758E-05   -0.78502E-07   680   0.662E-03
DAV:   2    -0.367260138287E+02   -0.34311E-08   -0.31821E-08   600   0.137E-03
DAV:   3    -0.367260138291E+02   -0.40995E-09   -0.36535E-09   400   0.383E-04
DAV:   4    -0.367260138297E+02   -0.61414E-09   -0.82062E-10   400   0.169E-04
DAV:   5    -0.367260138298E+02   -0.85720E-10   -0.23342E-10   400   0.792E-05
DAV:   6    -0.367260138295E+02    0.33538E-09   -0.77612E-11   400   0.418E-05
DAV:   7    -0.367260138293E+02    0.15939E-09   -0.25193E-11   400   0.220E-05
DAV:   8    -0.367260138289E+02    0.40154E-09   -0.10351E-11   400   0.124E-05    0.619E-04
RMM:   9    -0.367260157019E+02   -0.18730E-05    0.00000E+00    56   0.127E-03
  22 F= -.36726016E+02 E0= -.36716564E+02  d E =-.167877E-03
