 vasp.5.4.4.18Apr17-6-g9f103f2a35 (build Nov 15 2019 10:10:58) complex          
  
 executed on             LinuxIFC date 2024.06.26  20:01:32
 running on   20 total cores
 distrk:  each k-point on   20 cores,    1 groups
 distr:  one band on NCORES_PER_BAND=   4 cores,    5 groups


--------------------------------------------------------------------------------------------------------


 INCAR:
 POTCAR:    PAW_PBE Mg 13Apr2007                  
 POTCAR:    PAW_PBE O 08Apr2002                   
 POTCAR:    PAW_PBE Mg 13Apr2007                  
   VRHFIN =Mg: s2p0                                                             
   LEXCH  = PE                                                                  
   EATOM  =    23.0369 eV,    1.6932 Ry                                         
                                                                                
   TITEL  = PAW_PBE Mg 13Apr2007                                                
   LULTRA =        F    use ultrasoft PP ?                                      
   IUNSCR =        1    unscreen: 0-lin 1-nonlin 2-no                           
   RPACOR =    1.500    partial core radius                                     
   POMASS =   24.305; ZVAL   =    2.000    mass and valenz                      
   RCORE  =    2.000    outmost cutoff radius                                   
   RWIGS  =    2.880; RWIGS  =    1.524    wigner-seitz radius (au A)           
   ENMAX  =  200.000; ENMIN  =  100.000 eV                                      
   RCLOC  =    1.506    cutoff for local pot                                    
   LCOR   =        T    correct aug charges                                     
   LPAW   =        T    paw PP                                                  
   EAUG   =  454.734                                                            
   DEXC   =    0.000                                                            
   RMAX   =    2.045    core radius for proj-oper                               
   RAUG   =    1.300    factor for augmentation sphere                          
   RDEP   =    2.025    radius for radial grids                                 
   RDEPT  =    1.942    core radius for aug-charge                              
                                                                                
   Atomic configuration                                                         
    6 entries                                                                   
     n  l   j            E        occ.                                          
     1  0  0.50     -1259.6230   2.0000                                         
     2  0  0.50       -79.8442   2.0000                                         
     2  1  1.50       -46.6121   6.0000                                         
     3  0  0.50        -4.7055   2.0000                                         
     3  1  0.50        -1.3660   0.0000                                         
     3  2  1.50        -1.3606   0.0000                                         
   Description                                                                  
     l       E           TYP  RCUT    TYP  RCUT                                 
     0     -4.7054661     23  2.000                                             
     0     27.2116520     23  2.000                                             
     1      1.3605826     23  2.000                                             
     1     27.2116520     23  2.000                                             
     2     -1.3605826     23  2.000                                             
  local pseudopotential read in
  partial core-charges read in
  partial kinetic energy density read in
  atomic valenz-charges read in
  non local Contribution for L=           0  read in
    real space projection operators read in
  non local Contribution for L=           0  read in
    real space projection operators read in
  non local Contribution for L=           1  read in
    real space projection operators read in
  non local Contribution for L=           1  read in
    real space projection operators read in
  non local Contribution for L=           2  read in
    real space projection operators read in
    PAW grid and wavefunctions read in
 
   number of l-projection  operators is LMAX  =           5
   number of lm-projection operators is LMMAX =          13
 
 POTCAR:    PAW_PBE O 08Apr2002                   
   VRHFIN =O: s2p4                                                              
   LEXCH  = PE                                                                  
   EATOM  =   432.3788 eV,   31.7789 Ry                                         
                                                                                
   TITEL  = PAW_PBE O 08Apr2002                                                 
   LULTRA =        F    use ultrasoft PP ?                                      
   IUNSCR =        1    unscreen: 0-lin 1-nonlin 2-no                           
   RPACOR =    1.200    partial core radius                                     
   POMASS =   16.000; ZVAL   =    6.000    mass and valenz                      
   RCORE  =    1.520    outmost cutoff radius                                   
   RWIGS  =    1.550; RWIGS  =    0.820    wigner-seitz radius (au A)           
   ENMAX  =  400.000; ENMIN  =  300.000 eV                                      
   ICORE  =        2    local potential                                         
   LCOR   =        T    correct aug charges                                     
   LPAW   =        T    paw PP                                                  
   EAUG   =  605.392                                                            
   DEXC   =    0.000                                                            
   RMAX   =    1.553    core radius for proj-oper                               
   RAUG   =    1.300    factor for augmentation sphere                          
   RDEP   =    1.550    radius for radial grids                                 
   RDEPT  =    1.329    core radius for aug-charge                              
                                                                                
   Atomic configuration                                                         
    4 entries                                                                   
     n  l   j            E        occ.                                          
     1  0  0.50      -514.6923   2.0000                                         
     2  0  0.50       -23.9615   2.0000                                         
     2  1  0.50        -9.0305   4.0000                                         
     3  2  1.50        -9.5241   0.0000                                         
   Description                                                                  
     l       E           TYP  RCUT    TYP  RCUT                                 
     0    -23.9615318     23  1.200                                             
     0     -9.5240782     23  1.200                                             
     1     -9.0304911     23  1.520                                             
     1      8.1634956     23  1.520                                             
     2     -9.5240782      7  1.500                                             
  local pseudopotential read in
  partial core-charges read in
  partial kinetic energy density read in
  kinetic energy density of atom read in
  atomic valenz-charges read in
  non local Contribution for L=           0  read in
    real space projection operators read in
  non local Contribution for L=           0  read in
    real space projection operators read in
  non local Contribution for L=           1  read in
    real space projection operators read in
  non local Contribution for L=           1  read in
    real space projection operators read in
    PAW grid and wavefunctions read in
 
   number of l-projection  operators is LMAX  =           4
   number of lm-projection operators is LMMAX =           8
 

 ----------------------------------------------------------------------------- 
|                                                                             |
|  ADVICE TO THIS USER RUNNING 'VASP/VAMP'   (HEAR YOUR MASTER'S VOICE ...):  |
|                                                                             |
|      You have a (more or less) 'small supercell' and for smaller cells      |
|      it is recommended  to use the reciprocal-space projection scheme!      |
|      The real space optimization is not  efficient for small cells and it   |
|      is also less accurate ...                                              |
|      Therefore set LREAL=.FALSE. in the  INCAR file                         |
|                                                                             |
 ----------------------------------------------------------------------------- 

 Optimization of the real space projectors (new method)

 maximal supplied QI-value         = 18.90
 optimisation between [QCUT,QGAM] = [ 10.77, 27.02] = [ 32.49,204.49] Ry 
 Optimized for a Real-space Cutoff    1.14 Angstroem

   l    n(q)    QCUT    max X(q) W(low)/X(q) W(high)/X(q)  e(spline) 
   0      9    10.771    28.265    0.55E-04    0.11E-03    0.18E-06
   0      9    10.771    10.429    0.35E-04    0.89E-04    0.15E-06
   1      9    10.771    13.073    0.36E-03    0.68E-04    0.34E-06
   1      9    10.771     9.625    0.30E-03    0.60E-04    0.28E-06
   2      8    10.771     4.652    0.10E-03    0.16E-03    0.22E-06
 Optimization of the real space projectors (new method)

 maximal supplied QI-value         = 24.76
 optimisation between [QCUT,QGAM] = [ 10.64, 26.98] = [ 31.73,203.89] Ry 
 Optimized for a Real-space Cutoff    0.98 Angstroem

   l    n(q)    QCUT    max X(q) W(low)/X(q) W(high)/X(q)  e(spline) 
   0      8    10.645    20.381    0.22E-03    0.11E-04    0.15E-06
   0      8    10.645    15.268    0.23E-03    0.14E-04    0.16E-06
   1      7    10.645     5.964    0.39E-03    0.37E-03    0.76E-07
   1      7    10.645     5.382    0.33E-03    0.32E-03    0.66E-07
  PAW_PBE Mg 13Apr2007                  :
 energy of atom  1       EATOM=  -23.0369
 kinetic energy error for atom=    0.0001 (will be added to EATOM!!)
  PAW_PBE O 08Apr2002                   :
 energy of atom  2       EATOM= -432.3788
 kinetic energy error for atom=    0.0389 (will be added to EATOM!!)
 
 
 POSCAR: MgO7                                    
  positions in direct lattice
  No initial velocities read in
 exchange correlation table for  LEXCH =        8
   RHO(1)=    0.500       N(1)  =     2000
   RHO(2)=  100.500       N(2)  =     4000

 VTST: version 3.2, (02/03/18)

 CHAIN: initializing optimizer
 
 OPT: Using VASP Conjugate-Gradient optimizer
 CHAIN: Read ICHAIN            0
 
 POSCAR: MgO7                                    
  positions in direct lattice
  No initial velocities read in
 


--------------------------------------------------------------------------------------------------------


 ion  position               nearest neighbor table
   1  0.000  0.000  0.209-   6 2.12   7 2.12   6 2.12   7 2.12   6 2.12   7 2.12   2 3.00   2 3.00
                             2 3.00   3 3.00   3 3.00   3 3.00
   2  0.333  0.667  0.319-   5 2.12   6 2.12   6 2.12   5 2.12   5 2.12   6 2.12   1 3.00   1 3.00
                             1 3.00
   3  0.667  0.333  0.100-   4 2.12   4 2.12   4 2.12   7 2.12   7 2.12   7 2.12   1 3.00   1 3.00
                             1 3.00
   4  0.000  0.000  0.045-   3 2.12   3 2.12   3 2.12
   5  0.000  0.000  0.374-   2 2.12   2 2.12   2 2.12
   6  0.667  0.333  0.264-   1 2.12   2 2.12   2 2.12   1 2.12   1 2.12   2 2.12
   7  0.333  0.667  0.154-   1 2.12   1 2.12   1 2.12   3 2.12   3 2.12   3 2.12
 
  LATTYP: Found a hexagonal cell.
 ALAT       =     3.0044062036
 C/A-ratio  =     7.4421562419
  
  Lattice vectors:
  
 A1 = (   2.1244360000,  -2.1244350000,   0.0000000000)
 A2 = (   0.0000000000,   2.1244360000,  -2.1244360000)
 A3 = (  12.9091250000,  12.9091250000,  12.9091250000)


Analysis of symmetry for initial positions (statically):
=====================================================================
 Subroutine PRICEL returns:
 Original cell was already a primitive cell.
 

 Routine SETGRP: Setting up the symmetry group for a 
 hexagonal supercell.


 Subroutine GETGRP returns: Found 12 space group operations
 (whereof  6 operations were pure point group operations)
 out of a pool of 24 trial point group operations.


The static configuration has the point symmetry C_3v.
 The point group associated with its full space group is D_3d.


Analysis of symmetry for dynamics (positions and initial velocities):
=====================================================================
 Subroutine PRICEL returns:
 Original cell was already a primitive cell.
 

 Routine SETGRP: Setting up the symmetry group for a 
 hexagonal supercell.


 Subroutine GETGRP returns: Found 12 space group operations
 (whereof  6 operations were pure point group operations)
 out of a pool of 24 trial point group operations.


The dynamic configuration has the point symmetry C_3v.
 The point group associated with its full space group is D_3d.


Analysis of constrained symmetry for selective dynamics:
=====================================================================
 Subroutine PRICEL returns:
 Original cell was already a primitive cell.
 

 Routine SETGRP: Setting up the symmetry group for a 
 hexagonal supercell.


 Subroutine GETGRP returns: Found  6 space group operations
 (whereof  6 operations were pure point group operations)
 out of a pool of 24 trial point group operations.


The constrained configuration has the point symmetry C_3v.


 Subroutine INISYM returns: Found  6 space group operations
 (whereof  6 operations are pure point group operations),
 and found     1 'primitive' translations

 
 
 KPOINTS: K-Spacing Value to Generate K-Mesh: 0.02

Automatic generation of k-mesh.
Space group operators:
 irot       det(A)        alpha          n_x          n_y          n_z        tau_x        tau_y        tau_z
    1     1.000000     0.000001     1.000000     0.000000     0.000000     0.000000     0.000000     0.000000
    2     1.000000   120.000000    -0.577350    -0.577350    -0.577350     0.000000     0.000000     0.000000
    3     1.000000   120.000000     0.577350     0.577350     0.577350     0.000000     0.000000     0.000000
    4    -1.000000   180.000000     0.707107    -0.707107    -0.000000     0.000000     0.000000     0.000000
    5    -1.000000   179.999999     0.000000    -0.707107     0.707107     0.000000     0.000000     0.000000
    6    -1.000000   180.000000    -0.707107     0.000000     0.707107     0.000000     0.000000     0.000000
 
 Subroutine IBZKPT returns following result:
 ===========================================
 
 Found     20 irreducible k-points:
 
 Following reciprocal coordinates:
            Coordinates               Weight
  0.062500  0.062500 -0.000000     48.000000
  0.187500  0.062500 -0.000000     96.000000
  0.312500  0.062500 -0.000000     96.000000
  0.437500  0.062500 -0.000000     96.000000
 -0.437500  0.062500  0.000000     96.000000
 -0.312500  0.062500  0.000000     96.000000
 -0.187500  0.062500  0.000000     96.000000
 -0.062500  0.062500  0.000000     48.000000
  0.187500  0.187500  0.000000     48.000000
  0.312500  0.187500  0.000000     96.000000
  0.437500  0.187500 -0.000000     96.000000
 -0.437500  0.187500  0.000000     96.000000
 -0.312500  0.187500  0.000000     96.000000
 -0.187500  0.187500  0.000000     48.000000
  0.312500  0.312500  0.000000     48.000000
  0.437500  0.312500 -0.000000     96.000000
 -0.437500  0.312500 -0.000000     96.000000
 -0.312500  0.312500  0.000000     48.000000
  0.437500  0.437500  0.000000     48.000000
 -0.437500  0.437500  0.000000     48.000000
 
 Following cartesian coordinates:
            Coordinates               Weight
  0.029420 -0.000000 -0.029420     48.000000
  0.068646 -0.019613 -0.049033     96.000000
  0.107872 -0.039226 -0.068646     96.000000
  0.147098 -0.058839 -0.088259     96.000000
 -0.127485  0.078452  0.049033     96.000000
 -0.088259  0.058839  0.029420     96.000000
 -0.049033  0.039226  0.009807     96.000000
 -0.009807  0.019613 -0.009807     48.000000
  0.088259  0.000000 -0.088259     48.000000
  0.127485 -0.019613 -0.107872     96.000000
  0.166711 -0.039226 -0.127485     96.000000
 -0.107872  0.098065  0.009807     96.000000
 -0.068646  0.078452 -0.009807     96.000000
 -0.029420  0.058839 -0.029420     48.000000
  0.147098  0.000000 -0.147098     48.000000
  0.186324 -0.019613 -0.166711     96.000000
 -0.088259  0.117678 -0.029420     96.000000
 -0.049033  0.098065 -0.049033     48.000000
  0.205937 -0.000000 -0.205937     48.000000
 -0.068646  0.137291 -0.068646     48.000000
 


--------------------------------------------------------------------------------------------------------




 Dimension of arrays:
   k-points           NKPTS =     20   k-points in BZ     NKDIM =     20   number of bands    NBANDS=     20
   number of dos      NEDOS =    301   number of ions     NIONS =      7
   non local maximal  LDIM  =      5   non local SUM 2l+1 LMDIM =     13
   total plane-waves  NPLWV =  92160
   max r-space proj   IRMAX =   3303   max aug-charges    IRDMAX=   7665
   dimension x,y,z NGX =    24 NGY =   24 NGZ =  160
   dimension x,y,z NGXF=    32 NGYF=   32 NGZF=  240
   support grid    NGXF=    32 NGYF=   32 NGZF=  240
   ions per type =               3   4
   NGX,Y,Z   is equivalent  to a cutoff of  13.28, 13.28, 11.90 a.u.
   NGXF,Y,Z  is equivalent  to a cutoff of  17.71, 17.71, 17.84 a.u.

 SYSTEM =  Al110                                   
 POSCAR =  MgO7                                    

 Startparameter for this run:
   NWRITE =      2    write-flag & timer
   PREC   = h         normal or accurate (medium, high low for compatibility)
   ISTART =      0    job   : 0-new  1-cont  2-samecut
   ICHARG =      2    charge: 1-file 2-atom 10-const
   ISPIN  =      1    spin polarized calculation?
   LNONCOLLINEAR =      F non collinear calculations
   LSORBIT =      F    spin-orbit coupling
   INIWAV =      1    electr: 0-lowe 1-rand  2-diag
   LASPH  =      F    aspherical Exc in radial PAW
   METAGGA=      F    non-selfconsistent MetaGGA calc.

 Electronic Relaxation 1
   ENCUT  =  450.0 eV  33.07 Ry    5.75 a.u.   5.20  5.20 38.67*2*pi/ulx,y,z
   ENINI  =  450.0     initial cutoff
   ENAUG  =  605.4 eV  augmentation charge cutoff
   NELM   =    100;   NELMIN=  8; NELMDL=  8     # of ELM steps 
   EDIFF  = 0.1E-04   stopping-criterion for ELM
   LREAL  =      T    real-space projection
   NLSPLINE    = F    spline interpolate recip. space projectors
   LCOMPAT=      F    compatible to vasp.4.4
   GGA_COMPAT  = T    GGA compatible to vasp.4.4-vasp.4.6
   LMAXPAW     = -100 max onsite density
   LMAXMIX     =    2 max onsite mixed and CHGCAR
   VOSKOWN=      0    Vosko Wilk Nusair interpolation
   ROPT   =   -0.00040  -0.00040
 Ionic relaxation
   EDIFFG = -.1E-01   stopping-criterion for IOM
   NSW    =    500    number of steps for IOM
   NBLOCK =      1;   KBLOCK =    500    inner block; outer block 
   IBRION =      2    ionic relax: 0-MD 1-quasi-New 2-CG
   NFREE  =      1    steps in history (QN), initial steepest desc. (CG)
   ISIF   =      2    stress and relaxation
   IWAVPR =     11    prediction:  0-non 1-charg 2-wave 3-comb
   ISYM   =      2    0-nonsym 1-usesym 2-fastsym
   LCORR  =      T    Harris-Foulkes like correction to forces

   POTIM  = 0.5000    time-step for ionic-motion
   TEIN   =    0.0    initial temperature
   TEBEG  =    0.0;   TEEND  =   0.0 temperature during run
   SMASS  =  -3.00    Nose mass-parameter (am)
   estimated Nose-frequenzy (Omega)   =  0.10E-29 period in steps =****** mass=  -0.206E-27a.u.
   SCALEE = 1.0000    scale energy and forces
   NPACO  =    256;   APACO  = 16.0  distance and # of slots for P.C.
   PSTRESS=    0.0 pullay stress

  Mass of Ions in am
   POMASS =  24.30 16.00
  Ionic Valenz
   ZVAL   =   2.00  6.00
  Atomic Wigner-Seitz radii
   RWIGS  =  -1.00 -1.00
  virtual crystal weights 
   VCA    =   1.00  1.00
   NELECT =      30.0000    total number of electrons
   NUPDOWN=      -1.0000    fix difference up-down

 DOS related values:
   EMIN   =  10.00;   EMAX   =-10.00  energy-range for DOS
   EFERMI =   0.00
   ISMEAR =     0;   SIGMA  =   0.05  broadening in eV -4-tet -1-fermi 0-gaus

 Electronic relaxation 2 (details)
   IALGO  =     68    algorithm
   LDIAG  =      T    sub-space diagonalisation (order eigenvalues)
   LSUBROT=      F    optimize rotation matrix (better conditioning)
   TURBO    =      0    0=normal 1=particle mesh
   IRESTART =      0    0=no restart 2=restart with 2 vectors
   NREBOOT  =      0    no. of reboots
   NMIN     =      0    reboot dimension
   EREF     =   0.00    reference energy to select bands
   IMIX   =      4    mixing-type and parameters
     AMIX     =   0.40;   BMIX     =  1.00
     AMIX_MAG =   1.60;   BMIX_MAG =  1.00
     AMIN     =   0.10
     WC   =   100.;   INIMIX=   1;  MIXPRE=   1;  MAXMIX= -45

 Intra band minimization:
   WEIMIN = 0.0010     energy-eigenvalue tresh-hold
   EBREAK =  0.13E-06  absolut break condition
   DEPER  =   0.30     relativ break condition  

   TIME   =   0.40     timestep for ELM

  volume/ion in A,a.u.               =      24.97       168.50
  Fermi-wavevector in a.u.,A,eV,Ry     =   0.909802  1.719276 11.262078  0.827739
  Thomas-Fermi vector in A             =   2.033889
 
 Write flags
   LWAVE        =      F    write WAVECAR
   LDOWNSAMPLE  =      F    k-point downsampling of WAVECAR
   LCHARG       =      F    write CHGCAR
   LVTOT        =      F    write LOCPOT, total local potential
   LVHAR        =      F    write LOCPOT, Hartree potential only
   LELF         =      F    write electronic localiz. function (ELF)
   LORBIT       =      0    0 simple, 1 ext, 2 COOP (PROOUT), +10 PAW based schemes


 Dipole corrections
   LMONO  =      F    monopole corrections only (constant potential shift)
   LDIPOL =      F    correct potential (dipole corrections)
   IDIPOL =      0    1-x, 2-y, 3-z, 4-all directions 
   EPSILON=  1.0000000 bulk dielectric constant

 Exchange correlation treatment:
   GGA     =    --    GGA type
   LEXCH   =     8    internal setting for exchange type
   VOSKOWN=      0    Vosko Wilk Nusair interpolation
   LHFCALC =     F    Hartree Fock is set to
   LHFONE  =     F    Hartree Fock one center treatment
   AEXX    =    0.0000 exact exchange contribution

 Linear response parameters
   LEPSILON=     F    determine dielectric tensor
   LRPA    =     F    only Hartree local field effects (RPA)
   LNABLA  =     F    use nabla operator in PAW spheres
   LVEL    =     F    velocity operator in full k-point grid
   LINTERFAST=   F  fast interpolation
   KINTER  =     0    interpolate to denser k-point grid
   CSHIFT  =0.1000    complex shift for real part using Kramers Kronig
   OMEGAMAX=  -1.0    maximum frequency
   DEG_THRESHOLD= 0.2000000E-02 threshold for treating states as degnerate
   RTIME   =   -0.100 relaxation time in fs
  (WPLASMAI=    0.000 imaginary part of plasma frequency in eV, 0.658/RTIME)
   DFIELD  = 0.0000000 0.0000000 0.0000000 field for delta impulse in time
 
 Orbital magnetization related:
   ORBITALMAG=     F  switch on orbital magnetization
   LCHIMAG   =     F  perturbation theory with respect to B field
   DQ        =  0.001000  dq finite difference perturbation B field
   LLRAUG    =     F  two centre corrections for induced B field



--------------------------------------------------------------------------------------------------------


 conjugate gradient relaxation of ions
   using selective dynamics as specified on POSCAR
 charge density and potential will be updated during run
 non-spin polarized calculation
 RMM-DIIS sequential band-by-band and
  variant of blocked Davidson during initial phase
 perform sub-space diagonalisation
    before iterative eigenvector-optimisation
 modified Broyden-mixing scheme, WC =      100.0
 initial mixing is a Kerker type mixing with AMIX =  0.4000 and BMIX =      1.0000
 Hartree-type preconditioning will be used
 using additional bands            5
 real space projection scheme for non local part
 use partial core corrections
 calculate Harris-corrections to forces 
   (improved forces if not selfconsistent)
 use gradient corrections 
 use of overlap-Matrix (Vanderbilt PP)
 Gauss-broadening in eV      SIGMA  =   0.05


--------------------------------------------------------------------------------------------------------


  energy-cutoff  :      450.00
  volume of cell :      174.79
      direct lattice vectors                 reciprocal lattice vectors
     2.124436000 -2.124435000  0.000000000     0.313808828 -0.156904414 -0.156904414
     0.000000000  2.124436000 -2.124436000     0.156904340  0.156904414 -0.313808754
    12.909125000 12.909125000 12.909125000     0.025821520  0.025821532  0.025821532

  length of vectors
     3.004405496  3.004406204 22.359260381     0.384335753  0.384335662  0.044724199


 
 k-points in units of 2pi/SCALE and weight: K-Spacing Value to Generate K-Mesh: 0.02
   0.02941957 -0.00000000 -0.02941957       0.031
   0.06864568 -0.01961305 -0.04903262       0.062
   0.10787178 -0.03922610 -0.06864568       0.062
   0.14709788 -0.05883916 -0.08825873       0.062
  -0.12748484  0.07845221  0.04903263       0.062
  -0.08825874  0.05883916  0.02941958       0.062
  -0.04903263  0.03922610  0.00980653       0.062
  -0.00980653  0.01961305 -0.00980652       0.031
   0.08825872  0.00000000 -0.08825872       0.031
   0.12748482 -0.01961305 -0.10787177       0.062
   0.16671093 -0.03922610 -0.12748482       0.062
  -0.10787180  0.09806526  0.00980654       0.062
  -0.06864569  0.07845221 -0.00980651       0.062
  -0.02941959  0.05883916 -0.02941956       0.031
   0.14709787  0.00000000 -0.14709787       0.031
   0.18632397 -0.01961305 -0.16671092       0.062
  -0.08825876  0.11767831 -0.02941955       0.062
  -0.04903265  0.09806526 -0.04903261       0.031
   0.20593701 -0.00000000 -0.20593701       0.031
  -0.06864571  0.13729136 -0.06864565       0.031
 
 k-points in reciprocal lattice and weights: K-Spacing Value to Generate K-Mesh: 0.02
   0.06250000  0.06250000 -0.00000000       0.031
   0.18750000  0.06250000 -0.00000000       0.062
   0.31250000  0.06250000 -0.00000000       0.062
   0.43750000  0.06250000 -0.00000000       0.062
  -0.43750000  0.06250000  0.00000000       0.062
  -0.31250000  0.06250000  0.00000000       0.062
  -0.18750000  0.06250000  0.00000000       0.062
  -0.06250000  0.06250000  0.00000000       0.031
   0.18750000  0.18750000  0.00000000       0.031
   0.31250000  0.18750000  0.00000000       0.062
   0.43750000  0.18750000 -0.00000000       0.062
  -0.43750000  0.18750000  0.00000000       0.062
  -0.31250000  0.18750000  0.00000000       0.062
  -0.18750000  0.18750000  0.00000000       0.031
   0.31250000  0.31250000  0.00000000       0.031
   0.43750000  0.31250000 -0.00000000       0.062
  -0.43750000  0.31250000 -0.00000000       0.062
  -0.31250000  0.31250000  0.00000000       0.031
   0.43750000  0.43750000  0.00000000       0.031
  -0.43750000  0.43750000  0.00000000       0.031
 
 position of ions in fractional coordinates (direct lattice) 
   0.00000000  0.00000000  0.20929300
   0.33333300  0.66666700  0.31900500
   0.66666700  0.33333300  0.09958000
   0.00000000  0.00000000  0.04472400
   0.00000000  0.00000000  0.37386100
   0.66666700  0.33333300  0.26414900
   0.33333300  0.66666700  0.15443700
 
 position of ions in cartesian coordinates  (Angst):
   2.70178950  2.70178950  2.70178950
   4.82622005  4.82622250  2.70178405
   2.70178204  0.57734458  0.57734604
   0.57734771  0.57734771  0.57734771
   4.82621838  4.82621838  4.82621838
   4.82622383  2.70178638  2.70178783
   2.70179116  2.70179362  0.57735516
 


--------------------------------------------------------------------------------------------------------


 k-point  1 :   0.0625 0.0625-0.0000  plane waves:    3769
 k-point  2 :   0.1875 0.0625-0.0000  plane waves:    3782
 k-point  3 :   0.3125 0.0625-0.0000  plane waves:    3802
 k-point  4 :   0.4375 0.0625-0.0000  plane waves:    3796
 k-point  5 :  -0.4375 0.0625 0.0000  plane waves:    3804
 k-point  6 :  -0.3125 0.0625 0.0000  plane waves:    3792
 k-point  7 :  -0.1875 0.0625 0.0000  plane waves:    3779
 k-point  8 :  -0.0625 0.0625 0.0000  plane waves:    3755
 k-point  9 :   0.1875 0.1875 0.0000  plane waves:    3783
 k-point 10 :   0.3125 0.1875 0.0000  plane waves:    3797
 k-point 11 :   0.4375 0.1875-0.0000  plane waves:    3783
 k-point 12 :  -0.4375 0.1875 0.0000  plane waves:    3783
 k-point 13 :  -0.3125 0.1875 0.0000  plane waves:    3774
 k-point 14 :  -0.1875 0.1875 0.0000  plane waves:    3785
 k-point 15 :   0.3125 0.3125 0.0000  plane waves:    3779
 k-point 16 :   0.4375 0.3125-0.0000  plane waves:    3780
 k-point 17 :  -0.4375 0.3125-0.0000  plane waves:    3803
 k-point 18 :  -0.3125 0.3125 0.0000  plane waves:    3795
 k-point 19 :   0.4375 0.4375 0.0000  plane waves:    3800
 k-point 20 :  -0.4375 0.4375 0.0000  plane waves:    3823

 maximum and minimum number of plane-waves per node :       962      927

 maximum number of plane-waves:      3823
 maximum index in each direction: 
   IXMAX=    5   IYMAX=    5   IZMAX=   38
   IXMIN=   -5   IYMIN=   -5   IZMIN=  -38


 real space projection operators:
  total allocation   :       1465.77 KBytes
  max/ min on nodes  :        370.59        362.41


 parallel 3D FFT for wavefunctions:
    minimum data exchange during FFTs selected (reduces bandwidth)
 parallel 3D FFT for charge:
    minimum data exchange during FFTs selected (reduces bandwidth)


 total amount of memory used by VASP MPI-rank0    35135. kBytes
=======================================================================

   base      :      30000. kBytes
   nonlr-proj:        847. kBytes
   fftplans  :       1229. kBytes
   grid      :       1789. kBytes
   one-center:         16. kBytes
   wavefun   :       1254. kBytes
 
     INWAV:  cpu time    0.0000: real time    0.0000
 Broyden mixing: mesh for mixing (old mesh)
   NGX = 11   NGY = 11   NGZ = 77
  (NGX  = 32   NGY  = 32   NGZ  =240)
  gives a total of   9317 points

 initial charge density was supplied:
 charge density of overlapping atoms calculated
 number of electron      30.0000000 magnetization 
 keeping initial charge density in first step


--------------------------------------------------------------------------------------------------------


 Maximum index for non-local projection operator          804
 Maximum index for augmentation-charges          552 (set IRDMAX)


--------------------------------------------------------------------------------------------------------


 First call to EWALD:  gamma=   0.317
 Maximum number of real-space cells 5x 5x 1
 Maximum number of reciprocal cells 2x 2x10

    FEWALD:  cpu time    0.0014: real time    0.0014


--------------------------------------- Iteration      1(   1)  ---------------------------------------


    POTLOK:  cpu time    0.0095: real time    0.0105
    SETDIJ:  cpu time    0.0022: real time    0.0022
     EDDAV:  cpu time    0.3145: real time    0.3154
       DOS:  cpu time    0.0006: real time    0.0006
    --------------------------------------------
      LOOP:  cpu time    0.3267: real time    0.3286

 eigenvalue-minimisations  :   810
 total energy-change (2. order) : 0.2184060E+03  (-0.1265456E+04)
 number of electron      30.0000000 magnetization 
 augmentation part       30.0000000 magnetization 

 Free energy of the ion-electron system (eV)
  ---------------------------------------------------
  alpha Z        PSCENC =        27.48710403
  Ewald energy   TEWEN  =      5513.57506953
  -Hartree energ DENC   =     -7120.82903863
  -exchange      EXHF   =         0.00000000
  -V(xc)+E(xc)   XCENC  =       -35.71800426
  PAW double counting   =      1582.11799337    -1433.72446643
  entropy T*S    EENTRO =        -0.00335477
  eigenvalues    EBANDS =      -112.96920943
  atomic energy  EATOM  =      1798.46990484
  Solvation  Ediel_sol  =         0.00000000
  ---------------------------------------------------
  free energy    TOTEN  =       218.40599824 eV

  energy without entropy =      218.40935301  energy(sigma->0) =      218.40767563


--------------------------------------------------------------------------------------------------------




--------------------------------------- Iteration      1(   2)  ---------------------------------------


     EDDAV:  cpu time    0.3351: real time    0.3354
       DOS:  cpu time    0.0005: real time    0.0005
    --------------------------------------------
      LOOP:  cpu time    0.3356: real time    0.3359

 eigenvalue-minimisations  :  1110
 total energy-change (2. order) :-0.2344543E+03  (-0.2326484E+03)
 number of electron      30.0000000 magnetization 
 augmentation part       30.0000000 magnetization 

 Free energy of the ion-electron system (eV)
  ---------------------------------------------------
  alpha Z        PSCENC =        27.48710403
  Ewald energy   TEWEN  =      5513.57506953
  -Hartree energ DENC   =     -7120.82903863
  -exchange      EXHF   =         0.00000000
  -V(xc)+E(xc)   XCENC  =       -35.71800426
  PAW double counting   =      1582.11799337    -1433.72446643
  entropy T*S    EENTRO =        -0.00532721
  eigenvalues    EBANDS =      -347.42157650
  atomic energy  EATOM  =      1798.46990484
  Solvation  Ediel_sol  =         0.00000000
  ---------------------------------------------------
  free energy    TOTEN  =       -16.04834127 eV

  energy without entropy =      -16.04301405  energy(sigma->0) =      -16.04567766


--------------------------------------------------------------------------------------------------------




--------------------------------------- Iteration      1(   3)  ---------------------------------------


     EDDAV:  cpu time    0.2835: real time    0.2838
       DOS:  cpu time    0.0005: real time    0.0005
    --------------------------------------------
      LOOP:  cpu time    0.2840: real time    0.2843

 eigenvalue-minimisations  :   900
 total energy-change (2. order) :-0.2398126E+02  (-0.2338910E+02)
 number of electron      30.0000000 magnetization 
 augmentation part       30.0000000 magnetization 

 Free energy of the ion-electron system (eV)
  ---------------------------------------------------
  alpha Z        PSCENC =        27.48710403
  Ewald energy   TEWEN  =      5513.57506953
  -Hartree energ DENC   =     -7120.82903863
  -exchange      EXHF   =         0.00000000
  -V(xc)+E(xc)   XCENC  =       -35.71800426
  PAW double counting   =      1582.11799337    -1433.72446643
  entropy T*S    EENTRO =        -0.01006022
  eigenvalues    EBANDS =      -371.39810233
  atomic energy  EATOM  =      1798.46990484
  Solvation  Ediel_sol  =         0.00000000
  ---------------------------------------------------
  free energy    TOTEN  =       -40.02960011 eV

  energy without entropy =      -40.01953989  energy(sigma->0) =      -40.02457000


--------------------------------------------------------------------------------------------------------




--------------------------------------- Iteration      1(   4)  ---------------------------------------


     EDDAV:  cpu time    0.3556: real time    0.3567
       DOS:  cpu time    0.0006: real time    0.0010
    --------------------------------------------
      LOOP:  cpu time    0.3562: real time    0.3577

 eigenvalue-minimisations  :  1200
 total energy-change (2. order) :-0.3644183E+00  (-0.3627418E+00)
 number of electron      30.0000000 magnetization 
 augmentation part       30.0000000 magnetization 

 Free energy of the ion-electron system (eV)
  ---------------------------------------------------
  alpha Z        PSCENC =        27.48710403
  Ewald energy   TEWEN  =      5513.57506953
  -Hartree energ DENC   =     -7120.82903863
  -exchange      EXHF   =         0.00000000
  -V(xc)+E(xc)   XCENC  =       -35.71800426
  PAW double counting   =      1582.11799337    -1433.72446643
  entropy T*S    EENTRO =        -0.00764145
  eigenvalues    EBANDS =      -371.76493939
  atomic energy  EATOM  =      1798.46990484
  Solvation  Ediel_sol  =         0.00000000
  ---------------------------------------------------
  free energy    TOTEN  =       -40.39401840 eV

  energy without entropy =      -40.38637695  energy(sigma->0) =      -40.39019768


--------------------------------------------------------------------------------------------------------




--------------------------------------- Iteration      1(   5)  ---------------------------------------


     EDDAV:  cpu time    0.2889: real time    0.2898
       DOS:  cpu time    0.0005: real time    0.0005
    --------------------------------------------
      LOOP:  cpu time    0.2894: real time    0.2903

 eigenvalue-minimisations  :   940
 total energy-change (2. order) :-0.4412408E-02  (-0.4412141E-02)
 number of electron      30.0000000 magnetization 
 augmentation part       30.0000000 magnetization 

 Free energy of the ion-electron system (eV)
  ---------------------------------------------------
  alpha Z        PSCENC =        27.48710403
  Ewald energy   TEWEN  =      5513.57506953
  -Hartree energ DENC   =     -7120.82903863
  -exchange      EXHF   =         0.00000000
  -V(xc)+E(xc)   XCENC  =       -35.71800426
  PAW double counting   =      1582.11799337    -1433.72446643
  entropy T*S    EENTRO =        -0.00764064
  eigenvalues    EBANDS =      -371.76935262
  atomic energy  EATOM  =      1798.46990484
  Solvation  Ediel_sol  =         0.00000000
  ---------------------------------------------------
  free energy    TOTEN  =       -40.39843081 eV

  energy without entropy =      -40.39079017  energy(sigma->0) =      -40.39461049


--------------------------------------------------------------------------------------------------------




--------------------------------------- Iteration      1(   6)  ---------------------------------------


     EDDAV:  cpu time    0.3519: real time    0.3522
       DOS:  cpu time    0.0005: real time    0.0005
    --------------------------------------------
      LOOP:  cpu time    0.3524: real time    0.3527

 eigenvalue-minimisations  :  1190
 total energy-change (2. order) :-0.9853459E-04  (-0.9851921E-04)
 number of electron      30.0000000 magnetization 
 augmentation part       30.0000000 magnetization 

 Free energy of the ion-electron system (eV)
  ---------------------------------------------------
  alpha Z        PSCENC =        27.48710403
  Ewald energy   TEWEN  =      5513.57506953
  -Hartree energ DENC   =     -7120.82903863
  -exchange      EXHF   =         0.00000000
  -V(xc)+E(xc)   XCENC  =       -35.71800426
  PAW double counting   =      1582.11799337    -1433.72446643
  entropy T*S    EENTRO =        -0.00764063
  eigenvalues    EBANDS =      -371.76945116
  atomic energy  EATOM  =      1798.46990484
  Solvation  Ediel_sol  =         0.00000000
  ---------------------------------------------------
  free energy    TOTEN  =       -40.39852934 eV

  energy without entropy =      -40.39088871  energy(sigma->0) =      -40.39470903


--------------------------------------------------------------------------------------------------------




--------------------------------------- Iteration      1(   7)  ---------------------------------------


     EDDAV:  cpu time    0.3294: real time    0.3297
       DOS:  cpu time    0.0005: real time    0.0005
    --------------------------------------------
      LOOP:  cpu time    0.3299: real time    0.3302

 eigenvalue-minimisations  :  1070
 total energy-change (2. order) :-0.2806220E-05  (-0.2806714E-05)
 number of electron      30.0000000 magnetization 
 augmentation part       30.0000000 magnetization 

 Free energy of the ion-electron system (eV)
  ---------------------------------------------------
  alpha Z        PSCENC =        27.48710403
  Ewald energy   TEWEN  =      5513.57506953
  -Hartree energ DENC   =     -7120.82903863
  -exchange      EXHF   =         0.00000000
  -V(xc)+E(xc)   XCENC  =       -35.71800426
  PAW double counting   =      1582.11799337    -1433.72446643
  entropy T*S    EENTRO =        -0.00764063
  eigenvalues    EBANDS =      -371.76945396
  atomic energy  EATOM  =      1798.46990484
  Solvation  Ediel_sol  =         0.00000000
  ---------------------------------------------------
  free energy    TOTEN  =       -40.39853215 eV

  energy without entropy =      -40.39089152  energy(sigma->0) =      -40.39471184


--------------------------------------------------------------------------------------------------------




--------------------------------------- Iteration      1(   8)  ---------------------------------------


     EDDAV:  cpu time    0.2917: real time    0.2919
       DOS:  cpu time    0.0005: real time    0.0005
    CHARGE:  cpu time    0.0217: real time    0.0217
    MIXING:  cpu time    0.0006: real time    0.0007
    --------------------------------------------
      LOOP:  cpu time    0.3146: real time    0.3149

 eigenvalue-minimisations  :   920
 total energy-change (2. order) :-0.7762378E-07  (-0.7686074E-07)
 number of electron      30.0000012 magnetization 
 augmentation part        2.8650082 magnetization 

 Broyden mixing:
  rms(total) = 0.11639E+01    rms(broyden)= 0.11623E+01
  rms(prec ) = 0.12531E+01
  weight for this iteration     100.00

 Free energy of the ion-electron system (eV)
  ---------------------------------------------------
  alpha Z        PSCENC =        27.48710403
  Ewald energy   TEWEN  =      5513.57506953
  -Hartree energ DENC   =     -7120.82903863
  -exchange      EXHF   =         0.00000000
  -V(xc)+E(xc)   XCENC  =       -35.71800426
  PAW double counting   =      1582.11799337    -1433.72446643
  entropy T*S    EENTRO =        -0.00764063
  eigenvalues    EBANDS =      -371.76945404
  atomic energy  EATOM  =      1798.46990484
  Solvation  Ediel_sol  =         0.00000000
  ---------------------------------------------------
  free energy    TOTEN  =       -40.39853223 eV

  energy without entropy =      -40.39089160  energy(sigma->0) =      -40.39471191


--------------------------------------------------------------------------------------------------------




--------------------------------------- Iteration      1(   9)  ---------------------------------------


    POTLOK:  cpu time    0.0054: real time    0.0054
    SETDIJ:  cpu time    0.0014: real time    0.0014
    EDDIAG:  cpu time    0.0629: real time    0.0630
  RMM-DIIS:  cpu time    0.1720: real time    0.1721
    ORTHCH:  cpu time    0.0072: real time    0.0072
       DOS:  cpu time    0.0005: real time    0.0005
    CHARGE:  cpu time    0.0215: real time    0.0215
    MIXING:  cpu time    0.0006: real time    0.0006
    --------------------------------------------
      LOOP:  cpu time    0.2714: real time    0.2717

 eigenvalue-minimisations  :   800
 total energy-change (2. order) : 0.3670940E+01  (-0.1560482E+01)
 number of electron      29.9999997 magnetization 
 augmentation part        2.5003061 magnetization 

 Broyden mixing:
  rms(total) = 0.51014E+00    rms(broyden)= 0.50853E+00
  rms(prec ) = 0.56109E+00
  weight for this iteration     100.00

 eigenvalues of (default mixing * dielectric matrix)
  average eigenvalue GAMMA=   0.7751
  0.7751

 Free energy of the ion-electron system (eV)
  ---------------------------------------------------
  alpha Z        PSCENC =        27.48710403
  Ewald energy   TEWEN  =      5513.57506953
  -Hartree energ DENC   =     -7173.96789873
  -exchange      EXHF   =         0.00000000
  -V(xc)+E(xc)   XCENC  =       -31.93551279
  PAW double counting   =      1792.22267578    -1644.77691980
  entropy T*S    EENTRO =        -0.01218838
  eigenvalues    EBANDS =      -317.78982625
  atomic energy  EATOM  =      1798.46990484
  Solvation  Ediel_sol  =         0.00000000
  ---------------------------------------------------
  free energy    TOTEN  =       -36.72759176 eV

  energy without entropy =      -36.71540338  energy(sigma->0) =      -36.72149757


--------------------------------------------------------------------------------------------------------




--------------------------------------- Iteration      1(  10)  ---------------------------------------


    POTLOK:  cpu time    0.0054: real time    0.0054
    SETDIJ:  cpu time    0.0014: real time    0.0014
    EDDIAG:  cpu time    0.0633: real time    0.0633
  RMM-DIIS:  cpu time    0.1748: real time    0.1750
    ORTHCH:  cpu time    0.0075: real time    0.0075
       DOS:  cpu time    0.0006: real time    0.0006
    CHARGE:  cpu time    0.0211: real time    0.0211
    MIXING:  cpu time    0.0005: real time    0.0005
    --------------------------------------------
      LOOP:  cpu time    0.2745: real time    0.2747

 eigenvalue-minimisations  :   800
 total energy-change (2. order) :-0.4019636E-01  (-0.1220264E+00)
 number of electron      30.0000010 magnetization 
 augmentation part        2.4722534 magnetization 

 Broyden mixing:
  rms(total) = 0.37395E+00    rms(broyden)= 0.37289E+00
  rms(prec ) = 0.39768E+00
  weight for this iteration     100.00

 eigenvalues of (default mixing * dielectric matrix)
  average eigenvalue GAMMA=   0.6841
  0.8725  0.4956

 Free energy of the ion-electron system (eV)
  ---------------------------------------------------
  alpha Z        PSCENC =        27.48710403
  Ewald energy   TEWEN  =      5513.57506953
  -Hartree energ DENC   =     -7168.87543164
  -exchange      EXHF   =         0.00000000
  -V(xc)+E(xc)   XCENC  =       -31.64192352
  PAW double counting   =      1854.80987687    -1707.31187599
  entropy T*S    EENTRO =        -0.00651645
  eigenvalues    EBANDS =      -323.27399580
  atomic energy  EATOM  =      1798.46990484
  Solvation  Ediel_sol  =         0.00000000
  ---------------------------------------------------
  free energy    TOTEN  =       -36.76778812 eV

  energy without entropy =      -36.76127167  energy(sigma->0) =      -36.76452990


--------------------------------------------------------------------------------------------------------




--------------------------------------- Iteration      1(  11)  ---------------------------------------


    POTLOK:  cpu time    0.0054: real time    0.0054
    SETDIJ:  cpu time    0.0014: real time    0.0014
    EDDIAG:  cpu time    0.0651: real time    0.0654
  RMM-DIIS:  cpu time    0.1719: real time    0.1720
    ORTHCH:  cpu time    0.0071: real time    0.0071
       DOS:  cpu time    0.0005: real time    0.0009
    CHARGE:  cpu time    0.0214: real time    0.0214
    MIXING:  cpu time    0.0005: real time    0.0005
    --------------------------------------------
      LOOP:  cpu time    0.2731: real time    0.2740

 eigenvalue-minimisations  :   800
 total energy-change (2. order) : 0.1886822E+00  (-0.1399367E-01)
 number of electron      30.0000009 magnetization 
 augmentation part        2.4720244 magnetization 

 Broyden mixing:
  rms(total) = 0.24339E+00    rms(broyden)= 0.24334E+00
  rms(prec ) = 0.25988E+00
  weight for this iteration     100.00

 eigenvalues of (default mixing * dielectric matrix)
  average eigenvalue GAMMA=   1.2323
  2.0211  1.0688  0.6070

 Free energy of the ion-electron system (eV)
  ---------------------------------------------------
  alpha Z        PSCENC =        27.48710403
  Ewald energy   TEWEN  =      5513.57506953
  -Hartree energ DENC   =     -7171.05124863
  -exchange      EXHF   =         0.00000000
  -V(xc)+E(xc)   XCENC  =       -31.54306387
  PAW double counting   =      1890.55531549    -1743.00811452
  entropy T*S    EENTRO =        -0.00887031
  eigenvalues    EBANDS =      -321.05520249
  atomic energy  EATOM  =      1798.46990484
  Solvation  Ediel_sol  =         0.00000000
  ---------------------------------------------------
  free energy    TOTEN  =       -36.57910592 eV

  energy without entropy =      -36.57023561  energy(sigma->0) =      -36.57467077


--------------------------------------------------------------------------------------------------------




--------------------------------------- Iteration      1(  12)  ---------------------------------------


    POTLOK:  cpu time    0.0054: real time    0.0060
    SETDIJ:  cpu time    0.0014: real time    0.0014
    EDDIAG:  cpu time    0.0625: real time    0.0626
  RMM-DIIS:  cpu time    0.1714: real time    0.1715
    ORTHCH:  cpu time    0.0071: real time    0.0071
       DOS:  cpu time    0.0005: real time    0.0005
    CHARGE:  cpu time    0.0215: real time    0.0215
    MIXING:  cpu time    0.0005: real time    0.0005
    --------------------------------------------
      LOOP:  cpu time    0.2702: real time    0.2711

 eigenvalue-minimisations  :   800
 total energy-change (2. order) :-0.1020557E+01  (-0.5027685E-01)
 number of electron      29.9999989 magnetization 
 augmentation part        2.5081318 magnetization 

 Broyden mixing:
  rms(total) = 0.97689E+00    rms(broyden)= 0.97442E+00
  rms(prec ) = 0.13522E+01
  weight for this iteration     100.00

 eigenvalues of (default mixing * dielectric matrix)
  average eigenvalue GAMMA=   1.0216
  2.3696  1.0395  0.5877  0.0898

 Free energy of the ion-electron system (eV)
  ---------------------------------------------------
  alpha Z        PSCENC =        27.48710403
  Ewald energy   TEWEN  =      5513.57506953
  -Hartree energ DENC   =     -7174.96067640
  -exchange      EXHF   =         0.00000000
  -V(xc)+E(xc)   XCENC  =       -31.34985295
  PAW double counting   =      1955.12683782    -1807.49142149
  entropy T*S    EENTRO =        -0.02530371
  eigenvalues    EBANDS =      -318.43132500
  atomic energy  EATOM  =      1798.46990484
  Solvation  Ediel_sol  =         0.00000000
  ---------------------------------------------------
  free energy    TOTEN  =       -37.59966332 eV

  energy without entropy =      -37.57435961  energy(sigma->0) =      -37.58701146


--------------------------------------------------------------------------------------------------------




--------------------------------------- Iteration      1(  13)  ---------------------------------------


    POTLOK:  cpu time    0.0052: real time    0.0052
    SETDIJ:  cpu time    0.0014: real time    0.0014
    EDDIAG:  cpu time    0.0630: real time    0.0630
  RMM-DIIS:  cpu time    0.1723: real time    0.1724
    ORTHCH:  cpu time    0.0071: real time    0.0071
       DOS:  cpu time    0.0005: real time    0.0005
    CHARGE:  cpu time    0.0228: real time    0.0228
    MIXING:  cpu time    0.0005: real time    0.0005
    --------------------------------------------
      LOOP:  cpu time    0.2728: real time    0.2730

 eigenvalue-minimisations  :   800
 total energy-change (2. order) : 0.8626950E+00  (-0.1414890E-01)
 number of electron      29.9999991 magnetization 
 augmentation part        2.4970503 magnetization 

 Broyden mixing:
  rms(total) = 0.53425E+00    rms(broyden)= 0.53327E+00
  rms(prec ) = 0.59738E+00
  weight for this iteration     100.00

 eigenvalues of (default mixing * dielectric matrix)
  average eigenvalue GAMMA=   0.8510
  2.3431  1.0389  0.4697  0.3188  0.0845

 Free energy of the ion-electron system (eV)
  ---------------------------------------------------
  alpha Z        PSCENC =        27.48710403
  Ewald energy   TEWEN  =      5513.57506953
  -Hartree energ DENC   =     -7176.31515561
  -exchange      EXHF   =         0.00000000
  -V(xc)+E(xc)   XCENC  =       -31.26112579
  PAW double counting   =      1974.97501672    -1827.31888560
  entropy T*S    EENTRO =        -0.01723524
  eigenvalues    EBANDS =      -316.33166123
  atomic energy  EATOM  =      1798.46990484
  Solvation  Ediel_sol  =         0.00000000
  ---------------------------------------------------
  free energy    TOTEN  =       -36.73696835 eV

  energy without entropy =      -36.71973311  energy(sigma->0) =      -36.72835073


--------------------------------------------------------------------------------------------------------




--------------------------------------- Iteration      1(  14)  ---------------------------------------


    POTLOK:  cpu time    0.0053: real time    0.0053
    SETDIJ:  cpu time    0.0014: real time    0.0014
    EDDIAG:  cpu time    0.0637: real time    0.0638
  RMM-DIIS:  cpu time    0.1791: real time    0.1792
    ORTHCH:  cpu time    0.0074: real time    0.0074
       DOS:  cpu time    0.0006: real time    0.0006
    CHARGE:  cpu time    0.0221: real time    0.0221
    MIXING:  cpu time    0.0006: real time    0.0006
    --------------------------------------------
      LOOP:  cpu time    0.2801: real time    0.2803

 eigenvalue-minimisations  :   800
 total energy-change (2. order) : 0.1665424E+00  (-0.4705598E-02)
 number of electron      29.9999995 magnetization 
 augmentation part        2.4939796 magnetization 

 Broyden mixing:
  rms(total) = 0.41138E+00    rms(broyden)= 0.41087E+00
  rms(prec ) = 0.54972E+00
  weight for this iteration     100.00

 eigenvalues of (default mixing * dielectric matrix)
  average eigenvalue GAMMA=   0.8478
  2.4268  1.0238  0.5439  0.5087  0.5087  0.0751

 Free energy of the ion-electron system (eV)
  ---------------------------------------------------
  alpha Z        PSCENC =        27.48710403
  Ewald energy   TEWEN  =      5513.57506953
  -Hartree energ DENC   =     -7174.71228733
  -exchange      EXHF   =         0.00000000
  -V(xc)+E(xc)   XCENC  =       -31.23118854
  PAW double counting   =      1976.35137317    -1828.69779857
  entropy T*S    EENTRO =        -0.02387600
  eigenvalues    EBANDS =      -317.78872710
  atomic energy  EATOM  =      1798.46990484
  Solvation  Ediel_sol  =         0.00000000
  ---------------------------------------------------
  free energy    TOTEN  =       -36.57042596 eV

  energy without entropy =      -36.54654996  energy(sigma->0) =      -36.55848796


--------------------------------------------------------------------------------------------------------




--------------------------------------- Iteration      1(  15)  ---------------------------------------


    POTLOK:  cpu time    0.0053: real time    0.0053
    SETDIJ:  cpu time    0.0014: real time    0.0014
    EDDIAG:  cpu time    0.0637: real time    0.0637
  RMM-DIIS:  cpu time    0.1734: real time    0.1735
    ORTHCH:  cpu time    0.0072: real time    0.0072
       DOS:  cpu time    0.0005: real time    0.0005
    CHARGE:  cpu time    0.0216: real time    0.0216
    MIXING:  cpu time    0.0006: real time    0.0006
    --------------------------------------------
      LOOP:  cpu time    0.2736: real time    0.2738

 eigenvalue-minimisations  :   800
 total energy-change (2. order) :-0.1906406E-01  (-0.5651449E-02)
 number of electron      29.9999999 magnetization 
 augmentation part        2.4932585 magnetization 

 Broyden mixing:
  rms(total) = 0.46978E+00    rms(broyden)= 0.46918E+00
  rms(prec ) = 0.68178E+00
  weight for this iteration     100.00

 eigenvalues of (default mixing * dielectric matrix)
  average eigenvalue GAMMA=   0.7542
  2.4893  1.0301  0.4548  0.4591  0.4591  0.3125  0.0742

 Free energy of the ion-electron system (eV)
  ---------------------------------------------------
  alpha Z        PSCENC =        27.48710403
  Ewald energy   TEWEN  =      5513.57506953
  -Hartree energ DENC   =     -7173.63945231
  -exchange      EXHF   =         0.00000000
  -V(xc)+E(xc)   XCENC  =       -31.18275776
  PAW double counting   =      1980.46003786    -1832.80488549
  entropy T*S    EENTRO =        -0.02527652
  eigenvalues    EBANDS =      -318.92923421
  atomic energy  EATOM  =      1798.46990484
  Solvation  Ediel_sol  =         0.00000000
  ---------------------------------------------------
  free energy    TOTEN  =       -36.58949002 eV

  energy without entropy =      -36.56421350  energy(sigma->0) =      -36.57685176


--------------------------------------------------------------------------------------------------------




--------------------------------------- Iteration      1(  16)  ---------------------------------------


    POTLOK:  cpu time    0.0053: real time    0.0053
    SETDIJ:  cpu time    0.0014: real time    0.0014
    EDDIAG:  cpu time    0.0633: real time    0.0633
  RMM-DIIS:  cpu time    0.1713: real time    0.1714
    ORTHCH:  cpu time    0.0071: real time    0.0071
       DOS:  cpu time    0.0005: real time    0.0005
    CHARGE:  cpu time    0.0212: real time    0.0213
    MIXING:  cpu time    0.0006: real time    0.0006
    --------------------------------------------
      LOOP:  cpu time    0.2707: real time    0.2709

 eigenvalue-minimisations  :   802
 total energy-change (2. order) :-0.1456095E-01  (-0.4418141E-03)
 number of electron      29.9999998 magnetization 
 augmentation part        2.4963334 magnetization 

 Broyden mixing:
  rms(total) = 0.50868E+00    rms(broyden)= 0.50862E+00
  rms(prec ) = 0.72429E+00
  weight for this iteration     100.00

 eigenvalues of (default mixing * dielectric matrix)
  average eigenvalue GAMMA=   0.7208
  2.4914  1.0320  0.4445  0.4445  0.4692  0.4692  0.3418  0.0738

 Free energy of the ion-electron system (eV)
  ---------------------------------------------------
  alpha Z        PSCENC =        27.48710403
  Ewald energy   TEWEN  =      5513.57506953
  -Hartree energ DENC   =     -7173.08449174
  -exchange      EXHF   =         0.00000000
  -V(xc)+E(xc)   XCENC  =       -31.20196178
  PAW double counting   =      1982.50465940    -1834.83999150
  entropy T*S    EENTRO =        -0.02585771
  eigenvalues    EBANDS =      -319.48848604
  atomic energy  EATOM  =      1798.46990484
  Solvation  Ediel_sol  =         0.00000000
  ---------------------------------------------------
  free energy    TOTEN  =       -36.60405097 eV

  energy without entropy =      -36.57819326  energy(sigma->0) =      -36.59112211


--------------------------------------------------------------------------------------------------------




--------------------------------------- Iteration      1(  17)  ---------------------------------------


    POTLOK:  cpu time    0.0052: real time    0.0052
    SETDIJ:  cpu time    0.0014: real time    0.0014
    EDDIAG:  cpu time    0.0632: real time    0.0632
  RMM-DIIS:  cpu time    0.1694: real time    0.1695
    ORTHCH:  cpu time    0.0072: real time    0.0072
       DOS:  cpu time    0.0005: real time    0.0005
    CHARGE:  cpu time    0.0215: real time    0.0215
    MIXING:  cpu time    0.0007: real time    0.0007
    --------------------------------------------
      LOOP:  cpu time    0.2691: real time    0.2692

 eigenvalue-minimisations  :   800
 total energy-change (2. order) : 0.3433736E-01  (-0.4751414E-03)
 number of electron      30.0000000 magnetization 
 augmentation part        2.4920980 magnetization 

 Broyden mixing:
  rms(total) = 0.39652E+00    rms(broyden)= 0.39642E+00
  rms(prec ) = 0.57555E+00
  weight for this iteration     100.00

 eigenvalues of (default mixing * dielectric matrix)
  average eigenvalue GAMMA=   0.8616
  2.5330  0.9159  0.9159  0.9837  0.9837  0.5574  0.5574  0.2332  0.0738

 Free energy of the ion-electron system (eV)
  ---------------------------------------------------
  alpha Z        PSCENC =        27.48710403
  Ewald energy   TEWEN  =      5513.57506953
  -Hartree energ DENC   =     -7173.41555091
  -exchange      EXHF   =         0.00000000
  -V(xc)+E(xc)   XCENC  =       -31.17424118
  PAW double counting   =      1982.25070072    -1834.59298837
  entropy T*S    EENTRO =        -0.02372103
  eigenvalues    EBANDS =      -319.14599124
  atomic energy  EATOM  =      1798.46990484
  Solvation  Ediel_sol  =         0.00000000
  ---------------------------------------------------
  free energy    TOTEN  =       -36.56971361 eV

  energy without entropy =      -36.54599258  energy(sigma->0) =      -36.55785309


--------------------------------------------------------------------------------------------------------




--------------------------------------- Iteration      1(  18)  ---------------------------------------


    POTLOK:  cpu time    0.0054: real time    0.0054
    SETDIJ:  cpu time    0.0014: real time    0.0014
    EDDIAG:  cpu time    0.0631: real time    0.0631
  RMM-DIIS:  cpu time    0.1763: real time    0.1765
    ORTHCH:  cpu time    0.0074: real time    0.0074
       DOS:  cpu time    0.0010: real time    0.0005
    CHARGE:  cpu time    0.0214: real time    0.0219
    MIXING:  cpu time    0.0007: real time    0.0007
    --------------------------------------------
      LOOP:  cpu time    0.2767: real time    0.2769

 eigenvalue-minimisations  :   800
 total energy-change (2. order) : 0.3002864E-01  (-0.1039433E-02)
 number of electron      30.0000006 magnetization 
 augmentation part        2.4800699 magnetization 

 Broyden mixing:
  rms(total) = 0.10349E+00    rms(broyden)= 0.99883E-01
  rms(prec ) = 0.11187E+00
  weight for this iteration     100.00

 eigenvalues of (default mixing * dielectric matrix)
  average eigenvalue GAMMA=   0.8396
  2.6461  1.7492  1.0845  0.6032  0.6032  0.5003  0.5003  0.4063  0.2291  0.0738

 Free energy of the ion-electron system (eV)
  ---------------------------------------------------
  alpha Z        PSCENC =        27.48710403
  Ewald energy   TEWEN  =      5513.57506953
  -Hartree energ DENC   =     -7174.89497311
  -exchange      EXHF   =         0.00000000
  -V(xc)+E(xc)   XCENC  =       -31.10613809
  PAW double counting   =      1980.86666380    -1833.23030974
  entropy T*S    EENTRO =        -0.01398538
  eigenvalues    EBANDS =      -317.69302085
  atomic energy  EATOM  =      1798.46990484
  Solvation  Ediel_sol  =         0.00000000
  ---------------------------------------------------
  free energy    TOTEN  =       -36.53968498 eV

  energy without entropy =      -36.52569959  energy(sigma->0) =      -36.53269228


--------------------------------------------------------------------------------------------------------




--------------------------------------- Iteration      1(  19)  ---------------------------------------


    POTLOK:  cpu time    0.0055: real time    0.0056
    SETDIJ:  cpu time    0.0015: real time    0.0015
    EDDIAG:  cpu time    0.0632: real time    0.0632
  RMM-DIIS:  cpu time    0.1704: real time    0.1705
    ORTHCH:  cpu time    0.0073: real time    0.0073
       DOS:  cpu time    0.0006: real time    0.0006
    CHARGE:  cpu time    0.0215: real time    0.0215
    MIXING:  cpu time    0.0008: real time    0.0008
    --------------------------------------------
      LOOP:  cpu time    0.2707: real time    0.2709

 eigenvalue-minimisations  :   800
 total energy-change (2. order) :-0.1055891E-01  (-0.2492649E-03)
 number of electron      30.0000006 magnetization 
 augmentation part        2.4781096 magnetization 

 Broyden mixing:
  rms(total) = 0.10692E+00    rms(broyden)= 0.10676E+00
  rms(prec ) = 0.13232E+00
  weight for this iteration     100.00

 eigenvalues of (default mixing * dielectric matrix)
  average eigenvalue GAMMA=   0.9019
  2.6300  2.2171  0.7807  0.7807  0.9984  0.5359  0.5359  0.5688  0.5688  0.2303
  0.0738

 Free energy of the ion-electron system (eV)
  ---------------------------------------------------
  alpha Z        PSCENC =        27.48710403
  Ewald energy   TEWEN  =      5513.57506953
  -Hartree energ DENC   =     -7175.35499079
  -exchange      EXHF   =         0.00000000
  -V(xc)+E(xc)   XCENC  =       -31.08740142
  PAW double counting   =      1980.35343990    -1832.72318380
  entropy T*S    EENTRO =        -0.01447858
  eigenvalues    EBANDS =      -317.25570760
  atomic energy  EATOM  =      1798.46990484
  Solvation  Ediel_sol  =         0.00000000
  ---------------------------------------------------
  free energy    TOTEN  =       -36.55024388 eV

  energy without entropy =      -36.53576530  energy(sigma->0) =      -36.54300459


--------------------------------------------------------------------------------------------------------




--------------------------------------- Iteration      1(  20)  ---------------------------------------


    POTLOK:  cpu time    0.0054: real time    0.0054
    SETDIJ:  cpu time    0.0014: real time    0.0014
    EDDIAG:  cpu time    0.0633: real time    0.0634
  RMM-DIIS:  cpu time    0.1713: real time    0.1714
    ORTHCH:  cpu time    0.0071: real time    0.0071
       DOS:  cpu time    0.0005: real time    0.0005
    CHARGE:  cpu time    0.0216: real time    0.0216
    MIXING:  cpu time    0.0008: real time    0.0008
    --------------------------------------------
      LOOP:  cpu time    0.2713: real time    0.2715

 eigenvalue-minimisations  :   800
 total energy-change (2. order) : 0.5342345E-02  (-0.1950397E-03)
 number of electron      30.0000006 magnetization 
 augmentation part        2.4791031 magnetization 

 Broyden mixing:
  rms(total) = 0.75817E-01    rms(broyden)= 0.75800E-01
  rms(prec ) = 0.93275E-01
  weight for this iteration     100.00

 eigenvalues of (default mixing * dielectric matrix)
  average eigenvalue GAMMA=   0.9051
  2.7212  2.1741  0.9003  0.9003  1.0540  0.5976  0.5976  0.5393  0.5362  0.5362
  0.2302  0.0738

 Free energy of the ion-electron system (eV)
  ---------------------------------------------------
  alpha Z        PSCENC =        27.48710403
  Ewald energy   TEWEN  =      5513.57506953
  -Hartree energ DENC   =     -7175.60346002
  -exchange      EXHF   =         0.00000000
  -V(xc)+E(xc)   XCENC  =       -31.10126171
  PAW double counting   =      1978.30660828    -1830.67539158
  entropy T*S    EENTRO =        -0.01425370
  eigenvalues    EBANDS =      -316.98922121
  atomic energy  EATOM  =      1798.46990484
  Solvation  Ediel_sol  =         0.00000000
  ---------------------------------------------------
  free energy    TOTEN  =       -36.54490154 eV

  energy without entropy =      -36.53064784  energy(sigma->0) =      -36.53777469


--------------------------------------------------------------------------------------------------------




--------------------------------------- Iteration      1(  21)  ---------------------------------------


    POTLOK:  cpu time    0.0055: real time    0.0055
    SETDIJ:  cpu time    0.0014: real time    0.0014
    EDDIAG:  cpu time    0.0633: real time    0.0633
  RMM-DIIS:  cpu time    0.1720: real time    0.1721
    ORTHCH:  cpu time    0.0072: real time    0.0072
       DOS:  cpu time    0.0006: real time    0.0006
    CHARGE:  cpu time    0.0226: real time    0.0226
    MIXING:  cpu time    0.0008: real time    0.0008
    --------------------------------------------
      LOOP:  cpu time    0.2733: real time    0.2735

 eigenvalue-minimisations  :   784
 total energy-change (2. order) : 0.1145782E-02  (-0.4401339E-04)
 number of electron      30.0000006 magnetization 
 augmentation part        2.4793384 magnetization 

 Broyden mixing:
  rms(total) = 0.55267E-01    rms(broyden)= 0.55251E-01
  rms(prec ) = 0.56928E-01
  weight for this iteration     100.00

 eigenvalues of (default mixing * dielectric matrix)
  average eigenvalue GAMMA=   0.9686
  2.6358  2.3052  1.0958  1.0958  0.7579  0.7579  0.9593  0.9593  0.5550  0.5550
  0.6109  0.2303  0.0738

 Free energy of the ion-electron system (eV)
  ---------------------------------------------------
  alpha Z        PSCENC =        27.48710403
  Ewald energy   TEWEN  =      5513.57506953
  -Hartree energ DENC   =     -7175.72505665
  -exchange      EXHF   =         0.00000000
  -V(xc)+E(xc)   XCENC  =       -31.10323121
  PAW double counting   =      1977.65036317    -1830.01965025
  entropy T*S    EENTRO =        -0.01363790
  eigenvalues    EBANDS =      -316.86462132
  atomic energy  EATOM  =      1798.46990484
  Solvation  Ediel_sol  =         0.00000000
  ---------------------------------------------------
  free energy    TOTEN  =       -36.54375576 eV

  energy without entropy =      -36.53011786  energy(sigma->0) =      -36.53693681


--------------------------------------------------------------------------------------------------------




--------------------------------------- Iteration      1(  22)  ---------------------------------------


    POTLOK:  cpu time    0.0054: real time    0.0055
    SETDIJ:  cpu time    0.0015: real time    0.0015
    EDDIAG:  cpu time    0.0669: real time    0.0669
  RMM-DIIS:  cpu time    0.1821: real time    0.1822
    ORTHCH:  cpu time    0.0077: real time    0.0077
       DOS:  cpu time    0.0006: real time    0.0010
    CHARGE:  cpu time    0.0236: real time    0.0236
    MIXING:  cpu time    0.0009: real time    0.0009
    --------------------------------------------
      LOOP:  cpu time    0.2887: real time    0.2894

 eigenvalue-minimisations  :   800
 total energy-change (2. order) : 0.1751833E-03  (-0.7990548E-04)
 number of electron      30.0000005 magnetization 
 augmentation part        2.4804051 magnetization 

 Broyden mixing:
  rms(total) = 0.36798E-01    rms(broyden)= 0.36575E-01
  rms(prec ) = 0.47632E-01
  weight for this iteration     100.00

 eigenvalues of (default mixing * dielectric matrix)
  average eigenvalue GAMMA=   0.9828
  2.7380  2.2038  1.4765  1.4765  1.0715  0.7835  0.7835  0.6027  0.5608  0.5608
  0.5990  0.5990  0.2303  0.0738

 Free energy of the ion-electron system (eV)
  ---------------------------------------------------
  alpha Z        PSCENC =        27.48710403
  Ewald energy   TEWEN  =      5513.57506953
  -Hartree energ DENC   =     -7175.77372506
  -exchange      EXHF   =         0.00000000
  -V(xc)+E(xc)   XCENC  =       -31.10745208
  PAW double counting   =      1977.01725304    -1829.38616185
  entropy T*S    EENTRO =        -0.01533286
  eigenvalues    EBANDS =      -316.81024017
  atomic energy  EATOM  =      1798.46990484
  Solvation  Ediel_sol  =         0.00000000
  ---------------------------------------------------
  free energy    TOTEN  =       -36.54358057 eV

  energy without entropy =      -36.52824772  energy(sigma->0) =      -36.53591415


--------------------------------------------------------------------------------------------------------




--------------------------------------- Iteration      1(  23)  ---------------------------------------


    POTLOK:  cpu time    0.0058: real time    0.0075
    SETDIJ:  cpu time    0.0015: real time    0.0015
    EDDIAG:  cpu time    0.0662: real time    0.0663
  RMM-DIIS:  cpu time    0.1733: real time    0.1734
    ORTHCH:  cpu time    0.0074: real time    0.0074
       DOS:  cpu time    0.0006: real time    0.0006
    CHARGE:  cpu time    0.0228: real time    0.0228
    MIXING:  cpu time    0.0009: real time    0.0009
    --------------------------------------------
      LOOP:  cpu time    0.2786: real time    0.2805

 eigenvalue-minimisations  :   749
 total energy-change (2. order) :-0.4101968E-03  (-0.1288560E-04)
 number of electron      30.0000004 magnetization 
 augmentation part        2.4806296 magnetization 

 Broyden mixing:
  rms(total) = 0.30192E-01    rms(broyden)= 0.30136E-01
  rms(prec ) = 0.40405E-01
  weight for this iteration     100.00

 eigenvalues of (default mixing * dielectric matrix)
  average eigenvalue GAMMA=   1.0985
  2.8817  2.1722  2.1722  2.2701  0.8771  0.8771  1.0079  0.6934  0.6934  0.8030
  0.5567  0.5567  0.6116  0.2303  0.0738

 Free energy of the ion-electron system (eV)
  ---------------------------------------------------
  alpha Z        PSCENC =        27.48710403
  Ewald energy   TEWEN  =      5513.57506953
  -Hartree energ DENC   =     -7175.64584573
  -exchange      EXHF   =         0.00000000
  -V(xc)+E(xc)   XCENC  =       -31.10823928
  PAW double counting   =      1977.06732370    -1829.43569712
  entropy T*S    EENTRO =        -0.01603462
  eigenvalues    EBANDS =      -316.93757613
  atomic energy  EATOM  =      1798.46990484
  Solvation  Ediel_sol  =         0.00000000
  ---------------------------------------------------
  free energy    TOTEN  =       -36.54399077 eV

  energy without entropy =      -36.52795615  energy(sigma->0) =      -36.53597346


--------------------------------------------------------------------------------------------------------




--------------------------------------- Iteration      1(  24)  ---------------------------------------


    POTLOK:  cpu time    0.0055: real time    0.0055
    SETDIJ:  cpu time    0.0015: real time    0.0015
    EDDIAG:  cpu time    0.0653: real time    0.0653
  RMM-DIIS:  cpu time    0.1691: real time    0.1693
    ORTHCH:  cpu time    0.0071: real time    0.0071
       DOS:  cpu time    0.0006: real time    0.0005
    CHARGE:  cpu time    0.0216: real time    0.0216
    MIXING:  cpu time    0.0009: real time    0.0009
    --------------------------------------------
      LOOP:  cpu time    0.2716: real time    0.2717

 eigenvalue-minimisations  :   752
 total energy-change (2. order) : 0.2905840E-03  (-0.1557474E-04)
 number of electron      30.0000004 magnetization 
 augmentation part        2.4805528 magnetization 

 Broyden mixing:
  rms(total) = 0.16618E-01    rms(broyden)= 0.16608E-01
  rms(prec ) = 0.21361E-01
  weight for this iteration     100.00

 eigenvalues of (default mixing * dielectric matrix)
  average eigenvalue GAMMA=   1.1022
  2.8325  2.2145  2.2145  2.3575  0.8908  0.8908  1.0235  0.8233  0.8233  0.7698
  0.7698  0.5580  0.5580  0.6055  0.2303  0.0738

 Free energy of the ion-electron system (eV)
  ---------------------------------------------------
  alpha Z        PSCENC =        27.48710403
  Ewald energy   TEWEN  =      5513.57506953
  -Hartree energ DENC   =     -7175.43247877
  -exchange      EXHF   =         0.00000000
  -V(xc)+E(xc)   XCENC  =       -31.10765455
  PAW double counting   =      1976.94189972    -1829.30972611
  entropy T*S    EENTRO =        -0.01635192
  eigenvalues    EBANDS =      -317.15146697
  atomic energy  EATOM  =      1798.46990484
  Solvation  Ediel_sol  =         0.00000000
  ---------------------------------------------------
  free energy    TOTEN  =       -36.54370019 eV

  energy without entropy =      -36.52734827  energy(sigma->0) =      -36.53552423


--------------------------------------------------------------------------------------------------------




--------------------------------------- Iteration      1(  25)  ---------------------------------------


    POTLOK:  cpu time    0.0053: real time    0.0053
    SETDIJ:  cpu time    0.0014: real time    0.0014
    EDDIAG:  cpu time    0.0628: real time    0.0629
  RMM-DIIS:  cpu time    0.1600: real time    0.1601
    ORTHCH:  cpu time    0.0071: real time    0.0071
       DOS:  cpu time    0.0006: real time    0.0006
    CHARGE:  cpu time    0.0220: real time    0.0220
    MIXING:  cpu time    0.0010: real time    0.0010
    --------------------------------------------
      LOOP:  cpu time    0.2602: real time    0.2604

 eigenvalue-minimisations  :   672
 total energy-change (2. order) :-0.7384631E-04  (-0.6596835E-05)
 number of electron      30.0000004 magnetization 
 augmentation part        2.4809751 magnetization 

 Broyden mixing:
  rms(total) = 0.16120E-01    rms(broyden)= 0.16077E-01
  rms(prec ) = 0.22972E-01
  weight for this iteration     100.00

 eigenvalues of (default mixing * dielectric matrix)
  average eigenvalue GAMMA=   1.1428
  2.5007  2.5007  2.8113  2.4920  0.8797  0.8797  0.9993  0.9993  0.9484  0.9484
  0.7185  0.7185  0.5579  0.5579  0.6105  0.2303  0.0738

 Free energy of the ion-electron system (eV)
  ---------------------------------------------------
  alpha Z        PSCENC =        27.48710403
  Ewald energy   TEWEN  =      5513.57506953
  -Hartree energ DENC   =     -7175.30642700
  -exchange      EXHF   =         0.00000000
  -V(xc)+E(xc)   XCENC  =       -31.11028482
  PAW double counting   =      1976.38819776    -1828.75514737
  entropy T*S    EENTRO =        -0.01709825
  eigenvalues    EBANDS =      -317.27509276
  atomic energy  EATOM  =      1798.46990484
  Solvation  Ediel_sol  =         0.00000000
  ---------------------------------------------------
  free energy    TOTEN  =       -36.54377403 eV

  energy without entropy =      -36.52667578  energy(sigma->0) =      -36.53522491


--------------------------------------------------------------------------------------------------------




--------------------------------------- Iteration      1(  26)  ---------------------------------------


    POTLOK:  cpu time    0.0055: real time    0.0055
    SETDIJ:  cpu time    0.0015: real time    0.0015
    EDDIAG:  cpu time    0.0661: real time    0.0661
  RMM-DIIS:  cpu time    0.1261: real time    0.1262
    ORTHCH:  cpu time    0.0073: real time    0.0073
       DOS:  cpu time    0.0005: real time    0.0005
    --------------------------------------------
      LOOP:  cpu time    0.2068: real time    0.2070

 eigenvalue-minimisations  :   529
 total energy-change (2. order) :-0.9367480E-05  (-0.2249420E-05)
 number of electron      30.0000004 magnetization 
 augmentation part        2.4809751 magnetization 

 Free energy of the ion-electron system (eV)
  ---------------------------------------------------
  alpha Z        PSCENC =        27.48710403
  Ewald energy   TEWEN  =      5513.57506953
  -Hartree energ DENC   =     -7175.29242817
  -exchange      EXHF   =         0.00000000
  -V(xc)+E(xc)   XCENC  =       -31.11159032
  PAW double counting   =      1976.21658823    -1828.58319862
  entropy T*S    EENTRO =        -0.01686094
  eigenvalues    EBANDS =      -317.28837197
  atomic energy  EATOM  =      1798.46990484
  Solvation  Ediel_sol  =         0.00000000
  ---------------------------------------------------
  free energy    TOTEN  =       -36.54378340 eV

  energy without entropy =      -36.52692246  energy(sigma->0) =      -36.53535293


--------------------------------------------------------------------------------------------------------




 average (electrostatic) potential at core
  the test charge radii are     1.0714  0.7215
  (the norm of the test charge is              1.0000)
       1 -43.8933       2 -43.4345       3 -43.4347       4 -78.5359       5 -78.5356
       6 -78.4097       7 -78.4107
 
 
 
 E-fermi :  -5.1044     XC(G=0):  -4.9249     alpha+bet : -4.6485


 k-point     1 :       0.0625    0.0625   -0.0000
  band No.  band energies     occupation 
      1     -22.4051      2.00000
      2     -21.8649      2.00000
      3     -20.7431      2.00000
      4     -20.6984      2.00000
      5      -9.2553      2.00000
      6      -7.7282      2.00000
      7      -6.5133      2.00000
      8      -6.4186      2.00000
      9      -6.1640      2.00000
     10      -5.8730      2.00000
     11      -5.4729      2.00000
     12      -5.2233      1.99923
     13      -5.0415      0.07527
     14      -4.9313      0.00000
     15      -4.7614      0.00000
     16      -4.7561      0.00000
     17       0.4102      0.00000
     18       1.9413      0.00000
     19       3.8461      0.00000
     20       3.8515      0.00000

 k-point     2 :       0.1875    0.0625   -0.0000
  band No.  band energies     occupation 
      1     -22.1192      2.00000
      2     -21.6652      2.00000
      3     -20.5817      2.00000
      4     -20.5556      2.00000
      5      -8.9390      2.00000
      6      -8.1190      2.00000
      7      -7.6154      2.00000
      8      -6.9315      2.00000
      9      -6.4275      2.00000
     10      -6.1421      2.00000
     11      -5.8208      2.00000
     12      -5.7307      2.00000
[...]
     15      -4.8276      0.00018
     16      -4.6917      0.00000
     17       1.5118      0.00000
     18       2.9970      0.00000
     19       4.2654      0.00000
     20       4.4321      0.00000

 k-point     8 :      -0.0625    0.0625    0.0000
  band No.  band energies     occupation 
      1     -22.2569      2.00000
      2     -21.6491      2.00000
      3     -20.6804      2.00000
      4     -20.5893      2.00000
      5      -9.0279      2.00000
      6      -7.4344      2.00000
      7      -6.0220      2.00000
      8      -5.8929      2.00000
      9      -5.8330      2.00000
     10      -5.4800      2.00000
     11      -5.3519      2.00000
     12      -5.0145      1.87515
     13      -4.7945      0.00000
     14      -4.7498      0.00000
     15      -4.6532      0.00000
     16      -4.5737      0.00000
     17       0.5935      0.00000
     18       2.2027      0.00000
     19       3.7055      0.00000
     20       3.7440      0.00000

 k-point     9 :       0.1875    0.1875    0.0000
  band No.  band energies     occupation 
      1     -21.5874      2.00000
      2     -21.1697      2.00000
      3     -20.3606      2.00000
      4     -20.2725      2.00000
      5      -8.5664      2.00000
      6      -8.3418      2.00000
      7      -7.8497      2.00000
      8      -6.9518      2.00000
      9      -6.7584      2.00000
     10      -6.4003      2.00000
     11      -6.0653      2.00000
     12      -5.8368      2.00000
     13      -5.3059      2.00000
     14      -5.1644      2.00000
     15      -5.0632      1.99641
     16      -4.9557      0.89756
     17       3.3990      0.00000
     18       4.5893      0.00000
     19       5.7050      0.00000
     20       5.9428      0.00000

 k-point    10 :       0.3125    0.1875    0.0000
  band No.  band energies     occupation 
      1     -21.2841      2.00000
      2     -20.9877      2.00000
      3     -20.2462      2.00000
      4     -20.1326      2.00000
      5      -8.9847      2.00000
      6      -8.6269      2.00000
      7      -7.7727      2.00000
      8      -7.4352      2.00000
      9      -7.0955      2.00000
     10      -6.7896      2.00000
     11      -6.2547      2.00000
     12      -6.0693      2.00000
     13      -5.5842      2.00000
     14      -5.4339      2.00000
     15      -5.0712      1.99830
     16      -5.0027      1.76950
     17       4.3852      0.00000
     18       5.2769      0.00000
     19       5.8768      0.00000
     20       6.5173      0.00000

 k-point    11 :       0.4375    0.1875   -0.0000
  band No.  band energies     occupation 
      1     -21.2050      2.00000
      2     -20.9478      2.00000
      3     -20.2194      2.00000
      4     -20.0982      2.00000
      5      -9.1115      2.00000
      6      -8.6846      2.00000
      7      -7.7236      2.00000
      8      -7.5808      2.00000
      9      -7.1135      2.00000
     10      -6.9192      2.00000
     11      -6.3268      2.00000
     12      -6.0831      2.00000
     13      -5.6462      2.00000
     14      -5.5027      2.00000
     15      -5.0573      1.99397
     16      -5.0219      1.91879
     17       4.5276      0.00000
     18       5.5304      0.00000
     19       5.8643      0.00000
     20       6.4262      0.00000

 k-point    12 :      -0.4375    0.1875    0.0000
  band No.  band energies     occupation 
      1     -21.4208      2.00000
      2     -21.0652      2.00000
      3     -20.2955      2.00000
      4     -20.1943      2.00000
      5      -8.7705      2.00000
      6      -8.5048      2.00000
      7      -7.8501      2.00000
      8      -7.1839      2.00000
      9      -6.9975      2.00000
     10      -6.6022      2.00000
     11      -6.1717      2.00000
     12      -5.9787      2.00000
     13      -5.4611      2.00000
     14      -5.3230      2.00000
     15      -5.0653      1.99703
     16      -4.9875      1.55862
     17       3.9918      0.00000
     18       4.9709      0.00000
     19       5.9504      0.00000
     20       6.2880      0.00000

 k-point    13 :      -0.3125    0.1875    0.0000
  band No.  band energies     occupation 
      1     -21.7565      2.00000
      2     -21.2835      2.00000
      3     -20.4323      2.00000
      4     -20.3530      2.00000
      5      -8.5467      2.00000
      6      -8.1332      2.00000
      7      -7.6338      2.00000
      8      -6.7847      2.00000
      9      -6.4417      2.00000
     10      -6.1841      2.00000
     11      -5.9018      2.00000
     12      -5.7020      2.00000
     13      -5.1508      2.00000
     14      -5.0728      1.99854
     15      -4.9922      1.63375
     16      -4.8929      0.05680
     17       2.7580      0.00000
     18       4.0855      0.00000
     19       5.2057      0.00000
     20       5.4595      0.00000

 k-point    14 :      -0.1875    0.1875    0.0000
  band No.  band energies     occupation 
      1     -22.0138      2.00000
      2     -21.4671      2.00000
      3     -20.5532      2.00000
      4     -20.4751      2.00000
      5      -8.7585      2.00000
      6      -7.6967      2.00000
      7      -6.9959      2.00000
      8      -6.4900      2.00000
      9      -6.0847      2.00000
     10      -5.6590      2.00000
     11      -5.6253      2.00000
     12      -5.4343      2.00000
     13      -5.1642      2.00000
     14      -4.8735      0.01414
     15      -4.8621      0.00550
     16      -4.7100      0.00000
     17       1.7444      0.00000
     18       3.2008      0.00000
     19       4.4316      0.00000
     20       4.6190      0.00000

 k-point    15 :       0.3125    0.3125    0.0000
  band No.  band energies     occupation 
      1     -21.1458      2.00000
      2     -20.9090      2.00000
      3     -20.1915      2.00000
      4     -20.0660      2.00000
      5      -8.6768      2.00000
      6      -8.4503      2.00000
      7      -8.2552      2.00000
      8      -7.6490      2.00000
      9      -7.3023      2.00000
     10      -7.0908      2.00000
     11      -6.3616      2.00000
     12      -6.2031      2.00000
     13      -5.8758      2.00000
     14      -5.7370      2.00000
     15      -5.0728      1.99855
     16      -4.9876      1.56068
     17       5.5115      0.00000
     18       5.6487      0.00000
     19       5.9929      0.00000
     20       7.0139      0.00000

 k-point    16 :       0.4375    0.3125   -0.0000
  band No.  band energies     occupation 
      1     -21.1947      2.00000
      2     -20.9364      2.00000
      3     -20.2109      2.00000
      4     -20.0896      2.00000
      5      -8.8789      2.00000
      6      -8.5548      2.00000
      7      -7.9318      2.00000
      8      -7.4867      2.00000
      9      -7.3526      2.00000
     10      -6.9907      2.00000
     11      -6.3224      2.00000
     12      -6.0826      2.00000
     13      -5.8406      2.00000
     14      -5.6120      2.00000
     15      -5.0593      1.99489
     16      -5.0035      1.77878
     17       5.0001      0.00000
     18       5.4944      0.00000
     19       6.1347      0.00000
     20       6.6931      0.00000

 k-point    17 :      -0.4375    0.3125   -0.0000
  band No.  band energies     occupation 
      1     -21.3987      2.00000
      2     -21.0557      2.00000
      3     -20.2909      2.00000
      4     -20.1872      2.00000
      5      -8.9721      2.00000
      6      -8.6215      2.00000
      7      -7.8231      2.00000
      8      -7.2948      2.00000
      9      -6.8012      2.00000
     10      -6.5068      2.00000
     11      -6.2134      2.00000
     12      -5.9921      2.00000
     13      -5.3363      2.00000
     14      -5.2066      2.00000
     15      -5.1107      1.99998
     16      -4.9826      1.47221
     17       3.7940      0.00000
     18       4.9252      0.00000
     19       5.5617      0.00000
     20       6.3256      0.00000

 k-point    18 :      -0.3125    0.3125    0.0000
  band No.  band energies     occupation 
      1     -21.6300      2.00000
      2     -21.2004      2.00000
      3     -20.3812      2.00000
      4     -20.2954      2.00000
      5      -8.6707      2.00000
      6      -8.4657      2.00000
      7      -7.8143      2.00000
      8      -7.0496      2.00000
      9      -6.3371      2.00000
     10      -6.3051      2.00000
     11      -5.8982      2.00000
     12      -5.8956      2.00000
     13      -5.1593      2.00000
     14      -5.0436      1.98155
     15      -4.9750      1.32375
     16      -4.8956      0.06728
     17       2.9847      0.00000
     18       4.2648      0.00000
     19       5.3682      0.00000
     20       5.5894      0.00000

 k-point    19 :       0.4375    0.4375    0.0000
  band No.  band energies     occupation 
      1     -21.2279      2.00000
      2     -20.9678      2.00000
      3     -20.2341      2.00000
      4     -20.1140      2.00000
      5      -9.3083      2.00000
      6      -8.8369      2.00000
      7      -7.7600      2.00000
      8      -7.5198      2.00000
      9      -6.8918      2.00000
     10      -6.6294      2.00000
     11      -6.2982      2.00000
     12      -6.1143      2.00000
     13      -5.4190      2.00000
     14      -5.3011      2.00000
     15      -5.0879      1.99969
     16      -5.0280      1.94466
     17       4.0384      0.00000
     18       5.1344      0.00000
     19       5.6583      0.00000
     20       6.2907      0.00000

 k-point    20 :      -0.4375    0.4375    0.0000
  band No.  band energies     occupation 
      1     -21.3110      2.00000
      2     -21.0163      2.00000
      3     -20.2681      2.00000
      4     -20.1549      2.00000
      5      -9.3553      2.00000
      6      -8.8868      2.00000
      7      -7.8593      2.00000
      8      -7.4605      2.00000
      9      -6.5047      2.00000
     10      -6.4831      2.00000
     11      -6.1068      2.00000
     12      -6.0589      2.00000
     13      -5.1936      2.00000
     14      -5.1605      2.00000
     15      -5.0224      1.92109
     16      -5.0170      1.89156
     17       3.5123      0.00000
     18       4.5963      0.00000
     19       5.4075      0.00000
     20       6.2169      0.00000


--------------------------------------------------------------------------------------------------------


 soft charge-density along one line, spin component           1
         0         1         2         3         4         5         6         7         8         9
 total charge-density along one line
 
 pseudopotential strength for first ion, spin component:           1
  3.026   9.778   0.001   0.001   0.001   0.002   0.002   0.002
  9.778  31.363   0.003   0.003   0.003   0.006   0.006   0.006
  0.001   0.003   6.833  -0.000  -0.000  10.325  -0.000  -0.000
  0.001   0.003  -0.000   6.833  -0.000  -0.000  10.325  -0.000
  0.001   0.003  -0.000  -0.000   6.833  -0.000  -0.000  10.325
  0.002   0.006  10.325  -0.000  -0.000  14.634   0.000   0.000
  0.002   0.006  -0.000  10.325  -0.000   0.000  14.634   0.000
  0.002   0.006  -0.000  -0.000  10.325   0.000   0.000  14.634
  0.000   0.000   0.002  -0.000   0.002   0.002  -0.000   0.002
  0.000   0.000   0.002   0.002  -0.000   0.002   0.002  -0.000
 -0.000  -0.000  -0.001   0.002  -0.001  -0.001   0.003  -0.001
  0.000   0.000  -0.000   0.002   0.002  -0.000   0.002   0.002
 -0.000  -0.000  -0.002   0.000   0.002  -0.002   0.000   0.002
 total augmentation occupancy for first ion, spin component:           1
  1.018  -0.047  -0.006  -0.006  -0.006   0.001   0.001   0.001  -0.003  -0.003   0.000  -0.003   0.000
 -0.047   0.003   0.000   0.000   0.000  -0.000  -0.000  -0.000   0.000   0.000  -0.000   0.000  -0.000
 -0.006   0.000   0.118  -0.002  -0.002  -0.012   0.000   0.000   0.001   0.001   0.002  -0.000   0.003
 -0.006   0.000  -0.002   0.118  -0.002   0.000  -0.012   0.000  -0.000   0.001  -0.004   0.001   0.000
 -0.006   0.000  -0.002  -0.002   0.118   0.000   0.000  -0.012   0.001  -0.000   0.002   0.001  -0.003
  0.001  -0.000  -0.012   0.000   0.000   0.001  -0.000  -0.000  -0.000  -0.000  -0.000   0.000  -0.000
  0.001  -0.000   0.000  -0.012   0.000  -0.000   0.001  -0.000   0.000  -0.000   0.000  -0.000  -0.000
  0.001  -0.000   0.000   0.000  -0.012  -0.000  -0.000   0.001  -0.000   0.000  -0.000  -0.000   0.000
 -0.003   0.000   0.001  -0.000   0.001  -0.000   0.000  -0.000   0.013  -0.000   0.000  -0.000   0.000
 -0.003   0.000   0.001   0.001  -0.000  -0.000  -0.000   0.000  -0.000   0.013  -0.000  -0.000   0.000
  0.000  -0.000   0.002  -0.004   0.002  -0.000   0.000  -0.000   0.000  -0.000   0.051  -0.000  -0.000
 -0.003   0.000  -0.000   0.001   0.001   0.000  -0.000  -0.000  -0.000  -0.000  -0.000   0.013  -0.000
  0.000  -0.000   0.003   0.000  -0.003  -0.000  -0.000   0.000   0.000   0.000  -0.000  -0.000   0.051


------------------------ aborting loop because EDIFF is reached ----------------------------------------


    CHARGE:  cpu time    0.0216: real time    0.0216
    FORLOC:  cpu time    0.0006: real time    0.0006
    FORNL :  cpu time    0.0626: real time    0.0626
    STRESS:  cpu time    0.1884: real time    0.1885
    FORCOR:  cpu time    0.0055: real time    0.0055
    FORHAR:  cpu time    0.0017: real time    0.0017
    MIXING:  cpu time    0.0003: real time    0.0003
    OFIELD:  cpu time    0.0000: real time    0.0000

  FORCE on cell =-STRESS in cart. coord.  units (eV):
  Direction    XX          YY          ZZ          XY          YZ          ZX
  --------------------------------------------------------------------------------------
  Alpha Z    27.48710    27.48710    27.48710
  Ewald    1918.26458  1918.26034  1918.26011 -4737.99756 -4737.99978 -4737.99749
  Hartree  2474.34976  2474.34541  2474.34545 -4578.20768 -4578.20985 -4578.20769
  E(xc)    -137.11282  -137.11283  -137.11282     0.03602     0.03602     0.03602
  Local   -4784.07459 -4784.06560 -4784.06581  9313.57449  9313.57899  9313.57473
  n-local   -74.48721   -76.05988   -77.48131    -0.30688    -1.20343    -0.80520
  augment    26.08753    26.08754    26.08753     0.14478     0.14477     0.14478
  Kinetic   548.00319   551.47827   554.37869     3.61063     0.87432     2.41348
  Fock        0.00000     0.00000     0.00000     0.00000     0.00000     0.00000
  -------------------------------------------------------------------------------------
  Total       0.27895     0.27895     0.27895    -0.92216    -0.92216    -0.92216
  in kB       2.55699     2.55699     2.55699    -8.45305    -8.45305    -8.45305
  external pressure =        2.56 kB  Pullay stress =        0.00 kB


 VOLUME and BASIS-vectors are now :
 -----------------------------------------------------------------------------
  energy-cutoff  :      450.00
  volume of cell :      174.79
      direct lattice vectors                 reciprocal lattice vectors
     2.124436000 -2.124435000  0.000000000     0.313808828 -0.156904414 -0.156904414
     0.000000000  2.124436000 -2.124436000     0.156904340  0.156904414 -0.313808754
    12.909125000 12.909125000 12.909125000     0.025821520  0.025821532  0.025821532

  length of vectors
     3.004405496  3.004406204 22.359260381     0.384335753  0.384335662  0.044724199


 FORCES acting on ions
    electron-ion (+dipol)            ewald-force                    non-local-force                 convergence-correction
 -----------------------------------------------------------------------------------------------
   -.969E+00 -.969E+00 -.969E+00   0.599E+00 0.599E+00 0.599E+00   0.220E+00 0.220E+00 0.220E+00   0.540E-01 0.540E-01 0.540E-01
   -.127E+03 -.127E+03 -.127E+03   0.128E+03 0.128E+03 0.128E+03   0.108E+00 0.108E+00 0.108E+00   0.418E-01 0.418E-01 0.418E-01
   0.132E+03 0.132E+03 0.132E+03   -.133E+03 -.133E+03 -.133E+03   0.133E+01 0.133E+01 0.133E+01   0.316E-01 0.316E-01 0.316E-01
   0.555E+03 0.555E+03 0.555E+03   -.564E+03 -.564E+03 -.564E+03   0.858E+01 0.858E+01 0.858E+01   0.386E-01 0.386E-01 0.386E-01
   -.550E+03 -.550E+03 -.550E+03   0.560E+03 0.560E+03 0.560E+03   -.113E+02 -.113E+02 -.113E+02   0.421E-01 0.421E-01 0.421E-01
   -.195E+03 -.195E+03 -.195E+03   0.195E+03 0.195E+03 0.195E+03   -.226E+00 -.226E+00 -.226E+00   0.163E+00 0.163E+00 0.163E+00
   0.185E+03 0.185E+03 0.185E+03   -.186E+03 -.186E+03 -.186E+03   0.132E+01 0.132E+01 0.132E+01   0.151E+00 0.151E+00 0.151E+00
 -----------------------------------------------------------------------------------------------
   -.564E+00 -.564E+00 -.564E+00   0.568E-13 0.114E-12 -.853E-13   0.292E-01 0.292E-01 0.292E-01   0.522E+00 0.522E+00 0.522E+00
 
 
 POSITION                                       TOTAL-FORCE (eV/Angst)
 -----------------------------------------------------------------------------------
      2.70179      2.70179      2.70179        -0.093658     -0.093658     -0.093658
      4.82622      4.82622      2.70178         0.696232      0.696232      0.696232
      2.65980      0.53537      0.53537         0.004427      0.004427      0.004427
      0.71805      0.71805      0.71805         0.003786      0.003786      0.003786
      4.82622      4.82622      4.82622        -0.574952     -0.574952     -0.574952
      4.82622      2.70179      2.70179        -0.033475     -0.033475     -0.033475
      2.73963      2.73963      0.61519        -0.002360     -0.002360     -0.002360
 -----------------------------------------------------------------------------------
    total drift:                               -0.012462     -0.012484     -0.012458


--------------------------------------------------------------------------------------------------------



  FREE ENERGIE OF THE ION-ELECTRON SYSTEM (eV)
  ---------------------------------------------------
  free  energy   TOTEN  =       -36.72601570 eV

  energy  without entropy=      -36.70711252  energy(sigma->0) =      -36.71656411
 
 d Force =-0.2194145E-07[-0.562E-07, 0.123E-07]  d Energy = 0.2166039E-05-0.219E-05
 d Force = 0.8866137E-02[ 0.887E-02, 0.887E-02]  d Ewald  = 0.8866137E-02-0.728E-11


--------------------------------------------------------------------------------------------------------


    POTLOK:  cpu time    0.0066: real time    0.0066


--------------------------------------------------------------------------------------------------------


 stress matrix after NEB project (eV)
      0.27895     -0.92216     -0.92216
     -0.92216      0.27895     -0.92216
     -0.92216     -0.92216      0.27895
  FORCES: max atom, RMS     0.007668    0.004115
  FORCE total and by dimension    0.010887    0.004427
  Stress total and by dimension    2.309926    0.922164


--------------------------------------------------------------------------------------------------------


  
 reached required accuracy - stopping structural energy minimisation
     LOOP+:  cpu time    1.9721: real time    1.9735
    4ORBIT:  cpu time    0.0000: real time    0.0000

 total amount of memory used by VASP MPI-rank0    35135. kBytes
=======================================================================

   base      :      30000. kBytes
   nonlr-proj:        847. kBytes
   fftplans  :       1229. kBytes
   grid      :       1789. kBytes
   one-center:         16. kBytes
   wavefun   :       1254. kBytes
 
  
  
 General timing and accounting informations for this job:
 ========================================================
  
                  Total CPU time used (sec):       97.828
                            User time (sec):       97.429
                          System time (sec):        0.400
                         Elapsed time (sec):       97.905
  
                   Maximum memory used (kb):      144596.
                   Average memory used (kb):           0.
  
                          Minor page faults:        58493
                          Major page faults:            0
                 Voluntary context switches:          429
