       N       E                     dE             d eps       ncg     rms          rms(c)
DAV:   1     0.533857173891E+03    0.53386E+03   -0.44824E+04  2780   0.134E+03
DAV:   2    -0.940959770613E+02   -0.62795E+03   -0.59580E+03  3648   0.255E+02
DAV:   3    -0.159425062142E+03   -0.65329E+02   -0.64953E+02  3248   0.889E+01
DAV:   4    -0.160332404937E+03   -0.90734E+00   -0.90599E+00  3208   0.114E+01
DAV:   5    -0.160347123124E+03   -0.14718E-01   -0.14711E-01  3320   0.141E+00    0.231E+01
DAV:   6    -0.144208164366E+03    0.16139E+02   -0.94794E+01  3138   0.300E+01    0.793E+00
DAV:   7    -0.144060562037E+03    0.14760E+00   -0.19611E+00  3052   0.529E+00    0.480E+00
DAV:   8    -0.143980010588E+03    0.80551E-01   -0.77474E-01  3162   0.409E+00    0.965E-01
DAV:   9    -0.143929879395E+03    0.50131E-01   -0.22738E-01  3092   0.133E+00    0.571E-01
DAV:  10    -0.143927698480E+03    0.21809E-02   -0.34269E-02  3160   0.729E-01    0.281E-01
DAV:  11    -0.143928876105E+03   -0.11776E-02   -0.66679E-03  3124   0.319E-01    0.164E-01
DAV:  12    -0.143928961491E+03   -0.85386E-04   -0.11126E-03  3808   0.233E-01    0.849E-02
DAV:  13    -0.143928890688E+03    0.70804E-04   -0.10723E-03  3172   0.168E-01    0.300E-02
DAV:  14    -0.143928853601E+03    0.37087E-04   -0.16845E-04  3100   0.709E-02    0.141E-02
DAV:  15    -0.143928811326E+03    0.42275E-04   -0.36411E-05  2820   0.532E-02    0.914E-03
DAV:  16    -0.143928750834E+03    0.60491E-04   -0.20314E-05  2230   0.832E-02    0.112E-02
DAV:  17    -0.143928658414E+03    0.92420E-04   -0.11275E-04  3492   0.174E-01    0.851E-03
DAV:  18    -0.143928598949E+03    0.59466E-04   -0.37081E-04  4276   0.341E-01    0.110E-02
DAV:  19    -0.143928642715E+03   -0.43767E-04   -0.38749E-04  3118   0.140E-01    0.860E-03
DAV:  20    -0.143928654616E+03   -0.11900E-04   -0.15116E-04  2796   0.419E-02    0.174E-02
DAV:  21    -0.143928654261E+03    0.35509E-06   -0.44022E-06  1632   0.919E-03
   1 F= -.14392865E+03 E0= -.14392577E+03  d E =-.143929E+03
       N       E                     dE             d eps       ncg     rms          rms(c)
DAV:   1    -0.143930298797E+03   -0.16442E-02   -0.14599E-02  2802   0.511E-01    0.247E-02
DAV:   2    -0.143930286509E+03    0.12287E-04   -0.54945E-04  3164   0.988E-02    0.236E-02
DAV:   3    -0.143930261763E+03    0.24746E-04   -0.48525E-05  2982   0.402E-02    0.162E-02
DAV:   4    -0.143930231109E+03    0.30654E-04   -0.56794E-05  2920   0.449E-02    0.829E-03
DAV:   5    -0.143930211024E+03    0.20086E-04   -0.27559E-05  2262   0.403E-02    0.792E-03
DAV:   6    -0.143930201125E+03    0.98983E-05   -0.23213E-05  2348   0.306E-02
   2 F= -.14393020E+03 E0= -.14392735E+03  d E =-.154686E-02
       N       E                     dE             d eps       ncg     rms          rms(c)
DAV:   1    -0.143931545087E+03   -0.13341E-02   -0.50311E-02  2790   0.954E-01    0.471E-02
DAV:   2    -0.143931532056E+03    0.13032E-04   -0.24403E-03  3166   0.200E-01    0.479E-02
DAV:   3    -0.143931439741E+03    0.92314E-04   -0.15235E-04  3206   0.683E-02    0.328E-02
DAV:   4    -0.143931287697E+03    0.15204E-03   -0.36174E-04  3160   0.113E-01    0.197E-02
DAV:   5    -0.143931213204E+03    0.74493E-04   -0.16461E-04  3294   0.722E-02    0.248E-02
DAV:   6    -0.143931163074E+03    0.50130E-04   -0.82697E-05  3112   0.434E-02    0.879E-03
DAV:   7    -0.143931101034E+03    0.62040E-04   -0.40559E-05  2438   0.675E-02    0.959E-03
DAV:   8    -0.143931060220E+03    0.40815E-04   -0.48924E-05  2914   0.733E-02    0.845E-03
DAV:   9    -0.143931014359E+03    0.45861E-04   -0.64848E-05  3130   0.131E-01    0.553E-03
DAV:  10    -0.143931004692E+03    0.96672E-05   -0.78161E-05  2858   0.717E-02
   3 F= -.14393100E+03 E0= -.14392825E+03  d E =-.235043E-02
       N       E                     dE             d eps       ncg     rms          rms(c)
DAV:   1    -0.143931638833E+03   -0.62447E-03   -0.13566E-01  2792   0.156E+00    0.470E-02
DAV:   2    -0.143931907456E+03   -0.26862E-03   -0.30844E-03  3058   0.216E-01    0.270E-02
DAV:   3    -0.143931886702E+03    0.20754E-04   -0.53586E-05  3100   0.378E-02    0.182E-02
DAV:   4    -0.143931871332E+03    0.15370E-04   -0.19547E-05  2032   0.306E-02    0.989E-03
DAV:   5    -0.143931859791E+03    0.11541E-04   -0.25048E-05  2266   0.398E-02    0.519E-03
DAV:   6    -0.143931858028E+03    0.17627E-05   -0.16181E-05  1910   0.234E-02
   4 F= -.14393186E+03 E0= -.14392915E+03  d E =-.853336E-03
       N       E                     dE             d eps       ncg     rms          rms(c)
DAV:   1    -0.143931142606E+03    0.71719E-03   -0.12236E+00  2772   0.468E+00    0.141E-01
DAV:   2    -0.143933670971E+03   -0.25284E-02   -0.28286E-02  3024   0.641E-01    0.837E-02
DAV:   3    -0.143933490327E+03    0.18064E-03   -0.31375E-04  3232   0.998E-02    0.567E-02
DAV:   4    -0.143933359374E+03    0.13095E-03   -0.32718E-04  3190   0.113E-01    0.234E-02
DAV:   5    -0.143933326022E+03    0.33352E-04   -0.21009E-04  3168   0.809E-02    0.162E-02
DAV:   6    -0.143933318994E+03    0.70275E-05   -0.65631E-05  2936   0.384E-02
   5 F= -.14393332E+03 E0= -.14393077E+03  d E =-.231430E-02
       N       E                     dE             d eps       ncg     rms          rms(c)
DAV:   1    -0.143932930579E+03    0.39544E-03   -0.27891E-01  2772   0.223E+00    0.685E-02
DAV:   2    -0.143933478162E+03   -0.54758E-03   -0.63840E-03  3042   0.307E-01    0.403E-02
DAV:   3    -0.143933425736E+03    0.52426E-04   -0.96557E-05  3222   0.587E-02    0.279E-02
DAV:   4    -0.143933383671E+03    0.42066E-04   -0.63615E-05  3046   0.556E-02    0.139E-02
DAV:   5    -0.143933357249E+03    0.26422E-04   -0.50603E-05  2928   0.583E-02    0.741E-03
DAV:   6    -0.143933353107E+03    0.41415E-05   -0.44560E-05  2846   0.349E-02
   6 F= -.14393335E+03 E0= -.14393088E+03  d E =-.234842E-02
       N       E                     dE             d eps       ncg     rms          rms(c)
DAV:   1    -0.143934238230E+03   -0.88098E-03   -0.40151E-01  2900   0.268E+00    0.843E-02
DAV:   2    -0.143935073655E+03   -0.83542E-03   -0.96072E-03  3016   0.375E-01    0.486E-02
DAV:   3    -0.143935015859E+03    0.57795E-04   -0.17604E-04  3190   0.583E-02    0.354E-02
DAV:   4    -0.143934985909E+03    0.29950E-04   -0.87231E-05  3114   0.436E-02    0.190E-02
DAV:   5    -0.143934961830E+03    0.24080E-04   -0.55966E-05  2994   0.409E-02    0.822E-03
DAV:   6    -0.143934958104E+03    0.37254E-05   -0.18960E-05  2356   0.182E-02
   7 F= -.14393496E+03 E0= -.14393255E+03  d E =-.160500E-02
       N       E                     dE             d eps       ncg     rms          rms(c)
DAV:   1    -0.143930566570E+03    0.43953E-02   -0.36112E+00  2868   0.806E+00    0.247E-01
DAV:   2    -0.143938151969E+03   -0.75854E-02   -0.86463E-02  3038   0.114E+00    0.146E-01
DAV:   3    -0.143937643751E+03    0.50822E-03   -0.14511E-03  3188   0.171E-01    0.106E-01
DAV:   4    -0.143937334411E+03    0.30934E-03   -0.75558E-04  3146   0.134E-01    0.539E-02
DAV:   5    -0.143937116691E+03    0.21772E-03   -0.45160E-04  3124   0.132E-01    0.265E-02
DAV:   6    -0.143937077531E+03    0.39160E-04   -0.19000E-04  3164   0.694E-02    0.199E-02
DAV:   7    -0.143936991474E+03    0.86057E-04   -0.73413E-05  3084   0.791E-02    0.116E-02
DAV:   8    -0.143936903995E+03    0.87479E-04   -0.66786E-05  3378   0.105E-01    0.196E-02
DAV:   9    -0.143936829896E+03    0.74099E-04   -0.68873E-05  3358   0.970E-02    0.119E-02
DAV:  10    -0.143936687815E+03    0.14208E-03   -0.80586E-05  3474   0.194E-01    0.139E-02
DAV:  11    -0.143936554087E+03    0.13373E-03   -0.27021E-04  3802   0.261E-01    0.172E-02
DAV:  12    -0.143936540542E+03    0.13545E-04   -0.26105E-04  3292   0.134E-01    0.147E-02
DAV:  13    -0.143936545380E+03   -0.48379E-05   -0.17556E-04  2838   0.831E-02    0.828E-03
DAV:  14    -0.143936545735E+03   -0.35538E-06   -0.34279E-05  2526   0.392E-02
   8 F= -.14393655E+03 E0= -.14393429E+03  d E =-.319263E-02
       N       E                     dE             d eps       ncg     rms          rms(c)
DAV:   1    -0.143937491725E+03   -0.94635E-03   -0.38045E-01  2816   0.261E+00    0.815E-02
DAV:   2    -0.143938280915E+03   -0.78919E-03   -0.89990E-03  3004   0.367E-01    0.480E-02
DAV:   3    -0.143938239495E+03    0.41420E-04   -0.19694E-04  3170   0.615E-02    0.369E-02
DAV:   4    -0.143938214264E+03    0.25231E-04   -0.10446E-04  3112   0.486E-02    0.179E-02
DAV:   5    -0.143938198993E+03    0.15271E-04   -0.55836E-05  3058   0.482E-02    0.145E-02
DAV:   6    -0.143938193751E+03    0.52425E-05   -0.20810E-05  1936   0.280E-02
   9 F= -.14393819E+03 E0= -.14393601E+03  d E =-.164802E-02
       N       E                     dE             d eps       ncg     rms          rms(c)
DAV:   1    -0.143935583604E+03    0.26154E-02   -0.22397E+00  2804   0.634E+00    0.204E-01
DAV:   2    -0.143940320926E+03   -0.47373E-02   -0.54227E-02  3030   0.906E-01    0.121E-01
DAV:   3    -0.143940046755E+03    0.27417E-03   -0.11226E-03  3206   0.156E-01    0.923E-02
DAV:   4    -0.143939853614E+03    0.19314E-03   -0.84824E-04  3184   0.141E-01    0.406E-02
DAV:   5    -0.143939753553E+03    0.10006E-03   -0.30580E-04  3360   0.122E-01    0.424E-02
DAV:   6    -0.143939685074E+03    0.68479E-04   -0.16369E-04  3462   0.918E-02    0.281E-02
DAV:   7    -0.143939633045E+03    0.52029E-04   -0.12087E-04  3108   0.724E-02    0.145E-02
DAV:   8    -0.143939601592E+03    0.31453E-04   -0.29576E-05  2524   0.456E-02    0.142E-02
DAV:   9    -0.143939454440E+03    0.14715E-03   -0.52939E-05  3090   0.164E-01    0.123E-02
DAV:  10    -0.143939342078E+03    0.11236E-03   -0.12186E-04  3594   0.172E-01    0.163E-02
DAV:  11    -0.143939243253E+03    0.98824E-04   -0.16231E-04  3968   0.234E-01    0.861E-03
DAV:  12    -0.143939213492E+03    0.29761E-04   -0.25447E-04  4210   0.256E-01    0.947E-03
DAV:  13    -0.143939246756E+03   -0.33263E-04   -0.36126E-04  2816   0.627E-02    0.184E-02
DAV:  14    -0.143939249399E+03   -0.26437E-05   -0.60540E-06  1748   0.115E-02
  10 F= -.14393925E+03 E0= -.14393730E+03  d E =-.270366E-02
       N       E                     dE             d eps       ncg     rms          rms(c)
DAV:   1    -0.143939719082E+03   -0.47233E-03   -0.77164E-01  2792   0.372E+00    0.105E-01
DAV:   2    -0.143941127426E+03   -0.14083E-02   -0.15664E-02  3090   0.496E-01    0.621E-02
DAV:   3    -0.143941028251E+03    0.99175E-04   -0.20270E-04  3270   0.742E-02    0.411E-02
DAV:   4    -0.143940959264E+03    0.68987E-04   -0.20660E-04  3182   0.841E-02    0.144E-02
DAV:   5    -0.143940958271E+03    0.99304E-06   -0.11904E-04  3072   0.485E-02    0.129E-02
DAV:   6    -0.143940957482E+03    0.78909E-06   -0.11793E-05  1568   0.147E-02
  11 F= -.14394096E+03 E0= -.14393912E+03  d E =-.170808E-02
       N       E                     dE             d eps       ncg     rms          rms(c)
DAV:   1    -0.143935678536E+03    0.52797E-02   -0.41793E+00  2788   0.866E+00    0.243E-01
DAV:   2    -0.143943441864E+03   -0.77633E-02   -0.85601E-02  3088   0.115E+00    0.143E-01
DAV:   3    -0.143942896591E+03    0.54527E-03   -0.90694E-04  3270   0.165E-01    0.949E-02
DAV:   4    -0.143942477465E+03    0.41913E-03   -0.14667E-03  3268   0.249E-01    0.270E-02
DAV:   5    -0.143942516216E+03   -0.38750E-04   -0.81104E-04  3146   0.114E-01    0.349E-02
DAV:   6    -0.143942512017E+03    0.41983E-05   -0.21674E-05  2176   0.190E-02
  12 F= -.14394251E+03 E0= -.14394089E+03  d E =-.326262E-02
       N       E                     dE             d eps       ncg     rms          rms(c)
DAV:   1    -0.143943244909E+03   -0.72869E-03   -0.78157E-01  2868   0.376E+00    0.119E-01
DAV:   2    -0.143944761899E+03   -0.15170E-02   -0.17268E-02  3094   0.516E-01    0.653E-02
DAV:   3    -0.143944639790E+03    0.12211E-03   -0.21219E-04  3234   0.814E-02    0.445E-02
DAV:   4    -0.143944527705E+03    0.11209E-03   -0.22787E-04  3288   0.118E-01    0.169E-02
DAV:   5    -0.143944498424E+03    0.29281E-04   -0.17989E-04  3110   0.807E-02    0.172E-02
DAV:   6    -0.143944492567E+03    0.58565E-05   -0.50513E-05  2556   0.292E-02
  13 F= -.14394449E+03 E0= -.14394292E+03  d E =-.198055E-02
       N       E                     dE             d eps       ncg     rms          rms(c)
DAV:   1    -0.143939506070E+03    0.49924E-02   -0.38851E+00  2868   0.839E+00    0.244E-01
DAV:   2    -0.143947181762E+03   -0.76757E-02   -0.85816E-02  3086   0.115E+00    0.147E-01
DAV:   3    -0.143946593148E+03    0.58861E-03   -0.94119E-04  3252   0.173E-01    0.103E-01
DAV:   4    -0.143945974346E+03    0.61880E-03   -0.12354E-03  3520   0.277E-01    0.376E-02
DAV:   5    -0.143945857743E+03    0.11660E-03   -0.93745E-04  3124   0.176E-01    0.415E-02
DAV:   6    -0.143945832433E+03    0.25310E-04   -0.23888E-04  2874   0.628E-02    0.361E-02
DAV:   7    -0.143945801478E+03    0.30955E-04   -0.31103E-05  2544   0.256E-02    0.335E-02
DAV:   8    -0.143945565767E+03    0.23571E-03   -0.88115E-04  3118   0.172E-01    0.818E-02
DAV:   9    -0.143945343479E+03    0.22229E-03   -0.33584E-04  3878   0.161E-01    0.632E-02
DAV:  10    -0.143945332858E+03    0.10620E-04   -0.11042E-03  3108   0.146E-01    0.567E-02
DAV:  11    -0.143945296867E+03    0.35991E-04   -0.73161E-04  3476   0.152E-01    0.625E-02
DAV:  12    -0.143944888936E+03    0.40793E-03   -0.23568E-04  4182   0.353E-01    0.533E-02
DAV:  13    -0.143944614830E+03    0.27411E-03   -0.87548E-04  3942   0.459E-01    0.384E-02
DAV:  14    -0.143944603252E+03    0.11578E-04   -0.80120E-04  3178   0.205E-01    0.260E-02
DAV:  15    -0.143944606764E+03   -0.35124E-05   -0.25759E-04  3080   0.872E-02    0.156E-02
DAV:  16    -0.143944629732E+03   -0.22968E-04   -0.15440E-04  2918   0.532E-02    0.346E-02
DAV:  17    -0.143944606246E+03    0.23486E-04   -0.12141E-04  2796   0.374E-02    0.158E-02
DAV:  18    -0.143944597789E+03    0.84573E-05   -0.21495E-05  2316   0.752E-02
  14 F= -.14394460E+03 E0= -.14394309E+03  d E =-.208577E-02
       N       E                     dE             d eps       ncg     rms          rms(c)
DAV:   1    -0.143944096576E+03    0.50967E-03   -0.60519E-01  2848   0.328E+00    0.982E-02
DAV:   2    -0.143945277503E+03   -0.11809E-02   -0.13239E-02  3076   0.447E-01    0.545E-02
DAV:   3    -0.143945201866E+03    0.75637E-04   -0.15588E-04  3204   0.598E-02    0.378E-02
DAV:   4    -0.143945139413E+03    0.62453E-04   -0.14629E-04  3216   0.803E-02    0.139E-02
DAV:   5    -0.143945129267E+03    0.10146E-04   -0.92185E-05  2996   0.517E-02    0.123E-02
DAV:   6    -0.143945124996E+03    0.42718E-05   -0.18523E-05  1966   0.195E-02
  15 F= -.14394512E+03 E0= -.14394358E+03  d E =-.261298E-02
       N       E                     dE             d eps       ncg     rms          rms(c)
DAV:   1    -0.143945972238E+03   -0.84297E-03   -0.16742E-01  2776   0.173E+00    0.498E-02
DAV:   2    -0.143946263191E+03   -0.29095E-03   -0.36158E-03  3126   0.241E-01    0.313E-02
DAV:   3    -0.143946237407E+03    0.25785E-04   -0.88634E-05  3124   0.446E-02    0.233E-02
DAV:   4    -0.143946211074E+03    0.26332E-04   -0.42474E-05  2826   0.333E-02    0.113E-02
DAV:   5    -0.143946189087E+03    0.21987E-04   -0.15983E-05  2048   0.408E-02    0.935E-03
DAV:   6    -0.143946169000E+03    0.20087E-04   -0.17762E-05  2076   0.515E-02    0.659E-03
DAV:   7    -0.143946158453E+03    0.10548E-04   -0.31386E-05  2602   0.399E-02    0.827E-03
DAV:   8    -0.143946140784E+03    0.17668E-04   -0.97986E-06  1912   0.340E-02    0.442E-03
DAV:   9    -0.143946111596E+03    0.29189E-04   -0.12707E-04  3392   0.126E-01    0.284E-02
DAV:  10    -0.143946093110E+03    0.18486E-04   -0.52400E-05  2882   0.651E-02    0.208E-02
DAV:  11    -0.143946089472E+03    0.36378E-05   -0.83623E-05  2698   0.444E-02
  16 F= -.14394609E+03 E0= -.14394457E+03  d E =-.964476E-03
       N       E                     dE             d eps       ncg     rms          rms(c)
DAV:   1    -0.143946082621E+03    0.10489E-04   -0.79919E-01  2776   0.379E+00    0.108E-01
DAV:   2    -0.143947562867E+03   -0.14802E-02   -0.17430E-02  3092   0.524E-01    0.691E-02
DAV:   3    -0.143947465896E+03    0.96971E-04   -0.32047E-04  3278   0.835E-02    0.506E-02
DAV:   4    -0.143947391986E+03    0.73910E-04   -0.25915E-04  3128   0.757E-02    0.225E-02
DAV:   5    -0.143947369870E+03    0.22116E-04   -0.73310E-05  3018   0.507E-02    0.189E-02
DAV:   6    -0.143947350392E+03    0.19478E-04   -0.58969E-05  2848   0.594E-02    0.780E-03
DAV:   7    -0.143947346554E+03    0.38383E-05   -0.43223E-05  2548   0.315E-02
  17 F= -.14394735E+03 E0= -.14394586E+03  d E =-.222156E-02
       N       E                     dE             d eps       ncg     rms          rms(c)
DAV:   1    -0.143947165564E+03    0.18483E-03   -0.18927E-01  2820   0.185E+00    0.559E-02
DAV:   2    -0.143947509357E+03   -0.34379E-03   -0.41800E-03  3120   0.259E-01    0.324E-02
DAV:   3    -0.143947480433E+03    0.28925E-04   -0.10191E-04  3136   0.492E-02    0.239E-02
DAV:   4    -0.143947452224E+03    0.28208E-04   -0.45950E-05  2928   0.348E-02    0.118E-02
DAV:   5    -0.143947426327E+03    0.25898E-04   -0.16022E-05  2082   0.435E-02    0.954E-03
DAV:   6    -0.143947401827E+03    0.24499E-04   -0.18210E-05  2146   0.569E-02    0.735E-03
DAV:   7    -0.143947387960E+03    0.13867E-04   -0.32859E-05  2548   0.453E-02    0.790E-03
DAV:   8    -0.143947362471E+03    0.25489E-04   -0.80098E-06  1974   0.544E-02    0.395E-03
DAV:   9    -0.143947321502E+03    0.40968E-04   -0.11109E-04  3504   0.147E-01    0.196E-02
DAV:  10    -0.143947310591E+03    0.10911E-04   -0.63217E-05  2946   0.644E-02    0.147E-02
DAV:  11    -0.143947309691E+03    0.90021E-06   -0.70501E-05  2654   0.438E-02
  18 F= -.14394731E+03 E0= -.14394584E+03  d E =-.218470E-02
       N       E                     dE             d eps       ncg     rms          rms(c)
DAV:   1    -0.143948256679E+03   -0.94609E-03   -0.51968E-02  2852   0.962E-01    0.307E-02
DAV:   2    -0.143948346533E+03   -0.89855E-04   -0.12836E-03  3188   0.151E-01    0.214E-02
DAV:   3    -0.143948336304E+03    0.10230E-04   -0.44629E-05  2824   0.306E-02    0.174E-02
DAV:   4    -0.143948325429E+03    0.10875E-04   -0.18645E-05  1836   0.199E-02    0.819E-03
DAV:   5    -0.143948316002E+03    0.94275E-05   -0.14676E-05  1920   0.285E-02    0.707E-03
DAV:   6    -0.143948309157E+03    0.68450E-05   -0.78649E-06  1962   0.333E-02
  19 F= -.14394831E+03 E0= -.14394684E+03  d E =-.999465E-03
       N       E                     dE             d eps       ncg     rms          rms(c)
DAV:   1    -0.143949066466E+03   -0.75046E-03   -0.44319E-01  2828   0.281E+00    0.930E-02
DAV:   2    -0.143949823263E+03   -0.75680E-03   -0.10922E-02  3188   0.440E-01    0.614E-02
DAV:   3    -0.143949735510E+03    0.87754E-04   -0.37878E-04  3230   0.896E-02    0.505E-02
DAV:   4    -0.143949640138E+03    0.95372E-04   -0.20300E-04  3110   0.623E-02    0.225E-02
DAV:   5    -0.143949562873E+03    0.77264E-04   -0.12304E-04  3080   0.860E-02    0.249E-02
DAV:   6    -0.143949506431E+03    0.56442E-04   -0.81303E-05  3390   0.977E-02    0.166E-02
DAV:   7    -0.143949477331E+03    0.29100E-04   -0.10418E-04  3032   0.796E-02    0.117E-02
DAV:   8    -0.143949445554E+03    0.31777E-04   -0.25241E-05  2394   0.583E-02    0.821E-03
DAV:   9    -0.143949380660E+03    0.64894E-04   -0.61764E-05  3178   0.150E-01    0.176E-02
DAV:  10    -0.143949353752E+03    0.26908E-04   -0.73465E-05  3082   0.883E-02    0.143E-02
DAV:  11    -0.143949329701E+03    0.24051E-04   -0.56102E-05  3012   0.989E-02    0.417E-03
DAV:  12    -0.143949314984E+03    0.14718E-04   -0.25981E-05  2424   0.901E-02    0.399E-03
DAV:  13    -0.143949307053E+03    0.79305E-05   -0.34820E-05  2750   0.914E-02
  20 F= -.14394931E+03 E0= -.14394782E+03  d E =-.199736E-02
       N       E                     dE             d eps       ncg     rms          rms(c)
DAV:   1    -0.143949842587E+03   -0.52760E-03   -0.27436E-01  2872   0.218E+00    0.629E-02
DAV:   2    -0.143950364780E+03   -0.52219E-03   -0.58506E-03  3112   0.294E-01    0.409E-02
DAV:   3    -0.143950321479E+03    0.43302E-04   -0.62686E-05  3072   0.478E-02    0.283E-02
DAV:   4    -0.143950281322E+03    0.40157E-04   -0.13309E-04  3308   0.823E-02    0.103E-02
DAV:   5    -0.143950282812E+03   -0.14899E-05   -0.75216E-05  2824   0.381E-02    0.128E-02
DAV:   6    -0.143950285238E+03   -0.24260E-05   -0.56442E-06  1566   0.942E-03
  21 F= -.14395029E+03 E0= -.14394879E+03  d E =-.978185E-03
       N       E                     dE             d eps       ncg     rms          rms(c)
DAV:   1    -0.143947817902E+03    0.24649E-02   -0.21347E+00  2860   0.609E+00    0.177E-01
DAV:   2    -0.143951877169E+03   -0.40593E-02   -0.45855E-02  3116   0.824E-01    0.112E-01
DAV:   3    -0.143951531977E+03    0.34519E-03   -0.43419E-04  3256   0.128E-01    0.793E-02
DAV:   4    -0.143951172978E+03    0.35900E-03   -0.12848E-03  3610   0.271E-01    0.300E-02
DAV:   5    -0.143951193098E+03   -0.20119E-04   -0.70874E-04  3084   0.112E-01    0.400E-02
DAV:   6    -0.143951199592E+03   -0.64941E-05   -0.37049E-05  2428   0.223E-02
  22 F= -.14395120E+03 E0= -.14394967E+03  d E =-.189254E-02
       N       E                     dE             d eps       ncg     rms          rms(c)
DAV:   1    -0.143951728313E+03   -0.53521E-03   -0.23501E-01  2944   0.208E+00    0.820E-02
DAV:   2    -0.143952057752E+03   -0.32944E-03   -0.58028E-03  3106   0.307E-01    0.429E-02
DAV:   3    -0.143951947854E+03    0.10990E-03   -0.14475E-04  3310   0.840E-02    0.307E-02
DAV:   4    -0.143951832981E+03    0.11487E-03   -0.90184E-05  3456   0.101E-01    0.164E-02
DAV:   5    -0.143951691437E+03    0.14154E-03   -0.74932E-05  3458   0.135E-01    0.105E-02
DAV:   6    -0.143951586119E+03    0.10532E-03   -0.95737E-05  3174   0.121E-01    0.103E-02
DAV:   7    -0.143951452523E+03    0.13360E-03   -0.52897E-05  2916   0.151E-01    0.823E-03
DAV:   8    -0.143951203792E+03    0.24873E-03   -0.30872E-04  4454   0.393E-01    0.191E-02
DAV:   9    -0.143951177389E+03    0.26403E-04   -0.37107E-04  3178   0.158E-01    0.175E-02
DAV:  10    -0.143951190708E+03   -0.13318E-04   -0.26430E-04  2798   0.604E-02    0.157E-02
DAV:  11    -0.143951175337E+03    0.15371E-04   -0.21868E-05  2336   0.683E-02    0.114E-02
DAV:  12    -0.143951155898E+03    0.19439E-04   -0.69443E-05  3234   0.134E-01    0.721E-03
DAV:  13    -0.143951156845E+03   -0.94716E-06   -0.40899E-05  2730   0.314E-02
  23 F= -.14395116E+03 E0= -.14394962E+03  d E =0.427466E-04
       N       E                     dE             d eps       ncg     rms          rms(c)
DAV:   1    -0.143951155719E+03    0.17886E-06   -0.30032E-04  2842   0.848E-02    0.633E-03
DAV:   2    -0.143951156479E+03   -0.75930E-06   -0.21905E-05  2130   0.204E-02    0.608E-03
DAV:   3    -0.143951155834E+03    0.64438E-06   -0.31961E-06  1530   0.781E-03    0.336E-03
DAV:   4    -0.143951155466E+03    0.36779E-06   -0.86762E-07  1480   0.403E-03    0.192E-03
DAV:   5    -0.143951155088E+03    0.37837E-06   -0.71386E-07  1596   0.497E-03    0.127E-03
DAV:   6    -0.143951154932E+03    0.15579E-06   -0.71853E-07  1506   0.567E-03
  24 F= -.14395115E+03 E0= -.14394961E+03  d E =0.446597E-04
       N       E                     dE             d eps       ncg     rms          rms(c)
DAV:   1    -0.143951667603E+03   -0.51251E-03   -0.10615E-01  2952   0.140E+00    0.428E-02
DAV:   2    -0.143951831971E+03   -0.16437E-03   -0.24491E-03  3126   0.209E-01    0.295E-02
DAV:   3    -0.143951807651E+03    0.24320E-04   -0.80282E-05  3160   0.424E-02    0.232E-02
DAV:   4    -0.143951789956E+03    0.17695E-04   -0.27989E-05  2608   0.249E-02    0.124E-02
DAV:   5    -0.143951774844E+03    0.15112E-04   -0.20561E-05  2428   0.348E-02    0.797E-03
DAV:   6    -0.143951768599E+03    0.62451E-05   -0.15337E-05  2012   0.351E-02
  25 F= -.14395177E+03 E0= -.14395022E+03  d E =-.613667E-03
       N       E                     dE             d eps       ncg     rms          rms(c)
DAV:   1    -0.143951832459E+03   -0.57614E-04   -0.65129E-02  2960   0.110E+00    0.342E-02
DAV:   2    -0.143951934950E+03   -0.10249E-03   -0.15717E-03  3116   0.169E-01    0.240E-02
DAV:   3    -0.143951916397E+03    0.18553E-04   -0.51975E-05  3086   0.362E-02    0.193E-02
DAV:   4    -0.143951899529E+03    0.16868E-04   -0.17850E-05  1900   0.236E-02    0.103E-02
DAV:   5    -0.143951882539E+03    0.16989E-04   -0.19316E-05  2280   0.401E-02    0.781E-03
DAV:   6    -0.143951870413E+03    0.12126E-04   -0.16505E-05  2152   0.522E-02    0.381E-03
DAV:   7    -0.143951865565E+03    0.48481E-05   -0.36829E-05  2554   0.499E-02
  26 F= -.14395187E+03 E0= -.14395031E+03  d E =-.710633E-03
       N       E                     dE             d eps       ncg     rms          rms(c)
DAV:   1    -0.143952281328E+03   -0.41092E-03   -0.26481E-02  2988   0.700E-01    0.243E-02
DAV:   2    -0.143952318888E+03   -0.37560E-04   -0.73070E-04  3114   0.114E-01    0.178E-02
DAV:   3    -0.143952301142E+03    0.17746E-04   -0.20816E-05  2192   0.315E-02    0.144E-02
DAV:   4    -0.143952269896E+03    0.31245E-04   -0.22479E-05  2320   0.485E-02    0.711E-03
DAV:   5    -0.143952242247E+03    0.27649E-04   -0.25972E-05  2436   0.575E-02    0.815E-03
DAV:   6    -0.143952214109E+03    0.28138E-04   -0.30978E-05  2510   0.682E-02    0.586E-03
DAV:   7    -0.143952170007E+03    0.44102E-04   -0.28315E-05  2566   0.122E-01    0.107E-02
DAV:   8    -0.143952133927E+03    0.36080E-04   -0.81099E-05  3682   0.144E-01    0.901E-03
DAV:   9    -0.143952129495E+03    0.44316E-05   -0.12037E-04  3020   0.953E-02    0.109E-02
DAV:  10    -0.143952130077E+03   -0.58232E-06   -0.68249E-05  2684   0.322E-02
  27 F= -.14395213E+03 E0= -.14395057E+03  d E =-.264513E-03
       N       E                     dE             d eps       ncg     rms          rms(c)
DAV:   1    -0.143952160875E+03   -0.31380E-04   -0.30604E-03  3028   0.238E-01    0.137E-02
DAV:   2    -0.143952164218E+03   -0.33427E-05   -0.10243E-04  3022   0.439E-02    0.525E-03
DAV:   3    -0.143952162579E+03    0.16387E-05   -0.51653E-06  1560   0.119E-02    0.416E-03
DAV:   4    -0.143952160554E+03    0.20252E-05   -0.13998E-06  1652   0.118E-02    0.214E-03
DAV:   5    -0.143952157265E+03    0.32893E-05   -0.15018E-06  1790   0.199E-02    0.169E-03
DAV:   6    -0.143952154638E+03    0.26264E-05   -0.28083E-06  1686   0.192E-02
  28 F= -.14395215E+03 E0= -.14395059E+03  d E =-.289073E-03
       N       E                     dE             d eps       ncg     rms          rms(c)
DAV:   1    -0.143952113553E+03    0.43712E-04   -0.12323E-02  2984   0.481E-01    0.173E-02
DAV:   2    -0.143952138040E+03   -0.24487E-04   -0.38034E-04  3134   0.813E-02    0.128E-02
DAV:   3    -0.143952130897E+03    0.71435E-05   -0.10046E-05  1826   0.183E-02    0.969E-03
DAV:   4    -0.143952117793E+03    0.13104E-04   -0.14211E-05  1976   0.278E-02    0.456E-03
DAV:   5    -0.143952112009E+03    0.57840E-05   -0.74193E-06  1784   0.215E-02    0.516E-03
DAV:   6    -0.143952103117E+03    0.88926E-05   -0.12728E-05  2070   0.414E-02
  29 F= -.14395210E+03 E0= -.14395054E+03  d E =-.237552E-03
       N       E                     dE             d eps       ncg     rms          rms(c)
DAV:   1    -0.143952129301E+03   -0.17292E-04   -0.63424E-03  2952   0.348E-01    0.163E-02
DAV:   2    -0.143952147640E+03   -0.18339E-04   -0.27721E-04  3098   0.697E-02    0.140E-02
DAV:   3    -0.143952144503E+03    0.31371E-05   -0.15335E-05  1694   0.189E-02    0.101E-02
DAV:   4    -0.143952142255E+03    0.22486E-05   -0.76320E-06  1626   0.134E-02    0.482E-03
DAV:   5    -0.143952141096E+03    0.11582E-05   -0.42680E-06  1658   0.113E-02    0.288E-03
DAV:   6    -0.143952140582E+03    0.51412E-06   -0.30285E-06  1676   0.127E-02
  30 F= -.14395214E+03 E0= -.14395058E+03  d E =-.275017E-03
       N       E                     dE             d eps       ncg     rms          rms(c)
DAV:   1    -0.143952145170E+03   -0.40732E-05   -0.36454E-04  2784   0.823E-02    0.364E-03
DAV:   2    -0.143952145776E+03   -0.60590E-06   -0.10585E-05  1558   0.129E-02    0.213E-03
DAV:   3    -0.143952145580E+03    0.19608E-06   -0.61312E-07  1416   0.381E-03    0.152E-03
DAV:   4    -0.143952145314E+03    0.26594E-06   -0.35863E-07  1494   0.522E-03    0.583E-04
DAV:   5    -0.143952145237E+03    0.76087E-07   -0.28871E-07  1428   0.303E-03    0.615E-04
DAV:   6    -0.143952145189E+03    0.48801E-07   -0.57052E-08  1406   0.166E-03
  31 F= -.14395215E+03 E0= -.14395058E+03  d E =-.279624E-03
       N       E                     dE             d eps       ncg     rms          rms(c)
DAV:   1    -0.143952339135E+03   -0.19390E-03   -0.24798E-02  2940   0.673E-01    0.222E-02
DAV:   2    -0.143952379763E+03   -0.40628E-04   -0.60772E-04  3170   0.105E-01    0.150E-02
DAV:   3    -0.143952372807E+03    0.69555E-05   -0.22059E-05  2172   0.254E-02    0.121E-02
DAV:   4    -0.143952366206E+03    0.66015E-05   -0.88992E-06  1838   0.183E-02    0.637E-03
DAV:   5    -0.143952360516E+03    0.56900E-05   -0.10352E-05  1990   0.267E-02    0.468E-03
DAV:   6    -0.143952358963E+03    0.15528E-05   -0.10294E-05  1786   0.235E-02
  32 F= -.14395236E+03 E0= -.14395079E+03  d E =-.213774E-03
       N       E                     dE             d eps       ncg     rms          rms(c)
DAV:   1    -0.143952406937E+03   -0.46421E-04   -0.27445E-02  2960   0.709E-01    0.227E-02
DAV:   2    -0.143952453623E+03   -0.46685E-04   -0.69538E-04  3178   0.111E-01    0.169E-02
DAV:   3    -0.143952443872E+03    0.97507E-05   -0.18389E-05  1976   0.258E-02    0.135E-02
DAV:   4    -0.143952431424E+03    0.12448E-04   -0.16575E-05  2196   0.292E-02    0.621E-03
DAV:   5    -0.143952425217E+03    0.62072E-05   -0.13671E-05  1922   0.309E-02    0.608E-03
DAV:   6    -0.143952423042E+03    0.21743E-05   -0.18037E-05  1958   0.289E-02
  33 F= -.14395242E+03 E0= -.14395085E+03  d E =-.277854E-03
       N       E                     dE             d eps       ncg     rms          rms(c)
DAV:   1    -0.143952597694E+03   -0.17248E-03   -0.29383E-02  2940   0.745E-01    0.250E-02
DAV:   2    -0.143952652057E+03   -0.54363E-04   -0.77274E-04  3086   0.117E-01    0.150E-02
DAV:   3    -0.143952642563E+03    0.94934E-05   -0.22208E-05  2238   0.248E-02    0.115E-02
DAV:   4    -0.143952632383E+03    0.10180E-04   -0.57108E-06  1768   0.219E-02    0.648E-03
DAV:   5    -0.143952617623E+03    0.14760E-04   -0.10866E-05  1918   0.424E-02    0.438E-03
DAV:   6    -0.143952616625E+03    0.99754E-06   -0.16639E-05  1674   0.176E-02
  34 F= -.14395262E+03 E0= -.14395104E+03  d E =-.193583E-03
       N       E                     dE             d eps       ncg     rms          rms(c)
DAV:   1    -0.143952656116E+03   -0.38493E-04   -0.41407E-02  2940   0.882E-01    0.297E-02
DAV:   2    -0.143952727148E+03   -0.71032E-04   -0.10806E-03  3090   0.139E-01    0.176E-02
DAV:   3    -0.143952710557E+03    0.16591E-04   -0.39236E-05  2916   0.356E-02    0.142E-02
DAV:   4    -0.143952695935E+03    0.14622E-04   -0.85906E-06  1768   0.241E-02    0.880E-03
DAV:   5    -0.143952659254E+03    0.36681E-04   -0.17710E-05  2120   0.654E-02    0.591E-03
DAV:   6    -0.143952648435E+03    0.10819E-04   -0.31205E-05  2620   0.369E-02    0.800E-03
DAV:   7    -0.143952628884E+03    0.19551E-04   -0.33719E-05  2592   0.587E-02    0.883E-03
DAV:   8    -0.143952596371E+03    0.32513E-04   -0.21440E-05  2382   0.110E-01    0.147E-02
DAV:   9    -0.143952563137E+03    0.33234E-04   -0.59898E-05  3238   0.141E-01    0.136E-02
DAV:  10    -0.143952553632E+03    0.95059E-05   -0.10339E-04  3314   0.951E-02    0.487E-03
DAV:  11    -0.143952559563E+03   -0.59318E-05   -0.64574E-05  2554   0.264E-02
  35 F= -.14395256E+03 E0= -.14395097E+03  d E =-.136521E-03
       N       E                     dE             d eps       ncg     rms          rms(c)
DAV:   1    -0.143952584050E+03   -0.30418E-04   -0.65587E-03  2972   0.351E-01    0.138E-02
DAV:   2    -0.143952596978E+03   -0.12928E-04   -0.17367E-04  3076   0.541E-02    0.706E-03
DAV:   3    -0.143952595324E+03    0.16539E-05   -0.44352E-06  1624   0.111E-02    0.463E-03
DAV:   4    -0.143952593887E+03    0.14367E-05   -0.17357E-06  1688   0.871E-03    0.210E-03
DAV:   5    -0.143952593055E+03    0.83237E-06   -0.12937E-06  1610   0.101E-02    0.133E-03
DAV:   6    -0.143952592829E+03    0.22573E-06   -0.12840E-06  1528   0.705E-03
  36 F= -.14395259E+03 E0= -.14395101E+03  d E =-.169787E-03
       N       E                     dE             d eps       ncg     rms          rms(c)
DAV:   1    -0.143952694269E+03   -0.10121E-03   -0.59266E-03  2928   0.329E-01    0.115E-02
DAV:   2    -0.143952705073E+03   -0.10804E-04   -0.16515E-04  3060   0.529E-02    0.701E-03
DAV:   3    -0.143952703552E+03    0.15216E-05   -0.64429E-06  1678   0.131E-02    0.559E-03
DAV:   4    -0.143952702258E+03    0.12937E-05   -0.17481E-06  1572   0.821E-03    0.320E-03
DAV:   5    -0.143952700650E+03    0.16083E-05   -0.25305E-06  1814   0.143E-02    0.203E-03
DAV:   6    -0.143952700511E+03    0.13849E-06   -0.21776E-06  1480   0.731E-03
  37 F= -.14395270E+03 E0= -.14395111E+03  d E =-.107682E-03
       N       E                     dE             d eps       ncg     rms          rms(c)
DAV:   1    -0.143952802611E+03   -0.10196E-03   -0.53451E-02  2934   0.987E-01    0.348E-02
DAV:   2    -0.143952903507E+03   -0.10090E-03   -0.15064E-03  3090   0.158E-01    0.214E-02
DAV:   3    -0.143952891274E+03    0.12233E-04   -0.61374E-05  3128   0.379E-02    0.173E-02
DAV:   4    -0.143952882606E+03    0.86687E-05   -0.13880E-05  1810   0.195E-02    0.100E-02
DAV:   5    -0.143952871684E+03    0.10921E-04   -0.17848E-05  2412   0.329E-02    0.563E-03
DAV:   6    -0.143952869697E+03    0.19878E-05   -0.11480E-05  1830   0.210E-02
  38 F= -.14395287E+03 E0= -.14395126E+03  d E =-.276867E-03
       N       E                     dE             d eps       ncg     rms          rms(c)
DAV:   1    -0.143953144149E+03   -0.27246E-03   -0.10007E-02  2990   0.416E-01    0.140E-02
DAV:   2    -0.143953154311E+03   -0.10162E-04   -0.22979E-04  3164   0.671E-02    0.100E-02
DAV:   3    -0.143953149191E+03    0.51194E-05   -0.11626E-05  1812   0.204E-02    0.766E-03
DAV:   4    -0.143953142496E+03    0.66957E-05   -0.28494E-06  1800   0.185E-02    0.467E-03
DAV:   5    -0.143953133197E+03    0.92990E-05   -0.53819E-06  1828   0.323E-02    0.323E-03
DAV:   6    -0.143953125904E+03    0.72928E-05   -0.84541E-06  2008   0.364E-02
  39 F= -.14395313E+03 E0= -.14395150E+03  d E =-.256207E-03
       N       E                     dE             d eps       ncg     rms          rms(c)
DAV:   1    -0.143953369965E+03   -0.23677E-03   -0.67262E-02  2972   0.108E+00    0.365E-02
DAV:   2    -0.143953460195E+03   -0.90230E-04   -0.16659E-03  3148   0.176E-01    0.255E-02
DAV:   3    -0.143953430827E+03    0.29368E-04   -0.65161E-05  2998   0.438E-02    0.205E-02
DAV:   4    -0.143953384669E+03    0.46158E-04   -0.32107E-05  2596   0.469E-02    0.106E-02
DAV:   5    -0.143953341345E+03    0.43324E-04   -0.34619E-05  2736   0.658E-02    0.107E-02
DAV:   6    -0.143953306703E+03    0.34642E-04   -0.34940E-05  2576   0.737E-02    0.531E-03
DAV:   7    -0.143953269636E+03    0.37067E-04   -0.23949E-05  2430   0.867E-02    0.786E-03
DAV:   8    -0.143953177822E+03    0.91814E-04   -0.94168E-05  3406   0.237E-01    0.679E-03
DAV:   9    -0.143953165190E+03    0.12631E-04   -0.15901E-04  3008   0.115E-01    0.112E-02
DAV:  10    -0.143953163218E+03    0.19721E-05   -0.10130E-04  2746   0.561E-02    0.693E-03
DAV:  11    -0.143953163975E+03   -0.75675E-06   -0.23728E-05  2154   0.184E-02
  40 F= -.14395316E+03 E0= -.14395152E+03  d E =-.294278E-03
       N       E                     dE             d eps       ncg     rms          rms(c)
DAV:   1    -0.143953236704E+03   -0.73486E-04   -0.83906E-03  2976   0.381E-01    0.158E-02
DAV:   2    -0.143953246319E+03   -0.96147E-05   -0.20840E-04  3146   0.639E-02    0.901E-03
DAV:   3    -0.143953242911E+03    0.34082E-05   -0.12784E-05  1808   0.204E-02    0.662E-03
DAV:   4    -0.143953239687E+03    0.32239E-05   -0.39727E-06  1774   0.133E-02    0.374E-03
DAV:   5    -0.143953236246E+03    0.34404E-05   -0.35231E-06  1802   0.190E-02    0.236E-03
DAV:   6    -0.143953234668E+03    0.15781E-05   -0.44308E-06  1780   0.178E-02
  41 F= -.14395323E+03 E0= -.14395159E+03  d E =-.364972E-03
       N       E                     dE             d eps       ncg     rms          rms(c)
DAV:   1    -0.143953244045E+03   -0.77990E-05   -0.24182E-03  3004   0.206E-01    0.683E-03
DAV:   2    -0.143953246527E+03   -0.24818E-05   -0.61420E-05  2874   0.348E-02    0.522E-03
DAV:   3    -0.143953244988E+03    0.15391E-05   -0.24964E-06  1668   0.967E-03    0.428E-03
DAV:   4    -0.143953241418E+03    0.35696E-05   -0.22067E-06  1780   0.160E-02    0.216E-03
DAV:   5    -0.143953239151E+03    0.22670E-05   -0.26969E-06  1708   0.161E-02    0.293E-03
DAV:   6    -0.143953238285E+03    0.86637E-06   -0.33283E-06  1574   0.120E-02
  42 F= -.14395324E+03 E0= -.14395160E+03  d E =-.368588E-03
       N       E                     dE             d eps       ncg     rms          rms(c)
DAV:   1    -0.143953411795E+03   -0.17264E-03   -0.14290E-02  2948   0.512E-01    0.180E-02
DAV:   2    -0.143953431742E+03   -0.19947E-04   -0.36680E-04  3140   0.856E-02    0.117E-02
DAV:   3    -0.143953427033E+03    0.47086E-05   -0.18639E-05  2082   0.216E-02    0.964E-03
DAV:   4    -0.143953422139E+03    0.48941E-05   -0.40988E-06  1714   0.136E-02    0.559E-03
DAV:   5    -0.143953415396E+03    0.67428E-05   -0.10197E-05  1916   0.294E-02    0.452E-03
DAV:   6    -0.143953415297E+03    0.99107E-07   -0.77870E-06  1562   0.115E-02
  43 F= -.14395342E+03 E0= -.14395177E+03  d E =-.177012E-03
       N       E                     dE             d eps       ncg     rms          rms(c)
DAV:   1    -0.143953489719E+03   -0.74322E-04   -0.28800E-02  2940   0.726E-01    0.252E-02
DAV:   2    -0.143953528584E+03   -0.38865E-04   -0.73014E-04  3150   0.120E-01    0.169E-02
DAV:   3    -0.143953519223E+03    0.93608E-05   -0.42542E-05  2852   0.332E-02    0.145E-02
DAV:   4    -0.143953511155E+03    0.80678E-05   -0.83800E-06  1762   0.174E-02    0.888E-03
DAV:   5    -0.143953497060E+03    0.14095E-04   -0.18438E-05  2218   0.399E-02    0.654E-03
DAV:   6    -0.143953493936E+03    0.31239E-05   -0.13023E-05  1824   0.238E-02
  44 F= -.14395349E+03 E0= -.14395183E+03  d E =-.255651E-03
       N       E                     dE             d eps       ncg     rms          rms(c)
DAV:   1    -0.143953697976E+03   -0.20092E-03   -0.30340E-02  2932   0.758E-01    0.250E-02
DAV:   2    -0.143953753130E+03   -0.55154E-04   -0.76537E-04  3078   0.117E-01    0.151E-02
DAV:   3    -0.143953742033E+03    0.11097E-04   -0.23445E-05  2162   0.290E-02    0.108E-02
DAV:   4    -0.143953729626E+03    0.12407E-04   -0.39577E-06  1792   0.257E-02    0.665E-03
DAV:   5    -0.143953709249E+03    0.20377E-04   -0.12208E-05  1970   0.528E-02    0.416E-03
DAV:   6    -0.143953706409E+03    0.28404E-05   -0.19469E-05  2130   0.223E-02
  45 F= -.14395371E+03 E0= -.14395203E+03  d E =-.212472E-03
       N       E                     dE             d eps       ncg     rms          rms(c)
DAV:   1    -0.143953765036E+03   -0.55787E-04   -0.76410E-02  2940   0.120E+00    0.386E-02
DAV:   2    -0.143953908006E+03   -0.14297E-03   -0.19472E-03  3074   0.184E-01    0.239E-02
DAV:   3    -0.143953880809E+03    0.27197E-04   -0.63063E-05  3118   0.477E-02    0.179E-02
DAV:   4    -0.143953854702E+03    0.26107E-04   -0.10279E-05  1840   0.335E-02    0.114E-02
DAV:   5    -0.143953800353E+03    0.54348E-04   -0.29916E-05  2570   0.838E-02    0.708E-03
DAV:   6    -0.143953788827E+03    0.11527E-04   -0.41755E-05  2626   0.383E-02    0.808E-03
DAV:   7    -0.143953772084E+03    0.16743E-04   -0.32058E-05  2468   0.480E-02    0.908E-03
DAV:   8    -0.143953720707E+03    0.51377E-04   -0.28747E-05  2450   0.126E-01    0.143E-02
DAV:   9    -0.143953679043E+03    0.41665E-04   -0.69724E-05  3218   0.115E-01    0.108E-02
DAV:  10    -0.143953647060E+03    0.31982E-04   -0.61283E-05  3052   0.137E-01    0.815E-03
DAV:  11    -0.143953648634E+03   -0.15736E-05   -0.87914E-05  2784   0.675E-02
  46 F= -.14395365E+03 E0= -.14395195E+03  d E =-.154698E-03
       N       E                     dE             d eps       ncg     rms          rms(c)
DAV:   1    -0.143953674602E+03   -0.27541E-04   -0.10534E-02  2968   0.448E-01    0.208E-02
DAV:   2    -0.143953699067E+03   -0.24465E-04   -0.33341E-04  3100   0.766E-02    0.807E-03
DAV:   3    -0.143953696817E+03    0.22502E-05   -0.91792E-06  1776   0.153E-02    0.582E-03
DAV:   4    -0.143953694523E+03    0.22938E-05   -0.37234E-06  1756   0.122E-02    0.255E-03
DAV:   5    -0.143953693031E+03    0.14916E-05   -0.26338E-06  1770   0.139E-02    0.276E-03
DAV:   6    -0.143953692648E+03    0.38322E-06   -0.24570E-06  1530   0.937E-03
  47 F= -.14395369E+03 E0= -.14395200E+03  d E =-.198712E-03
       N       E                     dE             d eps       ncg     rms          rms(c)
DAV:   1    -0.143953814499E+03   -0.12147E-03   -0.50132E-03  2896   0.305E-01    0.105E-02
DAV:   2    -0.143953823277E+03   -0.87781E-05   -0.13789E-04  3070   0.481E-02    0.664E-03
DAV:   3    -0.143953821998E+03    0.12798E-05   -0.51592E-06  1682   0.115E-02    0.507E-03
DAV:   4    -0.143953821005E+03    0.99218E-06   -0.14629E-06  1534   0.739E-03    0.291E-03
DAV:   5    -0.143953819897E+03    0.11079E-05   -0.15225E-06  1756   0.112E-02    0.153E-03
DAV:   6    -0.143953819707E+03    0.18999E-06   -0.15040E-06  1472   0.714E-03
  48 F= -.14395382E+03 E0= -.14395212E+03  d E =-.127059E-03
       N       E                     dE             d eps       ncg     rms          rms(c)
DAV:   1    -0.143953996369E+03   -0.17647E-03   -0.45159E-02  2902   0.917E-01    0.324E-02
DAV:   2    -0.143954084275E+03   -0.87906E-04   -0.12861E-03  3088   0.145E-01    0.205E-02
DAV:   3    -0.143954074392E+03    0.98829E-05   -0.43289E-05  3022   0.303E-02    0.157E-02
DAV:   4    -0.143954067980E+03    0.64125E-05   -0.12517E-05  1780   0.169E-02    0.860E-03
DAV:   5    -0.143954062785E+03    0.51948E-05   -0.10146E-05  1876   0.215E-02    0.446E-03
DAV:   6    -0.143954062001E+03    0.78373E-06   -0.71534E-06  1620   0.155E-02
  49 F= -.14395406E+03 E0= -.14395233E+03  d E =-.369353E-03
       N       E                     dE             d eps       ncg     rms          rms(c)
DAV:   1    -0.143953656749E+03    0.40604E-03   -0.18054E-01  2900   0.183E+00    0.648E-02
DAV:   2    -0.143954010228E+03   -0.35348E-03   -0.51715E-03  3084   0.290E-01    0.413E-02
DAV:   3    -0.143953970148E+03    0.40080E-04   -0.17200E-04  3230   0.595E-02    0.315E-02
DAV:   4    -0.143953945241E+03    0.24907E-04   -0.53414E-05  2998   0.328E-02    0.169E-02
DAV:   5    -0.143953925632E+03    0.19609E-04   -0.32083E-05  2680   0.383E-02    0.831E-03
DAV:   6    -0.143953921425E+03    0.42067E-05   -0.23361E-05  2246   0.321E-02
  50 F= -.14395392E+03 E0= -.14395211E+03  d E =-.228777E-03
       N       E                     dE             d eps       ncg     rms          rms(c)
DAV:   1    -0.143953984837E+03   -0.59206E-04   -0.82544E-02  2892   0.124E+00    0.431E-02
DAV:   2    -0.143954138005E+03   -0.15317E-03   -0.22783E-03  3082   0.192E-01    0.272E-02
DAV:   3    -0.143954121675E+03    0.16330E-04   -0.85475E-05  3206   0.401E-02    0.204E-02
DAV:   4    -0.143954112711E+03    0.89644E-05   -0.18273E-05  1808   0.191E-02    0.118E-02
DAV:   5    -0.143954105824E+03    0.68869E-05   -0.19293E-05  2146   0.225E-02    0.566E-03
DAV:   6    -0.143954105148E+03    0.67585E-06   -0.83647E-06  1590   0.143E-02
  51 F= -.14395411E+03 E0= -.14395234E+03  d E =-.412500E-03
       N       E                     dE             d eps       ncg     rms          rms(c)
DAV:   1    -0.143954465602E+03   -0.35978E-03   -0.67339E-03  2828   0.348E-01    0.145E-02
DAV:   2    -0.143954473500E+03   -0.78973E-05   -0.21753E-04  3104   0.644E-02    0.107E-02
DAV:   3    -0.143954469206E+03    0.42937E-05   -0.15362E-05  1906   0.213E-02    0.847E-03
DAV:   4    -0.143954464197E+03    0.50087E-05   -0.45593E-06  1724   0.157E-02    0.489E-03
DAV:   5    -0.143954456390E+03    0.78076E-05   -0.47198E-06  1810   0.269E-02    0.368E-03
DAV:   6    -0.143954450080E+03    0.63093E-05   -0.63566E-06  1982   0.312E-02
  52 F= -.14395445E+03 E0= -.14395267E+03  d E =-.344932E-03
       N       E                     dE             d eps       ncg     rms          rms(c)
DAV:   1    -0.143954947551E+03   -0.49116E-03   -0.60325E-02  2804   0.105E+00    0.439E-02
DAV:   2    -0.143955026119E+03   -0.78567E-04   -0.20071E-03  3120   0.197E-01    0.299E-02
DAV:   3    -0.143954987500E+03    0.38619E-04   -0.13613E-04  3248   0.604E-02    0.247E-02
DAV:   4    -0.143954942239E+03    0.45261E-04   -0.28440E-05  2288   0.406E-02    0.148E-02
DAV:   5    -0.143954858549E+03    0.83690E-04   -0.50677E-05  2862   0.902E-02    0.124E-02
DAV:   6    -0.143954802154E+03    0.56395E-04   -0.48643E-05  2872   0.888E-02    0.116E-02
DAV:   7    -0.143954723670E+03    0.78483E-04   -0.91042E-05  3768   0.148E-01    0.105E-02
DAV:   8    -0.143954640748E+03    0.82923E-04   -0.65960E-05  3196   0.156E-01    0.667E-03
DAV:   9    -0.143954565416E+03    0.75331E-04   -0.13488E-04  3804   0.224E-01    0.150E-02
DAV:  10    -0.143954549741E+03    0.15675E-04   -0.20133E-04  3618   0.161E-01    0.611E-03
DAV:  11    -0.143954567510E+03   -0.17769E-04   -0.22503E-04  2822   0.514E-02    0.163E-02
DAV:  12    -0.143954564566E+03    0.29444E-05   -0.10362E-05  1642   0.143E-02
  53 F= -.14395456E+03 E0= -.14395271E+03  d E =-.459418E-03
       N       E                     dE             d eps       ncg     rms          rms(c)
DAV:   1    -0.143954689464E+03   -0.12195E-03   -0.75407E-03  2884   0.368E-01    0.192E-02
DAV:   2    -0.143954692095E+03   -0.26319E-05   -0.24687E-04  3168   0.746E-02    0.111E-02
DAV:   3    -0.143954687197E+03    0.48980E-05   -0.34810E-05  2570   0.303E-02    0.891E-03
DAV:   4    -0.143954682940E+03    0.42572E-05   -0.56758E-06  1714   0.132E-02    0.558E-03
DAV:   5    -0.143954674898E+03    0.80426E-05   -0.54163E-06  1800   0.250E-02    0.393E-03
DAV:   6    -0.143954668959E+03    0.59382E-05   -0.80762E-06  1988   0.305E-02
  54 F= -.14395467E+03 E0= -.14395283E+03  d E =-.563812E-03
       N       E                     dE             d eps       ncg     rms          rms(c)
DAV:   1    -0.143954685863E+03   -0.10965E-04   -0.30051E-03  2816   0.238E-01    0.104E-02
DAV:   2    -0.143954688807E+03   -0.29443E-05   -0.12752E-04  3116   0.522E-02    0.877E-03
DAV:   3    -0.143954685307E+03    0.35003E-05   -0.83662E-06  1738   0.148E-02    0.718E-03
DAV:   4    -0.143954678776E+03    0.65309E-05   -0.35165E-06  1798   0.166E-02    0.377E-03
DAV:   5    -0.143954669483E+03    0.92922E-05   -0.64094E-06  1810   0.313E-02    0.517E-03
DAV:   6    -0.143954664300E+03    0.51836E-05   -0.69909E-06  1924   0.273E-02
  55 F= -.14395466E+03 E0= -.14395284E+03  d E =-.559152E-03
       N       E                     dE             d eps       ncg     rms          rms(c)
DAV:   1    -0.143954855360E+03   -0.18588E-03   -0.17379E-02  2930   0.569E-01    0.210E-02
DAV:   2    -0.143954888575E+03   -0.33215E-04   -0.55818E-04  3136   0.102E-01    0.164E-02
DAV:   3    -0.143954881554E+03    0.70216E-05   -0.27602E-05  2352   0.237E-02    0.125E-02
DAV:   4    -0.143954875610E+03    0.59443E-05   -0.62037E-06  1722   0.144E-02    0.731E-03
DAV:   5    -0.143954866990E+03    0.86192E-05   -0.93976E-06  1832   0.278E-02    0.376E-03
DAV:   6    -0.143954864385E+03    0.26057E-05   -0.69691E-06  1714   0.171E-02
  56 F= -.14395486E+03 E0= -.14395302E+03  d E =-.200085E-03
       N       E                     dE             d eps       ncg     rms          rms(c)
DAV:   1    -0.143954934367E+03   -0.67376E-04   -0.28551E-02  2924   0.725E-01    0.257E-02
DAV:   2    -0.143954985816E+03   -0.51449E-04   -0.84604E-04  3128   0.123E-01    0.201E-02
DAV:   3    -0.143954974821E+03    0.10995E-04   -0.36384E-05  2706   0.313E-02    0.162E-02
DAV:   4    -0.143954965442E+03    0.93797E-05   -0.12198E-05  1784   0.212E-02    0.906E-03
DAV:   5    -0.143954951555E+03    0.13887E-04   -0.16456E-05  2112   0.399E-02    0.546E-03
DAV:   6    -0.143954948763E+03    0.27923E-05   -0.13277E-05  1778   0.212E-02
  57 F= -.14395495E+03 E0= -.14395308E+03  d E =-.284463E-03
       N       E                     dE             d eps       ncg     rms          rms(c)
DAV:   1    -0.143955071044E+03   -0.11949E-03   -0.22506E-02  2948   0.650E-01    0.212E-02
DAV:   2    -0.143955108042E+03   -0.36998E-04   -0.55661E-04  3072   0.100E-01    0.130E-02
DAV:   3    -0.143955098217E+03    0.98244E-05   -0.21474E-05  2080   0.276E-02    0.887E-03
DAV:   4    -0.143955088497E+03    0.97203E-05   -0.31836E-06  1778   0.219E-02    0.602E-03
DAV:   5    -0.143955066858E+03    0.21639E-04   -0.95704E-06  1928   0.536E-02    0.353E-03
DAV:   6    -0.143955060147E+03    0.67111E-05   -0.18345E-05  2162   0.292E-02
  58 F= -.14395506E+03 E0= -.14395316E+03  d E =-.111385E-03
       N       E                     dE             d eps       ncg     rms          rms(c)
DAV:   1    -0.143955097353E+03   -0.30495E-04   -0.49881E-02  2948   0.967E-01    0.299E-02
DAV:   2    -0.143955185076E+03   -0.87723E-04   -0.12657E-03  3070   0.145E-01    0.200E-02
DAV:   3    -0.143955162551E+03    0.22525E-04   -0.30346E-05  2432   0.385E-02    0.145E-02
DAV:   4    -0.143955138716E+03    0.23835E-04   -0.10065E-05  1854   0.398E-02    0.898E-03
DAV:   5    -0.143955097407E+03    0.41309E-04   -0.21490E-05  2312   0.766E-02    0.452E-03
DAV:   6    -0.143955079754E+03    0.17653E-04   -0.42262E-05  2648   0.513E-02    0.607E-03
DAV:   7    -0.143955058513E+03    0.21240E-04   -0.19140E-05  2138   0.508E-02    0.853E-03
DAV:   8    -0.143955003898E+03    0.54616E-04   -0.41417E-05  2850   0.157E-01    0.117E-02
DAV:   9    -0.143954984801E+03    0.19097E-04   -0.67457E-05  2962   0.865E-02    0.931E-03
DAV:  10    -0.143954970058E+03    0.14742E-04   -0.58589E-05  2994   0.115E-01    0.619E-03
DAV:  11    -0.143954974531E+03   -0.44720E-05   -0.78942E-05  2688   0.403E-02
  59 F= -.14395497E+03 E0= -.14395305E+03  d E =-.257680E-04
       N       E                     dE             d eps       ncg     rms          rms(c)
DAV:   1    -0.143954998022E+03   -0.27963E-04   -0.88094E-03  2904   0.409E-01    0.181E-02
DAV:   2    -0.143955018791E+03   -0.20769E-04   -0.27817E-04  3064   0.692E-02    0.800E-03
DAV:   3    -0.143955016669E+03    0.21223E-05   -0.75884E-06  1634   0.126E-02    0.543E-03
DAV:   4    -0.143955015136E+03    0.15323E-05   -0.29470E-06  1634   0.824E-03    0.247E-03
DAV:   5    -0.143955014032E+03    0.11042E-05   -0.17708E-06  1690   0.104E-02    0.208E-03
DAV:   6    -0.143955013667E+03    0.36519E-06   -0.13126E-06  1544   0.809E-03
  60 F= -.14395501E+03 E0= -.14395311E+03  d E =-.649044E-04
       N       E                     dE             d eps       ncg     rms          rms(c)
DAV:   1    -0.143955020880E+03   -0.68478E-05   -0.40463E-03  2984   0.276E-01    0.874E-03
DAV:   2    -0.143955028767E+03   -0.78869E-05   -0.10585E-04  3026   0.422E-02    0.544E-03
DAV:   3    -0.143955027336E+03    0.14302E-05   -0.24986E-06  1554   0.911E-03    0.397E-03
DAV:   4    -0.143955025795E+03    0.15418E-05   -0.79758E-07  1650   0.928E-03    0.229E-03
DAV:   5    -0.143955023676E+03    0.21183E-05   -0.14465E-06  1788   0.164E-02    0.137E-03
DAV:   6    -0.143955023328E+03    0.34828E-06   -0.24804E-06  1518   0.809E-03
  61 F= -.14395502E+03 E0= -.14395313E+03  d E =-.745655E-04
       N       E                     dE             d eps       ncg     rms          rms(c)
DAV:   1    -0.143955110377E+03   -0.86700E-04   -0.23194E-03  2908   0.210E-01    0.851E-03
DAV:   2    -0.143955113466E+03   -0.30895E-05   -0.77716E-05  3062   0.388E-02    0.549E-03
DAV:   3    -0.143955112488E+03    0.97836E-06   -0.56034E-06  1632   0.116E-02    0.457E-03
DAV:   4    -0.143955111648E+03    0.83986E-06   -0.98784E-07  1490   0.569E-03    0.298E-03
DAV:   5    -0.143955109863E+03    0.17844E-05   -0.19775E-06  1780   0.125E-02    0.201E-03
DAV:   6    -0.143955109189E+03    0.67397E-06   -0.12903E-06  1542   0.957E-03
  62 F= -.14395511E+03 E0= -.14395320E+03  d E =-.858614E-04
       N       E                     dE             d eps       ncg     rms          rms(c)
DAV:   1    -0.143955218959E+03   -0.10910E-03   -0.20957E-02  2884   0.632E-01    0.255E-02
DAV:   2    -0.143955258700E+03   -0.39741E-04   -0.75833E-04  3094   0.117E-01    0.179E-02
DAV:   3    -0.143955251497E+03    0.72030E-05   -0.41953E-05  2852   0.279E-02    0.144E-02
DAV:   4    -0.143955246854E+03    0.46427E-05   -0.71812E-06  1668   0.113E-02    0.904E-03
DAV:   5    -0.143955240208E+03    0.66465E-05   -0.16433E-05  1838   0.218E-02    0.506E-03
DAV:   6    -0.143955239042E+03    0.11661E-05   -0.55487E-06  1684   0.144E-02
  63 F= -.14395524E+03 E0= -.14395328E+03  d E =-.215714E-03
       N       E                     dE             d eps       ncg     rms          rms(c)
DAV:   1    -0.143955390707E+03   -0.15050E-03   -0.30749E-03  2844   0.237E-01    0.889E-03
DAV:   2    -0.143955393424E+03   -0.27176E-05   -0.87383E-05  3056   0.428E-02    0.711E-03
DAV:   3    -0.143955390743E+03    0.26809E-05   -0.64631E-06  1636   0.142E-02    0.533E-03
DAV:   4    -0.143955386868E+03    0.38753E-05   -0.12556E-06  1770   0.114E-02    0.356E-03
DAV:   5    -0.143955380374E+03    0.64939E-05   -0.26498E-06  1790   0.236E-02    0.300E-03
DAV:   6    -0.143955374178E+03    0.61959E-05   -0.42865E-06  1922   0.315E-02
  64 F= -.14395537E+03 E0= -.14395341E+03  d E =-.135137E-03
       N       E                     dE             d eps       ncg     rms          rms(c)
DAV:   1    -0.143955534800E+03   -0.15443E-03   -0.27079E-02  2884   0.712E-01    0.276E-02
DAV:   2    -0.143955584802E+03   -0.50002E-04   -0.94721E-04  3158   0.136E-01    0.209E-02
DAV:   3    -0.143955564265E+03    0.20538E-04   -0.42128E-05  2676   0.317E-02    0.162E-02
DAV:   4    -0.143955527820E+03    0.36444E-04   -0.23789E-05  2364   0.371E-02    0.854E-03
DAV:   5    -0.143955494186E+03    0.33635E-04   -0.20114E-05  2266   0.509E-02    0.939E-03
DAV:   6    -0.143955460025E+03    0.34160E-04   -0.23424E-05  2388   0.744E-02    0.488E-03
DAV:   7    -0.143955403895E+03    0.56130E-04   -0.43223E-05  2974   0.142E-01    0.833E-03
DAV:   8    -0.143955341585E+03    0.62310E-04   -0.13005E-04  3888   0.204E-01    0.762E-03
DAV:   9    -0.143955328914E+03    0.12671E-04   -0.12376E-04  3218   0.128E-01    0.114E-02
DAV:  10    -0.143955338415E+03   -0.95010E-05   -0.18071E-04  2656   0.509E-02    0.120E-02
DAV:  11    -0.143955337639E+03    0.77659E-06   -0.70096E-06  1610   0.145E-02
  65 F= -.14395534E+03 E0= -.14395332E+03  d E =-.985971E-04
       N       E                     dE             d eps       ncg     rms          rms(c)
DAV:   1    -0.143955445989E+03   -0.10757E-03   -0.54858E-03  2962   0.315E-01    0.181E-02
DAV:   2    -0.143955445960E+03    0.28556E-07   -0.16207E-04  3164   0.638E-02    0.816E-03
DAV:   3    -0.143955441889E+03    0.40712E-05   -0.27256E-05  2308   0.282E-02    0.637E-03
DAV:   4    -0.143955438632E+03    0.32575E-05   -0.45476E-06  1652   0.120E-02    0.413E-03
DAV:   5    -0.143955432859E+03    0.57728E-05   -0.35256E-06  1796   0.201E-02    0.316E-03
DAV:   6    -0.143955427657E+03    0.52022E-05   -0.57292E-06  1940   0.287E-02
  66 F= -.14395543E+03 E0= -.14395343E+03  d E =-.188615E-03
       N       E                     dE             d eps       ncg     rms          rms(c)
DAV:   1    -0.143955453305E+03   -0.20446E-04   -0.34086E-03  2972   0.253E-01    0.947E-03
DAV:   2    -0.143955455702E+03   -0.23974E-05   -0.11111E-04  3080   0.496E-02    0.732E-03
DAV:   3    -0.143955451901E+03    0.38017E-05   -0.69122E-06  1702   0.145E-02    0.621E-03
DAV:   4    -0.143955443830E+03    0.80705E-05   -0.28170E-06  1802   0.186E-02    0.359E-03
DAV:   5    -0.143955431689E+03    0.12141E-04   -0.85195E-06  1892   0.384E-02    0.578E-03
DAV:   6    -0.143955428489E+03    0.32002E-05   -0.98846E-06  1848   0.213E-02
  67 F= -.14395543E+03 E0= -.14395344E+03  d E =-.189447E-03
       N       E                     dE             d eps       ncg     rms          rms(c)
DAV:   1    -0.143955486316E+03   -0.54627E-04   -0.49019E-03  2976   0.312E-01    0.114E-02
DAV:   2    -0.143955500097E+03   -0.13782E-04   -0.22452E-04  3022   0.641E-02    0.149E-02
DAV:   3    -0.143955496180E+03    0.39173E-05   -0.12850E-05  1724   0.166E-02    0.113E-02
DAV:   4    -0.143955492137E+03    0.40436E-05   -0.55297E-06  1636   0.105E-02    0.648E-03
DAV:   5    -0.143955487390E+03    0.47465E-05   -0.73915E-06  1806   0.171E-02    0.370E-03
DAV:   6    -0.143955486475E+03    0.91455E-06   -0.32073E-06  1476   0.886E-03
  68 F= -.14395549E+03 E0= -.14395349E+03  d E =-.579866E-04
