       N       E                     dE             d eps       ncg     rms          rms(c)
DAV:   1     0.519873175922E+03    0.51987E+03   -0.45891E+04  2788   0.136E+03
DAV:   2    -0.104603254145E+03   -0.62448E+03   -0.59484E+03  3600   0.258E+02
DAV:   3    -0.161324229920E+03   -0.56721E+02   -0.56436E+02  3232   0.846E+01
DAV:   4    -0.162031140829E+03   -0.70691E+00   -0.70596E+00  3240   0.103E+01
DAV:   5    -0.162041899601E+03   -0.10759E-01   -0.10755E-01  3360   0.125E+00    0.231E+01
DAV:   6    -0.146064254349E+03    0.15978E+02   -0.91737E+01  3080   0.303E+01    0.775E+00
DAV:   7    -0.145929167679E+03    0.13509E+00   -0.15842E+00  3070   0.511E+00    0.475E+00
DAV:   8    -0.145818491404E+03    0.11068E+00   -0.50169E-01  3342   0.409E+00    0.778E-01
DAV:   9    -0.145806164174E+03    0.12327E-01   -0.11558E-01  3164   0.126E+00    0.518E-01
DAV:  10    -0.145804107262E+03    0.20569E-02   -0.29500E-02  3166   0.692E-01    0.253E-01
DAV:  11    -0.145804694241E+03   -0.58698E-03   -0.43059E-03  3168   0.291E-01    0.151E-01
DAV:  12    -0.145804410647E+03    0.28359E-03   -0.13479E-03  3368   0.231E-01    0.649E-02
DAV:  13    -0.145804264708E+03    0.14594E-03   -0.17111E-03  3198   0.176E-01    0.548E-02
DAV:  14    -0.145804140433E+03    0.12427E-03   -0.20165E-04  3752   0.918E-02    0.346E-02
DAV:  15    -0.145803981813E+03    0.15862E-03   -0.23510E-04  3972   0.128E-01    0.190E-02
DAV:  16    -0.145803906136E+03    0.75677E-04   -0.46286E-04  3924   0.165E-01    0.432E-02
DAV:  17    -0.145803846113E+03    0.60024E-04   -0.20355E-04  3200   0.645E-02    0.274E-02
DAV:  18    -0.145803795991E+03    0.50122E-04   -0.60308E-05  3036   0.459E-02    0.129E-02
DAV:  19    -0.145803737727E+03    0.58264E-04   -0.63666E-05  3038   0.995E-02    0.146E-02
DAV:  20    -0.145803690122E+03    0.47605E-04   -0.47646E-05  3054   0.121E-01    0.139E-02
DAV:  21    -0.145803642378E+03    0.47744E-04   -0.13059E-04  3772   0.201E-01    0.713E-03
DAV:  22    -0.145803647813E+03   -0.54351E-05   -0.17444E-04  2786   0.705E-02    0.108E-02
DAV:  23    -0.145803647959E+03   -0.14585E-06   -0.37220E-05  2558   0.287E-02
   1 F= -.14580365E+03 E0= -.14580125E+03  d E =-.145804E+03
       N       E                     dE             d eps       ncg     rms          rms(c)
DAV:   1    -0.145804042125E+03   -0.39431E-03   -0.21701E-02  2818   0.639E-01    0.239E-02
DAV:   2    -0.145804087232E+03   -0.45107E-04   -0.77783E-04  3230   0.114E-01    0.218E-02
DAV:   3    -0.145804074172E+03    0.13060E-04   -0.25503E-05  2444   0.272E-02    0.166E-02
DAV:   4    -0.145804059828E+03    0.14344E-04   -0.29494E-05  2546   0.319E-02    0.723E-03
DAV:   5    -0.145804047517E+03    0.12311E-04   -0.13101E-05  2052   0.309E-02    0.556E-03
DAV:   6    -0.145804038102E+03    0.94145E-05   -0.81894E-06  1972   0.275E-02
   2 F= -.14580404E+03 E0= -.14580163E+03  d E =-.390143E-03
       N       E                     dE             d eps       ncg     rms          rms(c)
DAV:   1    -0.145804112841E+03   -0.65324E-04   -0.14277E-02  2866   0.517E-01    0.195E-02
DAV:   2    -0.145804130651E+03   -0.17809E-04   -0.47334E-04  3246   0.872E-02    0.155E-02
DAV:   3    -0.145804116195E+03    0.14455E-04   -0.16162E-05  2354   0.236E-02    0.112E-02
DAV:   4    -0.145804097502E+03    0.18693E-04   -0.16661E-05  2196   0.324E-02    0.571E-03
DAV:   5    -0.145804074592E+03    0.22910E-04   -0.10836E-05  2108   0.418E-02    0.431E-03
DAV:   6    -0.145804039715E+03    0.34877E-04   -0.15808E-05  2308   0.747E-02    0.403E-03
DAV:   7    -0.145804014243E+03    0.25472E-04   -0.32027E-05  2710   0.767E-02    0.569E-03
DAV:   8    -0.145804002588E+03    0.11655E-04   -0.31008E-05  2564   0.580E-02    0.390E-03
DAV:   9    -0.145803982677E+03    0.19911E-04   -0.18989E-05  2266   0.111E-01    0.453E-03
DAV:  10    -0.145803982958E+03   -0.28115E-06   -0.46303E-05  2798   0.377E-02
   3 F= -.14580398E+03 E0= -.14580154E+03  d E =-.334999E-03
       N       E                     dE             d eps       ncg     rms          rms(c)
DAV:   1    -0.145804020081E+03   -0.37404E-04   -0.23112E-03  2886   0.208E-01    0.894E-03
DAV:   2    -0.145804023875E+03   -0.37940E-05   -0.78875E-05  3166   0.361E-02    0.672E-03
DAV:   3    -0.145804022401E+03    0.14743E-05   -0.29250E-06  1614   0.866E-03    0.483E-03
DAV:   4    -0.145804020860E+03    0.15410E-05   -0.39704E-06  1744   0.103E-02    0.201E-03
DAV:   5    -0.145804020280E+03    0.58030E-06   -0.14988E-06  1534   0.654E-03    0.181E-03
DAV:   6    -0.145804019914E+03    0.36535E-06   -0.99374E-07  1558   0.575E-03
   4 F= -.14580402E+03 E0= -.14580158E+03  d E =-.371955E-03
       N       E                     dE             d eps       ncg     rms          rms(c)
DAV:   1    -0.145804216570E+03   -0.19629E-03   -0.25975E-02  2842   0.693E-01    0.263E-02
DAV:   2    -0.145804273735E+03   -0.57166E-04   -0.75071E-04  3126   0.112E-01    0.158E-02
DAV:   3    -0.145804268478E+03    0.52576E-05   -0.20127E-05  2102   0.216E-02    0.113E-02
DAV:   4    -0.145804262458E+03    0.60203E-05   -0.11840E-05  1802   0.180E-02    0.501E-03
DAV:   5    -0.145804258771E+03    0.36862E-05   -0.42024E-06  1770   0.191E-02    0.455E-03
DAV:   6    -0.145804256108E+03    0.26635E-05   -0.29745E-06  1778   0.203E-02
   5 F= -.14580426E+03 E0= -.14580178E+03  d E =-.236194E-03
       N       E                     dE             d eps       ncg     rms          rms(c)
DAV:   1    -0.145804275210E+03   -0.16438E-04   -0.27350E-02  2836   0.714E-01    0.275E-02
DAV:   2    -0.145804339285E+03   -0.64075E-04   -0.85076E-04  3146   0.121E-01    0.184E-02
DAV:   3    -0.145804331121E+03    0.81641E-05   -0.22462E-05  2132   0.235E-02    0.130E-02
DAV:   4    -0.145804319126E+03    0.11994E-04   -0.22230E-05  2254   0.268E-02    0.595E-03
DAV:   5    -0.145804314128E+03    0.49983E-05   -0.45997E-06  1770   0.205E-02    0.571E-03
DAV:   6    -0.145804306257E+03    0.78709E-05   -0.39784E-06  1794   0.368E-02
   6 F= -.14580431E+03 E0= -.14580180E+03  d E =-.286343E-03
       N       E                     dE             d eps       ncg     rms          rms(c)
DAV:   1    -0.145804393904E+03   -0.79776E-04   -0.13005E-01  2840   0.153E+00    0.506E-02
DAV:   2    -0.145804649013E+03   -0.25511E-03   -0.31939E-03  3156   0.218E-01    0.298E-02
DAV:   3    -0.145804621738E+03    0.27276E-04   -0.59453E-05  3256   0.373E-02    0.215E-02
DAV:   4    -0.145804598141E+03    0.23597E-04   -0.40307E-05  2796   0.372E-02    0.942E-03
DAV:   5    -0.145804583122E+03    0.15019E-04   -0.19762E-05  2346   0.281E-02    0.521E-03
DAV:   6    -0.145804570193E+03    0.12930E-04   -0.75141E-06  1956   0.247E-02    0.371E-03
DAV:   7    -0.145804555877E+03    0.14316E-04   -0.64537E-06  2058   0.363E-02    0.390E-03
DAV:   8    -0.145804528896E+03    0.26981E-04   -0.20527E-05  2346   0.888E-02    0.528E-03
DAV:   9    -0.145804517209E+03    0.11686E-04   -0.47988E-05  2974   0.797E-02    0.521E-03
DAV:  10    -0.145804518661E+03   -0.14519E-05   -0.41897E-05  2544   0.256E-02
   7 F= -.14580452E+03 E0= -.14580200E+03  d E =-.212404E-03
       N       E                     dE             d eps       ncg     rms          rms(c)
DAV:   1    -0.145804516168E+03    0.10411E-05   -0.89836E-03  2876   0.400E-01    0.144E-02
DAV:   2    -0.145804534072E+03   -0.17904E-04   -0.23321E-04  3162   0.604E-02    0.803E-03
DAV:   3    -0.145804532363E+03    0.17086E-05   -0.54537E-06  1672   0.109E-02    0.609E-03
DAV:   4    -0.145804530563E+03    0.18009E-05   -0.27048E-06  1658   0.107E-02    0.272E-03
DAV:   5    -0.145804529116E+03    0.14469E-05   -0.22857E-06  1734   0.114E-02    0.193E-03
DAV:   6    -0.145804528177E+03    0.93832E-06   -0.84070E-07  1602   0.793E-03
   8 F= -.14580453E+03 E0= -.14580200E+03  d E =-.221920E-03
       N       E                     dE             d eps       ncg     rms          rms(c)
DAV:   1    -0.145804668260E+03   -0.13914E-03   -0.46960E-02  2880   0.943E-01    0.319E-02
DAV:   2    -0.145804762472E+03   -0.94212E-04   -0.12168E-03  3216   0.145E-01    0.212E-02
DAV:   3    -0.145804750738E+03    0.11734E-04   -0.37622E-05  2852   0.361E-02    0.166E-02
DAV:   4    -0.145804740000E+03    0.10738E-04   -0.20019E-05  2082   0.301E-02    0.827E-03
DAV:   5    -0.145804729880E+03    0.10121E-04   -0.91812E-06  1904   0.379E-02    0.541E-03
DAV:   6    -0.145804723366E+03    0.65138E-05   -0.13250E-05  2090   0.389E-02
   9 F= -.14580472E+03 E0= -.14580218E+03  d E =-.195188E-03
       N       E                     dE             d eps       ncg     rms          rms(c)
DAV:   1    -0.145804722233E+03    0.76462E-05   -0.61367E-03  2852   0.343E-01    0.123E-02
DAV:   2    -0.145804731062E+03   -0.88288E-05   -0.17602E-04  3182   0.584E-02    0.878E-03
DAV:   3    -0.145804726669E+03    0.43931E-05   -0.72238E-06  1768   0.184E-02    0.728E-03
DAV:   4    -0.145804719868E+03    0.68013E-05   -0.33209E-06  1794   0.206E-02    0.393E-03
DAV:   5    -0.145804710757E+03    0.91109E-05   -0.50634E-06  1858   0.345E-02    0.420E-03
DAV:   6    -0.145804704936E+03    0.58209E-05   -0.82983E-06  1954   0.319E-02
  10 F= -.14580470E+03 E0= -.14580216E+03  d E =-.176759E-03
       N       E                     dE             d eps       ncg     rms          rms(c)
DAV:   1    -0.145804813419E+03   -0.10266E-03   -0.15493E-02  2876   0.531E-01    0.171E-02
DAV:   2    -0.145804831826E+03   -0.18407E-04   -0.36320E-04  3214   0.782E-02    0.125E-02
DAV:   3    -0.145804822870E+03    0.89561E-05   -0.74687E-06  1940   0.149E-02    0.896E-03
DAV:   4    -0.145804803272E+03    0.19598E-04   -0.18158E-05  2266   0.354E-02    0.520E-03
DAV:   5    -0.145804796657E+03    0.66151E-05   -0.97528E-06  1836   0.219E-02    0.581E-03
DAV:   6    -0.145804786380E+03    0.10277E-04   -0.41131E-06  1858   0.297E-02    0.344E-03
DAV:   7    -0.145804761558E+03    0.24822E-04   -0.15292E-05  2272   0.797E-02    0.491E-03
DAV:   8    -0.145804748923E+03    0.12635E-04   -0.35379E-05  2694   0.653E-02    0.582E-03
DAV:   9    -0.145804743212E+03    0.57110E-05   -0.22730E-05  2408   0.473E-02
  11 F= -.14580474E+03 E0= -.14580217E+03  d E =-.382758E-04
       N       E                     dE             d eps       ncg     rms          rms(c)
DAV:   1    -0.145804736895E+03    0.12028E-04   -0.14729E-05  2228   0.638E-02    0.758E-03
DAV:   2    -0.145804737745E+03   -0.85030E-06   -0.32572E-05  2600   0.246E-02    0.518E-03
DAV:   3    -0.145804737359E+03    0.38674E-06   -0.46871E-06  1602   0.880E-03    0.265E-03
DAV:   4    -0.145804737094E+03    0.26515E-06   -0.56843E-07  1570   0.424E-03    0.140E-03
DAV:   5    -0.145804736695E+03    0.39829E-06   -0.61791E-07  1682   0.647E-03    0.129E-03
DAV:   6    -0.145804736469E+03    0.22648E-06   -0.21933E-07  1494   0.572E-03
  12 F= -.14580474E+03 E0= -.14580216E+03  d E =-.315328E-04
       N       E                     dE             d eps       ncg     rms          rms(c)
DAV:   1    -0.145804826711E+03   -0.90016E-04   -0.13668E-02  2868   0.490E-01    0.146E-02
DAV:   2    -0.145804850274E+03   -0.23563E-04   -0.28287E-04  3156   0.678E-02    0.933E-03
DAV:   3    -0.145804847582E+03    0.26920E-05   -0.50993E-06  1760   0.141E-02    0.651E-03
DAV:   4    -0.145804844888E+03    0.26944E-05   -0.43242E-06  1852   0.155E-02    0.264E-03
DAV:   5    -0.145804844260E+03    0.62725E-06   -0.41143E-06  1702   0.132E-02    0.266E-03
DAV:   6    -0.145804844271E+03   -0.10271E-07   -0.18297E-06  1462   0.599E-03
  13 F= -.14580484E+03 E0= -.14580225E+03  d E =-.107802E-03
       N       E                     dE             d eps       ncg     rms          rms(c)
DAV:   1    -0.145804849586E+03   -0.53256E-05   -0.64197E-02  2860   0.106E+00    0.325E-02
DAV:   2    -0.145804955774E+03   -0.10619E-03   -0.13401E-03  3228   0.151E-01    0.197E-02
DAV:   3    -0.145804941867E+03    0.13908E-04   -0.31083E-05  2734   0.334E-02    0.146E-02
DAV:   4    -0.145804926711E+03    0.15156E-04   -0.16441E-05  2104   0.321E-02    0.700E-03
DAV:   5    -0.145804917519E+03    0.91922E-05   -0.16873E-05  2210   0.397E-02    0.605E-03
DAV:   6    -0.145804915551E+03    0.19686E-05   -0.17560E-05  1792   0.254E-02
  14 F= -.14580492E+03 E0= -.14580230E+03  d E =-.179082E-03
       N       E                     dE             d eps       ncg     rms          rms(c)
DAV:   1    -0.145804987543E+03   -0.70024E-04   -0.28398E-02  2948   0.731E-01    0.230E-02
DAV:   2    -0.145805041909E+03   -0.54366E-04   -0.66150E-04  3112   0.102E-01    0.128E-02
DAV:   3    -0.145805033285E+03    0.86234E-05   -0.61417E-06  1882   0.187E-02    0.885E-03
DAV:   4    -0.145805020766E+03    0.12519E-04   -0.63672E-06  1844   0.319E-02    0.399E-03
DAV:   5    -0.145805010285E+03    0.10481E-04   -0.10495E-05  1942   0.362E-02    0.298E-03
DAV:   6    -0.145805002658E+03    0.76275E-05   -0.79789E-06  1810   0.299E-02
  15 F= -.14580500E+03 E0= -.14580237E+03  d E =-.871071E-04
       N       E                     dE             d eps       ncg     rms          rms(c)
DAV:   1    -0.145804773761E+03    0.23652E-03   -0.15847E-01  2956   0.173E+00    0.512E-02
DAV:   2    -0.145805101780E+03   -0.32802E-03   -0.38003E-03  3104   0.243E-01    0.311E-02
DAV:   3    -0.145805064681E+03    0.37100E-04   -0.40770E-05  2846   0.327E-02    0.211E-02
DAV:   4    -0.145805017965E+03    0.46716E-04   -0.35844E-05  2740   0.483E-02    0.901E-03
DAV:   5    -0.145804987360E+03    0.30605E-04   -0.36343E-05  2738   0.529E-02    0.528E-03
DAV:   6    -0.145804961794E+03    0.25566E-04   -0.18146E-05  2020   0.487E-02    0.499E-03
DAV:   7    -0.145804927815E+03    0.33979E-04   -0.79633E-06  2002   0.579E-02    0.442E-03
DAV:   8    -0.145804827858E+03    0.99957E-04   -0.13920E-04  3674   0.238E-01    0.862E-03
DAV:   9    -0.145804824903E+03    0.29555E-05   -0.13768E-04  3086   0.804E-02    0.866E-03
DAV:  10    -0.145804832580E+03   -0.76769E-05   -0.78470E-05  2808   0.313E-02
  16 F= -.14580483E+03 E0= -.14580219E+03  d E =0.829708E-04
       N       E                     dE             d eps       ncg     rms          rms(c)
DAV:   1    -0.145804877821E+03   -0.52918E-04   -0.47448E-02  2964   0.942E-01    0.320E-02
DAV:   2    -0.145804986620E+03   -0.10880E-03   -0.12248E-03  3096   0.135E-01    0.173E-02
DAV:   3    -0.145804977494E+03    0.91263E-05   -0.12148E-05  2014   0.200E-02    0.119E-02
DAV:   4    -0.145804969224E+03    0.82696E-05   -0.22603E-05  2368   0.291E-02    0.386E-03
DAV:   5    -0.145804967412E+03    0.18118E-05   -0.10684E-05  1764   0.151E-02    0.349E-03
DAV:   6    -0.145804965800E+03    0.16124E-05   -0.19456E-06  1596   0.689E-03
  17 F= -.14580497E+03 E0= -.14580234E+03  d E =-.502495E-04
       N       E                     dE             d eps       ncg     rms          rms(c)
DAV:   1    -0.145804986953E+03   -0.19540E-04   -0.74449E-03  2928   0.374E-01    0.117E-02
DAV:   2    -0.145804999688E+03   -0.12735E-04   -0.17844E-04  3122   0.544E-02    0.712E-03
DAV:   3    -0.145804996743E+03    0.29447E-05   -0.41837E-06  1728   0.117E-02    0.481E-03
DAV:   4    -0.145804993007E+03    0.37362E-05   -0.13560E-06  1786   0.117E-02    0.282E-03
DAV:   5    -0.145804986856E+03    0.61507E-05   -0.31500E-06  1902   0.243E-02    0.213E-03
DAV:   6    -0.145804984250E+03    0.26060E-05   -0.51922E-06  1730   0.170E-02
  18 F= -.14580498E+03 E0= -.14580236E+03  d E =-.686996E-04
       N       E                     dE             d eps       ncg     rms          rms(c)
DAV:   1    -0.145804981884E+03    0.49717E-05   -0.49783E-03  3044   0.309E-01    0.910E-03
DAV:   2    -0.145804993358E+03   -0.11473E-04   -0.14774E-04  3130   0.484E-02    0.820E-03
DAV:   3    -0.145804990922E+03    0.24360E-05   -0.21578E-06  1688   0.715E-03    0.566E-03
DAV:   4    -0.145804986745E+03    0.41762E-05   -0.32858E-06  1786   0.129E-02    0.241E-03
DAV:   5    -0.145804984530E+03    0.22151E-05   -0.14217E-06  1698   0.130E-02    0.162E-03
DAV:   6    -0.145804979333E+03    0.51974E-05   -0.17268E-06  1886   0.293E-02
  19 F= -.14580498E+03 E0= -.14580236E+03  d E =-.637824E-04
       N       E                     dE             d eps       ncg     rms          rms(c)
DAV:   1    -0.145804974852E+03    0.96786E-05   -0.12896E-04  2842   0.588E-02    0.358E-03
DAV:   2    -0.145804974945E+03   -0.93432E-07   -0.12343E-05  1718   0.161E-02    0.281E-03
DAV:   3    -0.145804974296E+03    0.64957E-06   -0.10233E-06  1554   0.500E-03    0.174E-03
DAV:   4    -0.145804972971E+03    0.13245E-05   -0.58169E-07  1698   0.748E-03    0.119E-03
DAV:   5    -0.145804972054E+03    0.91714E-06   -0.37044E-07  1618   0.811E-03    0.102E-03
DAV:   6    -0.145804967629E+03    0.44247E-05   -0.15978E-06  1860   0.419E-02
  20 F= -.14580497E+03 E0= -.14580235E+03  d E =-.520788E-04
       N       E                     dE             d eps       ncg     rms          rms(c)
DAV:   1    -0.145805032118E+03   -0.60064E-04   -0.18120E-02  2940   0.580E-01    0.231E-02
DAV:   2    -0.145805080209E+03   -0.48092E-04   -0.63615E-04  3162   0.102E-01    0.163E-02
DAV:   3    -0.145805073931E+03    0.62783E-05   -0.16732E-05  1848   0.200E-02    0.121E-02
DAV:   4    -0.145805068764E+03    0.51670E-05   -0.15830E-05  2114   0.181E-02    0.480E-03
DAV:   5    -0.145805066369E+03    0.23953E-05   -0.50450E-06  1818   0.154E-02    0.371E-03
DAV:   6    -0.145805065034E+03    0.13353E-05   -0.29708E-06  1772   0.165E-02
  21 F= -.14580507E+03 E0= -.14580244E+03  d E =-.974042E-04
