 vasp.5.3.5 31Mar14 (build Apr 08 2024 10:12:10) complex                        
  
 executed on             LinuxIFC date 2024.07.29  10:12:17
 running on    8 total cores
 distrk:  each k-point on    8 cores,    1 groups
 distr:  one band on NCORES_PER_BAND=   4 cores,    2 groups


--------------------------------------------------------------------------------------------------------


 INCAR:
 POTCAR:    PAW_PBE O 08Apr2002                   
 POTCAR:    PAW_PBE Mg 13Apr2007                  
 POTCAR:    PAW_PBE Al 04Jan2001                  
 POTCAR:    PAW_PBE O 08Apr2002                   
   VRHFIN =O: s2p4                                                              
   LEXCH  = PE                                                                  
   EATOM  =   432.3788 eV,   31.7789 Ry                                         
                                                                                
   TITEL  = PAW_PBE O 08Apr2002                                                 
   LULTRA =        F    use ultrasoft PP ?                                      
   IUNSCR =        1    unscreen: 0-lin 1-nonlin 2-no                           
   RPACOR =    1.200    partial core radius                                     
   POMASS =   16.000; ZVAL   =    6.000    mass and valenz                      
   RCORE  =    1.520    outmost cutoff radius                                   
   RWIGS  =    1.550; RWIGS  =    0.820    wigner-seitz radius (au A)           
   ENMAX  =  400.000; ENMIN  =  300.000 eV                                      
   ICORE  =        2    local potential                                         
   LCOR   =        T    correct aug charges                                     
   LPAW   =        T    paw PP                                                  
   EAUG   =  605.392                                                            
   DEXC   =    0.000                                                            
   RMAX   =    1.553    core radius for proj-oper                               
   RAUG   =    1.300    factor for augmentation sphere                          
   RDEP   =    1.550    radius for radial grids                                 
   RDEPT  =    1.329    core radius for aug-charge                              
                                                                                
   Atomic configuration                                                         
    4 entries                                                                   
     n  l   j            E        occ.                                          
     1  0  0.50      -514.6923   2.0000                                         
     2  0  0.50       -23.9615   2.0000                                         
     2  1  0.50        -9.0305   4.0000                                         
     3  2  1.50        -9.5241   0.0000                                         
   Description                                                                  
     l       E           TYP  RCUT    TYP  RCUT                                 
     0    -23.9615318     23  1.200                                             
     0     -9.5240782     23  1.200                                             
     1     -9.0304911     23  1.520                                             
     1      8.1634956     23  1.520                                             
     2     -9.5240782      7  1.500                                             
  local pseudopotential read in
  partial core-charges read in
  partial kinetic energy density read in
  kinetic energy density of atom read in
  atomic valenz-charges read in
  non local Contribution for L=           0  read in
    real space projection operators read in
  non local Contribution for L=           0  read in
    real space projection operators read in
  non local Contribution for L=           1  read in
    real space projection operators read in
  non local Contribution for L=           1  read in
    real space projection operators read in
    PAW grid and wavefunctions read in
 
   number of l-projection  operators is LMAX  =           4
   number of lm-projection operators is LMMAX =           8
 
 POTCAR:    PAW_PBE Mg 13Apr2007                  
   VRHFIN =Mg: s2p0                                                             
   LEXCH  = PE                                                                  
   EATOM  =    23.0369 eV,    1.6932 Ry                                         
                                                                                
   TITEL  = PAW_PBE Mg 13Apr2007                                                
   LULTRA =        F    use ultrasoft PP ?                                      
   IUNSCR =        1    unscreen: 0-lin 1-nonlin 2-no                           
   RPACOR =    1.500    partial core radius                                     
   POMASS =   24.305; ZVAL   =    2.000    mass and valenz                      
   RCORE  =    2.000    outmost cutoff radius                                   
   RWIGS  =    2.880; RWIGS  =    1.524    wigner-seitz radius (au A)           
   ENMAX  =  200.000; ENMIN  =  100.000 eV                                      
   RCLOC  =    1.506    cutoff for local pot                                    
   LCOR   =        T    correct aug charges                                     
   LPAW   =        T    paw PP                                                  
   EAUG   =  454.734                                                            
   DEXC   =    0.000                                                            
   RMAX   =    2.045    core radius for proj-oper                               
   RAUG   =    1.300    factor for augmentation sphere                          
   RDEP   =    2.025    radius for radial grids                                 
   RDEPT  =    1.942    core radius for aug-charge                              
                                                                                
   Atomic configuration                                                         
    6 entries                                                                   
     n  l   j            E        occ.                                          
     1  0  0.50     -1259.6230   2.0000                                         
     2  0  0.50       -79.8442   2.0000                                         
     2  1  1.50       -46.6121   6.0000                                         
     3  0  0.50        -4.7055   2.0000                                         
     3  1  0.50        -1.3660   0.0000                                         
     3  2  1.50        -1.3606   0.0000                                         
   Description                                                                  
     l       E           TYP  RCUT    TYP  RCUT                                 
     0     -4.7054661     23  2.000                                             
     0     27.2116520     23  2.000                                             
     1      1.3605826     23  2.000                                             
     1     27.2116520     23  2.000                                             
     2     -1.3605826     23  2.000                                             
  local pseudopotential read in
  partial core-charges read in
  partial kinetic energy density read in
  atomic valenz-charges read in
  non local Contribution for L=           0  read in
    real space projection operators read in
  non local Contribution for L=           0  read in
    real space projection operators read in
  non local Contribution for L=           1  read in
    real space projection operators read in
  non local Contribution for L=           1  read in
    real space projection operators read in
  non local Contribution for L=           2  read in
    real space projection operators read in
    PAW grid and wavefunctions read in
 
   number of l-projection  operators is LMAX  =           5
   number of lm-projection operators is LMMAX =          13
 
 POTCAR:    PAW_PBE Al 04Jan2001                  
   VRHFIN =Al: s2p1                                                             
   LEXCH  = PE                                                                  
   EATOM  =    53.5387 eV,    3.9350 Ry                                         
                                                                                
   TITEL  = PAW_PBE Al 04Jan2001                                                
   LULTRA =        F    use ultrasoft PP ?                                      
   IUNSCR =        1    unscreen: 0-lin 1-nonlin 2-no                           
   RPACOR =    1.500    partial core radius                                     
   POMASS =   26.981; ZVAL   =    3.000    mass and valenz                      
   RCORE  =    1.900    outmost cutoff radius                                   
   RWIGS  =    2.650; RWIGS  =    1.402    wigner-seitz radius (au A)           
   ENMAX  =  240.300; ENMIN  =  180.225 eV                                      
   ICORE  =        2    local potential                                         
   LCOR   =        T    correct aug charges                                     
   LPAW   =        T    paw PP                                                  
   EAUG   =  291.052                                                            
   DEXC   =    0.000                                                            
   RMAX   =    1.939    core radius for proj-oper                               
   RAUG   =    1.300    factor for augmentation sphere                          
   RDEP   =    1.966    radius for radial grids                                 
   RDEPT  =    1.856    core radius for aug-charge                              
                                                                                
   Atomic configuration                                                         
    6 entries                                                                   
     n  l   j            E        occ.                                          
     1  0  0.50     -1511.1048   2.0000                                         
     2  0  0.50      -108.1629   2.0000                                         
     2  1  1.50       -69.6402   6.0000                                         
     3  0  0.50        -7.7528   2.0000                                         
     3  1  1.50        -2.7121   1.0000                                         
     3  2  2.50        -2.7212   0.0000                                         
   Description                                                                  
     l       E           TYP  RCUT    TYP  RCUT                                 
     0     -7.7528455     23  1.900                                             
     0     -3.3096929     23  1.900                                             
     1     -2.7120682     23  1.900                                             
     1     13.6058260     23  1.900                                             
     2     -2.7211652      7  1.900                                             
  local pseudopotential read in
  partial core-charges read in
  partial kinetic energy density read in
  atomic valenz-charges read in
  non local Contribution for L=           0  read in
    real space projection operators read in
  non local Contribution for L=           0  read in
    real space projection operators read in
  non local Contribution for L=           1  read in
    real space projection operators read in
  non local Contribution for L=           1  read in
    real space projection operators read in
    PAW grid and wavefunctions read in
 
   number of l-projection  operators is LMAX  =           4
   number of lm-projection operators is LMMAX =           8
 

 ----------------------------------------------------------------------------- 
|                                                                             |
|  ADVICE TO THIS USER RUNNING 'VASP/VAMP'   (HEAR YOUR MASTER'S VOICE ...):  |
|                                                                             |
|      You have a (more or less) 'large supercell' and for larger cells       |
|      it might be more efficient to use real space projection opertators     |
|      So try LREAL= Auto  in the INCAR   file.                               |
|      Mind: At the moment your POTCAR file does not contain real space       |
|       projectors, and has to be modified,  BUT if you                       |
|      want to do an extremely  accurate calculation you might also keep the  |
|      reciprocal projection scheme          (i.e. LREAL=.FALSE.)             |
|                                                                             |
 ----------------------------------------------------------------------------- 

  PAW_PBE O 08Apr2002                   :
 energy of atom  1       EATOM= -432.3788
 kinetic energy error for atom=    0.0208 (will be added to EATOM!!)
  PAW_PBE Mg 13Apr2007                  :
 energy of atom  2       EATOM=  -23.0369
 kinetic energy error for atom=    0.0000 (will be added to EATOM!!)
  PAW_PBE Al 04Jan2001                  :
 energy of atom  3       EATOM=  -53.5387
 kinetic energy error for atom=    0.0002 (will be added to EATOM!!)
 
 
 POSCAR: Layer                                   
  positions in direct lattice
  velocities in cartesian coordinates
 exchange correlation table for  LEXCH =        8
   RHO(1)=    0.500       N(1)  =     2000
   RHO(2)=  100.500       N(2)  =     4000
 


--------------------------------------------------------------------------------------------------------


 ion  position               nearest neighbor table
   1  0.000  0.000  0.267-  14 2.13  14 2.13  14 2.13  18 2.15  18 2.15  18 2.15
   2  0.333  0.667  0.324-  11 2.13  11 2.13  11 2.13  14 2.13  14 2.13  14 2.13
   3  0.000  0.000  0.439-  15 2.13  15 2.13  15 2.13  19 2.13  19 2.13  19 2.13
   4  0.333  0.667  0.496-  12 2.13  12 2.13  12 2.13  15 2.13  15 2.13  15 2.13
   5  0.000  0.000  0.610-  20 2.13  20 2.13  20 2.13  16 2.13  16 2.13  16 2.13
   6  0.333  0.667  0.667-  16 2.13  16 2.13  16 2.13  13 2.13  13 2.13  13 2.13
   7  0.000  0.000  0.782-  21 2.13  21 2.13  21 2.13  17 2.15  17 2.15  17 2.15
   8  0.667  0.333  0.381-  19 2.13  19 2.13  19 2.13  11 2.13  11 2.13  11 2.13
   9  0.667  0.333  0.553-  12 2.13  12 2.13  12 2.13  20 2.13  20 2.13  20 2.13
  10  0.667  0.333  0.725-  13 2.13  13 2.13  13 2.13  21 2.13  21 2.13  21 2.13
  11  0.000  0.000  0.353-   2 2.13   2 2.13   2 2.13   8 2.13   8 2.13   8 2.13  19 3.02  19 3.02
                            19 3.02  14 3.02  14 3.02  14 3.02
  12  0.000  0.000  0.524-   9 2.13   9 2.13   9 2.13   4 2.13   4 2.13   4 2.13  15 3.02  15 3.02
                            15 3.02  20 3.02  20 3.02  20 3.02
  13  0.000  0.000  0.696-  10 2.13  10 2.13  10 2.13   6 2.13   6 2.13   6 2.13  16 3.02  16 3.02
                            16 3.02  21 3.02  21 3.02  21 3.02
  14  0.667  0.333  0.295-   1 2.13   1 2.13   1 2.13   2 2.13   2 2.13   2 2.13  11 3.02  11 3.02
                            11 3.02  18 3.06  18 3.06  18 3.06
  15  0.667  0.333  0.467-   3 2.13   3 2.13   3 2.13   4 2.13   4 2.13   4 2.13  12 3.02  12 3.02
                            12 3.02  19 3.02  19 3.02  19 3.02
  16  0.667  0.333  0.639-   6 2.13   6 2.13   6 2.13   5 2.13   5 2.13   5 2.13  20 3.02  20 3.02
                            20 3.02  13 3.02  13 3.02  13 3.02
  17  0.667  0.333  0.812-   7 2.15   7 2.15   7 2.15  26 2.99  26 2.99  26 2.99  21 3.06  21 3.06
                            21 3.06
  18  0.333  0.667  0.237-   1 2.15   1 2.15   1 2.15  23 2.99  23 2.99  23 2.99  14 3.06  14 3.06
                            14 3.06
  19  0.333  0.667  0.410-   3 2.13   3 2.13   3 2.13   8 2.13   8 2.13   8 2.13  15 3.02  15 3.02
                            15 3.02  11 3.02  11 3.02  11 3.02
  20  0.333  0.667  0.582-   5 2.13   5 2.13   5 2.13   9 2.13   9 2.13   9 2.13  12 3.02  12 3.02
                            12 3.02  16 3.02  16 3.02  16 3.02
  21  0.333  0.667  0.753-   7 2.13   7 2.13   7 2.13  10 2.13  10 2.13  10 2.13  13 3.02  13 3.02
                            13 3.02  17 3.06  17 3.06  17 3.06
  22  0.000  0.000  0.024-  25 2.84  25 2.84  25 2.84  27 2.84  27 2.84  27 2.84
  23  0.000  0.000  0.181-  24 2.84  24 2.84  24 2.84  18 2.99  18 2.99  18 2.99
  24  0.667  0.333  0.129-  23 2.84  23 2.84  23 2.84  25 2.84  25 2.84  25 2.84
  25  0.333  0.667  0.077-  24 2.84  24 2.84  24 2.84  22 2.84  22 2.84  22 2.84
  26  0.000  0.000  0.868-  28 2.84  28 2.84  28 2.84  17 2.99  17 2.99  17 2.99
  27  0.667  0.333  0.972-  28 2.84  28 2.84  28 2.84  22 2.84  22 2.84  22 2.84
  28  0.333  0.667  0.920-  26 2.84  26 2.84  26 2.84  27 2.84  27 2.84  27 2.84
 
  LATTYP: Found a hexagonal cell.
 ALAT       =     2.9932160299
 C/A-ratio  =    14.4567795343
  
  Lattice vectors:
  
 A1 = (   2.5922013181,  -1.4966076735,   0.0000000000)
 A2 = (   0.0000000000,   2.9932153469,   0.0000000000)
 A3 = (  -0.0000000000,   0.0000000000,  43.2722642434)


Analysis of symmetry for initial positions (statically):
=====================================================================
 Subroutine PRICEL returns:
 Original cell was already a primitive cell.
 

 Routine SETGRP: Setting up the symmetry group for a 
 hexagonal supercell.


 Subroutine GETGRP returns: Found  6 space group operations
 (whereof  6 operations were pure point group operations)
 out of a pool of 24 trial point group operations.


The static configuration has the point symmetry C_3v.


Analysis of symmetry for dynamics (positions and initial velocities):
=====================================================================
 Subroutine PRICEL returns:
 Original cell was already a primitive cell.
 

 Routine SETGRP: Setting up the symmetry group for a 
 hexagonal supercell.


 Subroutine GETGRP returns: Found  6 space group operations
 (whereof  6 operations were pure point group operations)
 out of a pool of 24 trial point group operations.


The dynamic configuration has the point symmetry C_3v.


Analysis of constrained symmetry for selective dynamics:
=====================================================================
 Subroutine PRICEL returns:
 Original cell was already a primitive cell.
 

 Routine SETGRP: Setting up the symmetry group for a 
 hexagonal supercell.


 Subroutine GETGRP returns: Found  6 space group operations
 (whereof  6 operations were pure point group operations)
 out of a pool of 24 trial point group operations.


The constrained configuration has the point symmetry C_3v.
 
 
 KPOINTS: K-Spacing Value to Generate K-Mesh: 0.02

Automatic generation of k-mesh.
Space group operators:
 irot       det(A)        alpha          n_x          n_y          n_z        tau_x        tau_y        tau_z
    1     1.000000     0.000000     1.000000     0.000000     0.000000     0.000000     0.000000     0.000000
    2     1.000000   120.000000     0.000000     0.000000    -1.000000     0.000000     0.000000     0.000000
    3     1.000000   120.000000    -0.000000     0.000000     1.000000     0.000000     0.000000     0.000000
    4    -1.000000   180.000000    -0.866025     0.500000    -0.000000     0.000000     0.000000     0.000000
    5    -1.000000   180.000000     0.000000     1.000000     0.000000     0.000000     0.000000     0.000000
    6    -1.000000   180.000000    -0.866025    -0.500000    -0.000000     0.000000     0.000000     0.000000
 
 Subroutine IBZKPT returns following result:
 ===========================================
 
 Found     21 irreducible k-points:
 
 Following reciprocal coordinates:
            Coordinates               Weight
  0.000000  0.000000  0.000000      1.000000
  0.076923  0.000000  0.000000      6.000000
  0.153846  0.000000  0.000000      6.000000
  0.230769  0.000000  0.000000      6.000000
  0.307692  0.000000 -0.000000      6.000000
  0.384615  0.000000  0.000000      6.000000
  0.461538  0.000000  0.000000      6.000000
  0.076923  0.076923  0.000000      6.000000
  0.153846  0.076923  0.000000     12.000000
  0.230769  0.076923  0.000000     12.000000
  0.307692  0.076923  0.000000     12.000000
  0.384615  0.076923 -0.000000     12.000000
  0.461538  0.076923  0.000000      6.000000
  0.153846  0.153846  0.000000      6.000000
  0.230769  0.153846  0.000000     12.000000
  0.307692  0.153846  0.000000     12.000000
  0.384615  0.153846  0.000000     12.000000
  0.230769  0.230769  0.000000      6.000000
  0.307692  0.230769 -0.000000     12.000000
  0.384615  0.230769  0.000000      6.000000
  0.307692  0.307692 -0.000000      6.000000
 
 Following cartesian coordinates:
            Coordinates               Weight
  0.000000  0.000000  0.000000      1.000000
  0.029675  0.000000  0.000000      6.000000
  0.059350  0.000000  0.000000      6.000000
  0.089024  0.000000  0.000000      6.000000
  0.118699  0.000000  0.000000      6.000000
  0.148374  0.000000  0.000000      6.000000
  0.178049  0.000000  0.000000      6.000000
  0.044512  0.025699  0.000000      6.000000
  0.074187  0.025699  0.000000     12.000000
  0.103862  0.025699  0.000000     12.000000
  0.133537  0.025699  0.000000     12.000000
  0.163211  0.025699  0.000000     12.000000
  0.192886  0.025699  0.000000      6.000000
  0.089024  0.051398  0.000000      6.000000
  0.118699  0.051398  0.000000     12.000000
  0.148374  0.051398  0.000000     12.000000
  0.178049  0.051398  0.000000     12.000000
  0.133537  0.077097  0.000000      6.000000
  0.163211  0.077097  0.000000     12.000000
  0.192886  0.077097  0.000000      6.000000
  0.178049  0.102797  0.000000      6.000000
 


--------------------------------------------------------------------------------------------------------




 Dimension of arrays:
   k-points           NKPTS =     21   k-points in BZ     NKDIM =     21   number of bands    NBANDS=     66
   number of dos      NEDOS =    301   number of ions     NIONS =     28
   non local maximal  LDIM  =      5   non local SUM 2l+1 LMDIM =     13
   total plane-waves  NPLWV = 186624
   max r-space proj   IRMAX =      1   max aug-charges    IRDMAX= 189074
   dimension x,y,z NGX =    24 NGY =   24 NGZ =  324
   dimension x,y,z NGXF=    48 NGYF=   48 NGZF=  648
   support grid    NGXF=    96 NGYF=   96 NGZF= 1296
   ions per type =              10  11   7
 NGX,Y,Z   is equivalent  to a cutoff of  13.33, 13.33, 12.45 a.u.
 NGXF,Y,Z  is equivalent  to a cutoff of  26.66, 26.66, 24.90 a.u.


 I would recommend the setting:
   dimension x,y,z NGX =    22 NGY =   22 NGZ =  322
 SYSTEM =  unknown system                          
 POSCAR =  Layer                                   

 Startparameter for this run:
   NWRITE =      2    write-flag & timer
   PREC   = accura    normal or accurate (medium, high low for compatibility)
   ISTART =      0    job   : 0-new  1-cont  2-samecut
   ICHARG =      2    charge: 1-file 2-atom 10-const
   ISPIN  =      1    spin polarized calculation?
   LNONCOLLINEAR =      F non collinear calculations
   LSORBIT =      F    spin-orbit coupling
   INIWAV =      1    electr: 0-lowe 1-rand  2-diag
   LASPH  =      F    aspherical Exc in radial PAW
   METAGGA=      F    non-selfconsistent MetaGGA calc.

 Electronic Relaxation 1
   ENCUT  =  520.0 eV  38.22 Ry    6.18 a.u.   5.57  5.57 80.46*2*pi/ulx,y,z
   ENINI  =  520.0     initial cutoff
   ENAUG  =  605.4 eV  augmentation charge cutoff
   NELM   =    100;   NELMIN=  6; NELMDL=  0     # of ELM steps 
   EDIFF  = 0.1E-04   stopping-criterion for ELM
   LREAL  =      F    real-space projection
   NLSPLINE    = F    spline interpolate recip. space projectors
   LCOMPAT=      F    compatible to vasp.4.4
   GGA_COMPAT  = T    GGA compatible to vasp.4.4-vasp.4.6
   LMAXPAW     = -100 max onsite density
   LMAXMIX     =    2 max onsite mixed and CHGCAR
   VOSKOWN=      0    Vosko Wilk Nusair interpolation
   ROPT   =    0.00000   0.00000   0.00000
 Ionic relaxation
   EDIFFG = -.2E-01   stopping-criterion for IOM
   NSW    =    500    number of steps for IOM
   NBLOCK =      1;   KBLOCK =    500    inner block; outer block 
   IBRION =      2    ionic relax: 0-MD 1-quasi-New 2-CG
   NFREE  =      1    steps in history (QN), initial steepest desc. (CG)
   ISIF   =      2    stress and relaxation
   IWAVPR =     11    prediction:  0-non 1-charg 2-wave 3-comb
   ISYM   =      2    0-nonsym 1-usesym 2-fastsym
   LCORR  =      T    Harris-Foulkes like correction to forces

   POTIM  = 0.5000    time-step for ionic-motion
   TEIN   =    0.0    initial temperature
   TEBEG  =    0.0;   TEEND  =   0.0 temperature during run
   SMASS  =  -3.00    Nose mass-parameter (am)
   estimated Nose-frequenzy (Omega)   =  0.10E-29 period in steps =****** mass=  -0.205E-27a.u.
   SCALEE = 1.0000    scale energy and forces
   NPACO  =    256;   APACO  = 16.0  distance and # of slots for P.C.
   PSTRESS=    0.0 pullay stress

  Mass of Ions in am
   POMASS =  16.00 24.30 26.98
  Ionic Valenz
   ZVAL   =   6.00  2.00  3.00
  Atomic Wigner-Seitz radii
   RWIGS  =  -1.00 -1.00 -1.00
  virtual crystal weights 
   VCA    =   1.00  1.00  1.00
   NELECT =     103.0000    total number of electrons
   NUPDOWN=      -1.0000    fix difference up-down

 DOS related values:
   EMIN   =  10.00;   EMAX   =-10.00  energy-range for DOS
   EFERMI =   0.00
   ISMEAR =     0;   SIGMA  =   0.05  broadening in eV -4-tet -1-fermi 0-gaus

 Electronic relaxation 2 (details)
   IALGO  =     38    algorithm
   LDIAG  =      T    sub-space diagonalisation (order eigenvalues)
   LSUBROT=      F    optimize rotation matrix (better conditioning)
   TURBO    =      0    0=normal 1=particle mesh
   IRESTART =      0    0=no restart 2=restart with 2 vectors
   NREBOOT  =      0    no. of reboots
   NMIN     =      0    reboot dimension
   EREF     =   0.00    reference energy to select bands
   IMIX   =      4    mixing-type and parameters
     AMIX     =   0.40;   BMIX     =  1.00
     AMIX_MAG =   1.60;   BMIX_MAG =  1.00
     AMIN     =   0.01
     WC   =   100.;   INIMIX=   1;  MIXPRE=   1;  MAXMIX= -45

 Intra band minimization:
   WEIMIN = 0.0010     energy-eigenvalue tresh-hold
   EBREAK =  0.38E-07  absolut break condition
   DEPER  =   0.30     relativ break condition  

   TIME   =   0.40     timestep for ELM

  volume/ion in A,a.u.               =      11.99        80.92
  Fermi-wavevector in a.u.,A,eV,Ry     =   1.104117  2.086479 16.586516  1.219075
  Thomas-Fermi vector in A             =   2.240585
 
 Write flags
   LWAVE  =      F    write WAVECAR
   LCHARG =      T    write CHGCAR
   LVTOT  =      F    write LOCPOT, total local potential
   LVHAR  =      F    write LOCPOT, Hartree potential only
   LELF   =      F    write electronic localiz. function (ELF)
   LORBIT =      0    0 simple, 1 ext, 2 COOP (PROOUT)


 Dipole corrections
   LMONO  =      F    monopole corrections only (constant potential shift)
   LDIPOL =      F    correct potential (dipole corrections)
   IDIPOL =      0    1-x, 2-y, 3-z, 4-all directions 
   EPSILON=  1.0000000 bulk dielectric constant

 Exchange correlation treatment:
   GGA     =    --    GGA type
   LEXCH   =     8    internal setting for exchange type
   VOSKOWN=      0    Vosko Wilk Nusair interpolation
   LHFCALC =     F    Hartree Fock is set to
   LHFONE  =     F    Hartree Fock one center treatment
   AEXX    =    0.0000 exact exchange contribution

 Linear response parameters
   LEPSILON=     F    determine dielectric tensor
   LRPA    =     F    only Hartree local field effects (RPA)
   LNABLA  =     F    use nabla operator in PAW spheres
   LVEL    =     F    velocity operator in full k-point grid
   LINTERFAST=   F  fast interpolation
   KINTER  =     0    interpolate to denser k-point grid
   CSHIFT  =0.1000    complex shift for real part using Kramers Kronig
   OMEGAMAX=  -1.0    maximum frequency
   DEG_THRESHOLD= 0.2000000E-02 threshold for treating states as degnerate
   RTIME   =    0.100 relaxation time in fs

 Orbital magnetization related:
   ORBITALMAG=     F  switch on orbital magnetization
   LCHIMAG   =     F  perturbation theory with respect to B field
   DQ        =  0.001000  dq finite difference perturbation B field



--------------------------------------------------------------------------------------------------------


 conjugate gradient relaxation of ions
   using selective dynamics as specified on POSCAR
 charge density and potential will be updated during run
 non-spin polarized calculation
 Variant of blocked Davidson
 Davidson routine will perform the subspace rotation
 perform sub-space diagonalisation
    after iterative eigenvector-optimisation
 modified Broyden-mixing scheme, WC =      100.0
 initial mixing is a Kerker type mixing with AMIX =  0.4000 and BMIX =      1.0000
 Hartree-type preconditioning will be used
 using additional bands           14
 reciprocal scheme for non local part
 use partial core corrections
 calculate Harris-corrections to forces 
   (improved forces if not selfconsistent)
 use gradient corrections 
 use of overlap-Matrix (Vanderbilt PP)
 Gauss-broadening in eV      SIGMA  =   0.05


--------------------------------------------------------------------------------------------------------


  energy-cutoff  :      520.00
  volume of cell :      335.75
      direct lattice vectors                 reciprocal lattice vectors
     2.592201318 -1.496607673  0.000000000     0.385772507  0.000000000  0.000000000
     0.000000000  2.993215347  0.000000000     0.192886253  0.334088892  0.000000000
    -0.000000000  0.000000000 43.272264243     0.000000000  0.000000000  0.023109491

  length of vectors
     2.993216030  2.993215347 43.272264243     0.385772507  0.385772595  0.023109491


 
 k-points in units of 2pi/SCALE and weight: K-Spacing Value to Generate K-Mesh: 0.02
   0.00000000  0.00000000  0.00000000       0.006
   0.02967481  0.00000000  0.00000000       0.036
   0.05934962  0.00000000  0.00000000       0.036
   0.08902442  0.00000000  0.00000000       0.036
   0.11869923  0.00000000  0.00000000       0.036
   0.14837404  0.00000000  0.00000000       0.036
   0.17804885  0.00000000  0.00000000       0.036
   0.04451221  0.02569915  0.00000000       0.036
   0.07418702  0.02569915  0.00000000       0.071
   0.10386183  0.02569915  0.00000000       0.071
   0.13353664  0.02569915  0.00000000       0.071
   0.16321145  0.02569915  0.00000000       0.071
   0.19288625  0.02569915  0.00000000       0.036
   0.08902442  0.05139829  0.00000000       0.036
   0.11869923  0.05139829  0.00000000       0.071
   0.14837404  0.05139829  0.00000000       0.071
   0.17804885  0.05139829  0.00000000       0.071
   0.13353664  0.07709744  0.00000000       0.036
   0.16321145  0.07709744  0.00000000       0.071
   0.19288625  0.07709744  0.00000000       0.036
   0.17804885  0.10279658  0.00000000       0.036
 
 k-points in reciprocal lattice and weights: K-Spacing Value to Generate K-Mesh: 0.02
   0.00000000  0.00000000  0.00000000       0.006
   0.07692308  0.00000000  0.00000000       0.036
   0.15384615  0.00000000  0.00000000       0.036
   0.23076923  0.00000000  0.00000000       0.036
   0.30769231  0.00000000 -0.00000000       0.036
   0.38461538  0.00000000  0.00000000       0.036
   0.46153846  0.00000000  0.00000000       0.036
   0.07692308  0.07692308  0.00000000       0.036
   0.15384615  0.07692308  0.00000000       0.071
   0.23076923  0.07692308  0.00000000       0.071
   0.30769231  0.07692308  0.00000000       0.071
   0.38461538  0.07692308 -0.00000000       0.071
   0.46153846  0.07692308  0.00000000       0.036
   0.15384615  0.15384615  0.00000000       0.036
   0.23076923  0.15384615  0.00000000       0.071
   0.30769231  0.15384615  0.00000000       0.071
   0.38461538  0.15384615  0.00000000       0.071
   0.23076923  0.23076923  0.00000000       0.036
   0.30769231  0.23076923 -0.00000000       0.071
   0.38461538  0.23076923  0.00000000       0.036
   0.30769231  0.30769231 -0.00000000       0.036
 
 position of ions in fractional coordinates (direct lattice) 
   0.00000000  0.00000000  0.26671151
   0.33333300  0.66666700  0.32396365
   0.00000000  0.00000000  0.43851092
   0.33333300  0.66666700  0.49571266
   0.00000000  0.00000000  0.61011202
   0.33333300  0.66666700  0.66735127
   0.00000000  0.00000000  0.78191483
   0.66666700  0.33333300  0.38126617
   0.66666700  0.33333300  0.55290497
   0.66666700  0.33333300  0.72464651
   0.00000000  0.00000000  0.35261256
   0.00000000  0.00000000  0.52431269
   0.00000000  0.00000000  0.69600216
   0.66666700  0.33333300  0.29531305
   0.66666700  0.33333300  0.46710719
   0.66666700  0.33333300  0.63873474
   0.66666700  0.33333300  0.81159188
   0.33333300  0.66666700  0.23705330
   0.33333300  0.66666700  0.40988925
   0.33333300  0.66666700  0.58152051
   0.33333300  0.66666700  0.75329981
   0.00000000  0.00000000  0.02435430
   0.00000000  0.00000000  0.18065775
   0.66666700  0.33333300  0.12869111
   0.33333300  0.66666700  0.07655761
   0.00000000  0.00000000  0.86804893
   0.66666700  0.33333300  0.97214162
   0.33333300  0.66666700  0.91998800
 
 position of ions in cartesian coordinates  (Angst):
  -0.00000000  0.00000000 11.54121103
   0.86406624  1.49660917 14.01864070
  -0.00000000  0.00000000 18.97536047
   0.86406624  1.49660917 21.45060914
  -0.00000000  0.00000000 26.40092861
   0.86406624  1.49660917 28.87780056
  -0.00000000  0.00000000 33.83522533
   1.72813508 -0.00000150 16.49825046
   1.72813508 -0.00000150 23.92544996
   1.72813508 -0.00000150 31.35709515
  -0.00000000  0.00000000 15.25834379
  -0.00000000  0.00000000 22.68819737
  -0.00000000  0.00000000 30.11758951
   1.72813508 -0.00000150 12.77886443
   1.72813508 -0.00000150 20.21278592
   1.72813508 -0.00000150 27.63949847
   1.72813508 -0.00000150 35.11941843
   0.86406624  1.49660917 10.25783290
   0.86406624  1.49660917 17.73683591
   0.86406624  1.49660917 25.16370935
   0.86406624  1.49660917 32.59698841
  -0.00000000  0.00000000  1.05386585
  -0.00000000  0.00000000  7.81747007
   1.72813508 -0.00000150  5.56875591
   0.86406624  1.49660917  3.31282097
  -0.00000000  0.00000000 37.56244278
   1.72813508 -0.00000150 42.06676900
   0.86406624  1.49660917 39.80996388
 


--------------------------------------------------------------------------------------------------------


 k-point  1 :   0.0000 0.0000 0.0000  plane waves:    9161
 k-point  2 :   0.0769 0.0000 0.0000  plane waves:    9147
 k-point  3 :   0.1538 0.0000 0.0000  plane waves:    9121
 k-point  4 :   0.2308 0.0000 0.0000  plane waves:    9102
 k-point  5 :   0.3077 0.0000-0.0000  plane waves:    9036
 k-point  6 :   0.3846 0.0000 0.0000  plane waves:    8990
 k-point  7 :   0.4615 0.0000 0.0000  plane waves:    8990
 k-point  8 :   0.0769 0.0769 0.0000  plane waves:    9141
 k-point  9 :   0.1538 0.0769 0.0000  plane waves:    9106
 k-point 10 :   0.2308 0.0769 0.0000  plane waves:    9057
 k-point 11 :   0.3077 0.0769 0.0000  plane waves:    9030
 k-point 12 :   0.3846 0.0769-0.0000  plane waves:    8990
 k-point 13 :   0.4615 0.0769 0.0000  plane waves:    8966
 k-point 14 :   0.1538 0.1538 0.0000  plane waves:    9075
 k-point 15 :   0.2308 0.1538 0.0000  plane waves:    9048
 k-point 16 :   0.3077 0.1538 0.0000  plane waves:    9034
 k-point 17 :   0.3846 0.1538 0.0000  plane waves:    8974
 k-point 18 :   0.2308 0.2308 0.0000  plane waves:    9036
 k-point 19 :   0.3077 0.2308-0.0000  plane waves:    8983
 k-point 20 :   0.3846 0.2308 0.0000  plane waves:    9010
 k-point 21 :   0.3077 0.3077-0.0000  plane waves:    9032

 maximum and minimum number of plane-waves per node :      2303     2225

 maximum number of plane-waves:      9161
 maximum index in each direction: 
   IXMAX=    5   IYMAX=    5   IZMAX=   80
   IXMIN=   -6   IYMIN=   -5   IZMIN=  -80

 NGX is ok and might be reduce to  24
 NGY is ok and might be reduce to  22
 NGZ is ok and might be reduce to 322

 parallel 3D FFT for wavefunctions:
    minimum data exchange during FFTs selected (reduces bandwidth)
 parallel 3D FFT for charge:
    minimum data exchange during FFTs selected (reduces bandwidth)


 total amount of memory used by VASP on root node   150790. kBytes
========================================================================

   base      :      30000. kBytes
   nonl-proj :      16128. kBytes
   fftplans  :      55867. kBytes
   grid      :      22394. kBytes
   one-center:         56. kBytes
   wavefun   :      26345. kBytes
 
     INWAV:  cpu time    0.00: real time    0.00
 Broyden mixing: mesh for mixing (old mesh)
   NGX = 11   NGY = 11   NGZ =161
  (NGX  = 48   NGY  = 48   NGZ  =648)
  gives a total of  19481 points

 initial charge density was supplied:
 charge density of overlapping atoms calculated
 number of electron     103.0000000 magnetization 
 keeping initial charge density in first step


--------------------------------------------------------------------------------------------------------


 Maximum index for augmentation-charges        22778 (set IRDMAX)


--------------------------------------------------------------------------------------------------------


 First call to EWALD:  gamma=   0.255
 Maximum number of real-space cells 7x 7x 1
 Maximum number of reciprocal cells 1x 1x15

 FEWALD executed in parallel
    FEWALD:  cpu time    0.00: real time    0.00


----------------------------------------- Iteration    1(   1)  ---------------------------------------


    POTLOK:  cpu time    0.11: real time    0.11
    SETDIJ:  cpu time    0.10: real time    0.10
     EDDAV:  cpu time    4.58: real time    4.60
       DOS:  cpu time    0.00: real time    0.00
    --------------------------------------------
      LOOP:  cpu time    4.79: real time    4.81

 eigenvalue-minimisations  :  2788
 total energy-change (2. order) : 0.5198732E+03  (-0.4589145E+04)
 number of electron     103.0000000 magnetization 
 augmentation part      103.0000000 magnetization 

 Free energy of the ion-electron system (eV)
  ---------------------------------------------------
  alpha Z        PSCENC =       144.57875399
  Ewald energy   TEWEN  =     13872.42186660
  -Hartree energ DENC   =    -19139.26240289
  -exchange      EXHF   =         0.00000000
  -V(xc)+E(xc)   XCENC  =      -438.62186661
  PAW double counting   =      4647.26951674    -3871.08436696
  entropy T*S    EENTRO =        -0.00624496
  eigenvalues    EBANDS =       352.82335389
  atomic energy  EATOM  =      4951.75456612
  ---------------------------------------------------
  free energy    TOTEN  =       519.87317592 eV

  energy without entropy =      519.87942088  energy(sigma->0) =      519.87629840


--------------------------------------------------------------------------------------------------------




----------------------------------------- Iteration    1(   2)  ---------------------------------------


     EDDAV:  cpu time    5.47: real time    5.48
       DOS:  cpu time    0.00: real time    0.00
    --------------------------------------------
      LOOP:  cpu time    5.48: real time    5.48

 eigenvalue-minimisations  :  3600
 total energy-change (2. order) :-0.6244764E+03  (-0.5948363E+03)
 number of electron     103.0000000 magnetization 
 augmentation part      103.0000000 magnetization 

 Free energy of the ion-electron system (eV)
  ---------------------------------------------------
  alpha Z        PSCENC =       144.57875399
  Ewald energy   TEWEN  =     13872.42186660
  -Hartree energ DENC   =    -19139.26240289
  -exchange      EXHF   =         0.00000000
  -V(xc)+E(xc)   XCENC  =      -438.62186661
  PAW double counting   =      4647.26951674    -3871.08436696
  entropy T*S    EENTRO =        -0.00248435
  eigenvalues    EBANDS =      -271.65683678
  atomic energy  EATOM  =      4951.75456612
  ---------------------------------------------------
  free energy    TOTEN  =      -104.60325414 eV

  energy without entropy =     -104.60076979  energy(sigma->0) =     -104.60201197


--------------------------------------------------------------------------------------------------------




----------------------------------------- Iteration    1(   3)  ---------------------------------------


     EDDAV:  cpu time    5.09: real time    5.10
       DOS:  cpu time    0.00: real time    0.00
    --------------------------------------------
      LOOP:  cpu time    5.09: real time    5.10

 eigenvalue-minimisations  :  3232
 total energy-change (2. order) :-0.5672098E+02  (-0.5643577E+02)
 number of electron     103.0000000 magnetization 
 augmentation part      103.0000000 magnetization 

 Free energy of the ion-electron system (eV)
  ---------------------------------------------------
  alpha Z        PSCENC =       144.57875399
  Ewald energy   TEWEN  =     13872.42186660
  -Hartree energ DENC   =    -19139.26240289
  -exchange      EXHF   =         0.00000000
  -V(xc)+E(xc)   XCENC  =      -438.62186661
  PAW double counting   =      4647.26951674    -3871.08436696
  entropy T*S    EENTRO =        -0.00249812
  eigenvalues    EBANDS =      -328.37779880
  atomic energy  EATOM  =      4951.75456612
  ---------------------------------------------------
  free energy    TOTEN  =      -161.32422992 eV

  energy without entropy =     -161.32173180  energy(sigma->0) =     -161.32298086


--------------------------------------------------------------------------------------------------------




----------------------------------------- Iteration    1(   4)  ---------------------------------------


     EDDAV:  cpu time    5.07: real time    5.08
       DOS:  cpu time    0.00: real time    0.00
    --------------------------------------------
      LOOP:  cpu time    5.08: real time    5.08

 eigenvalue-minimisations  :  3240
 total energy-change (2. order) :-0.7069109E+00  (-0.7059586E+00)
 number of electron     103.0000000 magnetization 
 augmentation part      103.0000000 magnetization 

 Free energy of the ion-electron system (eV)
  ---------------------------------------------------
  alpha Z        PSCENC =       144.57875399
  Ewald energy   TEWEN  =     13872.42186660
  -Hartree energ DENC   =    -19139.26240289
  -exchange      EXHF   =         0.00000000
  -V(xc)+E(xc)   XCENC  =      -438.62186661
  PAW double counting   =      4647.26951674    -3871.08436696
  entropy T*S    EENTRO =        -0.00247588
  eigenvalues    EBANDS =      -329.08473194
  atomic energy  EATOM  =      4951.75456612
  ---------------------------------------------------
  free energy    TOTEN  =      -162.03114083 eV

  energy without entropy =     -162.02866495  energy(sigma->0) =     -162.02990289


--------------------------------------------------------------------------------------------------------




----------------------------------------- Iteration    1(   5)  ---------------------------------------


     EDDAV:  cpu time    5.29: real time    5.30
       DOS:  cpu time    0.00: real time    0.00
    CHARGE:  cpu time    0.40: real time    0.40
    MIXING:  cpu time    0.00: real time    0.00
    --------------------------------------------
      LOOP:  cpu time    5.70: real time    5.71

 eigenvalue-minimisations  :  3360
 total energy-change (2. order) :-0.1075877E-01  (-0.1075485E-01)
 number of electron     103.0000001 magnetization 
 augmentation part        7.7524971 magnetization 

 Broyden mixing:
  rms(total) = 0.23097E+01    rms(broyden)= 0.23092E+01
  rms(prec ) = 0.23653E+01
  weight for this iteration     100.00

 Free energy of the ion-electron system (eV)
  ---------------------------------------------------
  alpha Z        PSCENC =       144.57875399
  Ewald energy   TEWEN  =     13872.42186660
  -Hartree energ DENC   =    -19139.26240289
  -exchange      EXHF   =         0.00000000
  -V(xc)+E(xc)   XCENC  =      -438.62186661
  PAW double counting   =      4647.26951674    -3871.08436696
  entropy T*S    EENTRO =        -0.00247805
  eigenvalues    EBANDS =      -329.09548854
  atomic energy  EATOM  =      4951.75456612
  ---------------------------------------------------
  free energy    TOTEN  =      -162.04189960 eV

  energy without entropy =     -162.03942155  energy(sigma->0) =     -162.04066058


--------------------------------------------------------------------------------------------------------




----------------------------------------- Iteration    1(   6)  ---------------------------------------


    POTLOK:  cpu time    0.10: real time    0.10
    SETDIJ:  cpu time    0.10: real time    0.10
     EDDAV:  cpu time    4.89: real time    4.90
       DOS:  cpu time    0.00: real time    0.00
    CHARGE:  cpu time    0.40: real time    0.40
    MIXING:  cpu time    0.01: real time    0.01
    --------------------------------------------
      LOOP:  cpu time    5.51: real time    5.52

 eigenvalue-minimisations  :  3080
 total energy-change (2. order) : 0.1597765E+02  (-0.9173720E+01)
 number of electron     103.0000001 magnetization 
 augmentation part        6.2927561 magnetization 

 Broyden mixing:
  rms(total) = 0.77508E+00    rms(broyden)= 0.77405E+00
  rms(prec ) = 0.78147E+00
  weight for this iteration     100.00

 eigenvalues of (default mixing * dielectric matrix)
  average eigenvalue GAMMA=   0.8464
  0.8464

 Free energy of the ion-electron system (eV)
  ---------------------------------------------------
  alpha Z        PSCENC =       144.57875399
  Ewald energy   TEWEN  =     13872.42186660
  -Hartree energ DENC   =    -19327.89243939
  -exchange      EXHF   =         0.00000000
  -V(xc)+E(xc)   XCENC  =      -425.14780409
  PAW double counting   =      5531.23898469    -4758.57564280
  entropy T*S    EENTRO =        -0.00522318
  eigenvalues    EBANDS =      -134.43731629
  atomic energy  EATOM  =      4951.75456612
  ---------------------------------------------------
  free energy    TOTEN  =      -146.06425435 eV

  energy without entropy =     -146.05903117  energy(sigma->0) =     -146.06164276


--------------------------------------------------------------------------------------------------------




----------------------------------------- Iteration    1(   7)  ---------------------------------------


    POTLOK:  cpu time    0.10: real time    0.10
    SETDIJ:  cpu time    0.10: real time    0.10
     EDDAV:  cpu time    4.89: real time    4.89
       DOS:  cpu time    0.00: real time    0.00
    CHARGE:  cpu time    0.40: real time    0.40
    MIXING:  cpu time    0.00: real time    0.00
    --------------------------------------------
      LOOP:  cpu time    5.50: real time    5.51

 eigenvalue-minimisations  :  3070
 total energy-change (2. order) : 0.1350867E+00  (-0.1584211E+00)
 number of electron     103.0000001 magnetization 
 augmentation part        6.3324090 magnetization 

 Broyden mixing:
  rms(total) = 0.47485E+00    rms(broyden)= 0.47484E+00
  rms(prec ) = 0.48018E+00
  weight for this iteration     100.00

 eigenvalues of (default mixing * dielectric matrix)
  average eigenvalue GAMMA=   1.6418
  0.9774  2.3062

 Free energy of the ion-electron system (eV)
  ---------------------------------------------------
  alpha Z        PSCENC =       144.57875399
  Ewald energy   TEWEN  =     13872.42186660
  -Hartree energ DENC   =    -19326.12484985
  -exchange      EXHF   =         0.00000000
  -V(xc)+E(xc)   XCENC  =      -424.67619356
  PAW double counting   =      5854.64500093    -5081.55121251
  entropy T*S    EENTRO =        -0.00401574
  eigenvalues    EBANDS =      -136.97308366
  atomic energy  EATOM  =      4951.75456612
  ---------------------------------------------------
  free energy    TOTEN  =      -145.92916768 eV

  energy without entropy =     -145.92515194  energy(sigma->0) =     -145.92715981


--------------------------------------------------------------------------------------------------------




----------------------------------------- Iteration    1(   8)  ---------------------------------------


    POTLOK:  cpu time    0.10: real time    0.10
    SETDIJ:  cpu time    0.10: real time    0.10
     EDDAV:  cpu time    5.22: real time    5.22
       DOS:  cpu time    0.00: real time    0.00
    CHARGE:  cpu time    0.41: real time    0.41
    MIXING:  cpu time    0.00: real time    0.00
    --------------------------------------------
      LOOP:  cpu time    5.83: real time    5.84

 eigenvalue-minimisations  :  3342
 total energy-change (2. order) : 0.1106763E+00  (-0.5016851E-01)
 number of electron     103.0000001 magnetization 
 augmentation part        6.3805454 magnetization 

 Broyden mixing:
  rms(total) = 0.77786E-01    rms(broyden)= 0.77740E-01
  rms(prec ) = 0.86322E-01
  weight for this iteration     100.00

 eigenvalues of (default mixing * dielectric matrix)
  average eigenvalue GAMMA=   1.4029
  2.4418  0.8834  0.8834

 Free energy of the ion-electron system (eV)
  ---------------------------------------------------
  alpha Z        PSCENC =       144.57875399
  Ewald energy   TEWEN  =     13872.42186660
  -Hartree energ DENC   =    -19331.57369497
  -exchange      EXHF   =         0.00000000
  -V(xc)+E(xc)   XCENC  =      -422.99671306
  PAW double counting   =      6416.68802220    -5643.29412181
  entropy T*S    EENTRO =        -0.00573339
  eigenvalues    EBANDS =      -133.39143707
  atomic energy  EATOM  =      4951.75456612
  ---------------------------------------------------
  free energy    TOTEN  =      -145.81849140 eV

  energy without entropy =     -145.81275801  energy(sigma->0) =     -145.81562471


--------------------------------------------------------------------------------------------------------




----------------------------------------- Iteration    1(   9)  ---------------------------------------


    POTLOK:  cpu time    0.10: real time    0.10
    SETDIJ:  cpu time    0.10: real time    0.10
     EDDAV:  cpu time    5.06: real time    5.07
       DOS:  cpu time    0.00: real time    0.00
    CHARGE:  cpu time    0.40: real time    0.40
    MIXING:  cpu time    0.00: real time    0.00
    --------------------------------------------
      LOOP:  cpu time    5.67: real time    5.68

 eigenvalue-minimisations  :  3164
 total energy-change (2. order) : 0.1232723E-01  (-0.1155837E-01)
 number of electron     103.0000001 magnetization 
 augmentation part        6.3603870 magnetization 

 Broyden mixing:
  rms(total) = 0.51785E-01    rms(broyden)= 0.51783E-01
  rms(prec ) = 0.53571E-01
  weight for this iteration     100.00

 eigenvalues of (default mixing * dielectric matrix)
  average eigenvalue GAMMA=   1.3936
  2.4304  1.0530  1.0530  1.0379

 Free energy of the ion-electron system (eV)
  ---------------------------------------------------
  alpha Z        PSCENC =       144.57875399
  Ewald energy   TEWEN  =     13872.42186660
  -Hartree energ DENC   =    -19335.27339582
  -exchange      EXHF   =         0.00000000
  -V(xc)+E(xc)   XCENC  =      -422.62060408
  PAW double counting   =      6437.79177189    -5664.44907041
  entropy T*S    EENTRO =        -0.00422003
  eigenvalues    EBANDS =      -130.00583244
  atomic energy  EATOM  =      4951.75456612
  ---------------------------------------------------
  free energy    TOTEN  =      -145.80616417 eV

  energy without entropy =     -145.80194414  energy(sigma->0) =     -145.80405416


--------------------------------------------------------------------------------------------------------




----------------------------------------- Iteration    1(  10)  ---------------------------------------


    POTLOK:  cpu time    0.10: real time    0.10
    SETDIJ:  cpu time    0.10: real time    0.10
     EDDAV:  cpu time    5.07: real time    5.08
       DOS:  cpu time    0.00: real time    0.00
    CHARGE:  cpu time    0.40: real time    0.40
    MIXING:  cpu time    0.00: real time    0.00
    --------------------------------------------
      LOOP:  cpu time    5.68: real time    5.69

 eigenvalue-minimisations  :  3166
 total energy-change (2. order) : 0.2056912E-02  (-0.2950044E-02)
 number of electron     103.0000001 magnetization 
 augmentation part        6.3465346 magnetization 

 Broyden mixing:
  rms(total) = 0.25344E-01    rms(broyden)= 0.25330E-01
  rms(prec ) = 0.26204E-01
  weight for this iteration     100.00

 eigenvalues of (default mixing * dielectric matrix)
  average eigenvalue GAMMA=   1.3433
  2.4735  1.9769  0.9372  0.9372  0.3919

 Free energy of the ion-electron system (eV)
  ---------------------------------------------------
  alpha Z        PSCENC =       144.57875399
  Ewald energy   TEWEN  =     13872.42186660
  -Hartree energ DENC   =    -19336.28613507
  -exchange      EXHF   =         0.00000000
  -V(xc)+E(xc)   XCENC  =      -422.49435891
  PAW double counting   =      6425.52971245    -5652.21013710
  entropy T*S    EENTRO =        -0.00451266
  eigenvalues    EBANDS =      -129.09386269
  atomic energy  EATOM  =      4951.75456612
  ---------------------------------------------------
  free energy    TOTEN  =      -145.80410726 eV

  energy without entropy =     -145.79959461  energy(sigma->0) =     -145.80185093


--------------------------------------------------------------------------------------------------------




----------------------------------------- Iteration    1(  11)  ---------------------------------------


    POTLOK:  cpu time    0.10: real time    0.10
    SETDIJ:  cpu time    0.11: real time    0.11
     EDDAV:  cpu time    5.08: real time    5.09
       DOS:  cpu time    0.00: real time    0.00
    CHARGE:  cpu time    0.40: real time    0.40
    MIXING:  cpu time    0.00: real time    0.00
    --------------------------------------------
      LOOP:  cpu time    5.69: real time    5.70

 eigenvalue-minimisations  :  3168
 total energy-change (2. order) :-0.5869789E-03  (-0.4305883E-03)
 number of electron     103.0000001 magnetization 
 augmentation part        6.3467312 magnetization 

 Broyden mixing:
  rms(total) = 0.15106E-01    rms(broyden)= 0.15104E-01
  rms(prec ) = 0.16173E-01
  weight for this iteration     100.00

 eigenvalues of (default mixing * dielectric matrix)
  average eigenvalue GAMMA=   1.4130
  2.7608  2.2437  1.0049  0.8960  0.8960  0.6766

 Free energy of the ion-electron system (eV)
  ---------------------------------------------------
  alpha Z        PSCENC =       144.57875399
  Ewald energy   TEWEN  =     13872.42186660
  -Hartree energ DENC   =    -19336.15864387
  -exchange      EXHF   =         0.00000000
  -V(xc)+E(xc)   XCENC  =      -422.42622317
  PAW double counting   =      6401.42153135    -5628.10793486
  entropy T*S    EENTRO =        -0.00453711
  eigenvalues    EBANDS =      -129.28407329
  atomic energy  EATOM  =      4951.75456612
  ---------------------------------------------------
  free energy    TOTEN  =      -145.80469424 eV

  energy without entropy =     -145.80015713  energy(sigma->0) =     -145.80242569


--------------------------------------------------------------------------------------------------------




----------------------------------------- Iteration    1(  12)  ---------------------------------------


    POTLOK:  cpu time    0.10: real time    0.10
    SETDIJ:  cpu time    0.10: real time    0.10
     EDDAV:  cpu time    5.32: real time    5.33
       DOS:  cpu time    0.00: real time    0.00
    CHARGE:  cpu time    0.40: real time    0.40
    MIXING:  cpu time    0.00: real time    0.00
    --------------------------------------------
      LOOP:  cpu time    5.93: real time    5.94

 eigenvalue-minimisations  :  3368
 total energy-change (2. order) : 0.2835941E-03  (-0.1347918E-03)
 number of electron     103.0000001 magnetization 
 augmentation part        6.3443205 magnetization 

 Broyden mixing:
  rms(total) = 0.64893E-02    rms(broyden)= 0.64886E-02
  rms(prec ) = 0.81375E-02
  weight for this iteration     100.00

 eigenvalues of (default mixing * dielectric matrix)
  average eigenvalue GAMMA=   1.4165
  2.8195  2.4905  1.0644  1.0644  0.9083  0.9083  0.6604

 Free energy of the ion-electron system (eV)
  ---------------------------------------------------
  alpha Z        PSCENC =       144.57875399
  Ewald energy   TEWEN  =     13872.42186660
  -Hartree energ DENC   =    -19336.07127590
  -exchange      EXHF   =         0.00000000
  -V(xc)+E(xc)   XCENC  =      -422.35625049
  PAW double counting   =      6379.16227330    -5605.86545560
  entropy T*S    EENTRO =        -0.00456330
  eigenvalues    EBANDS =      -129.42432536
  atomic energy  EATOM  =      4951.75456612
  ---------------------------------------------------
  free energy    TOTEN  =      -145.80441065 eV

  energy without entropy =     -145.79984735  energy(sigma->0) =     -145.80212900


--------------------------------------------------------------------------------------------------------




----------------------------------------- Iteration    1(  13)  ---------------------------------------


    POTLOK:  cpu time    0.10: real time    0.10
    SETDIJ:  cpu time    0.10: real time    0.10
     EDDAV:  cpu time    5.10: real time    5.11
       DOS:  cpu time    0.00: real time    0.00
    CHARGE:  cpu time    0.41: real time    0.41
    MIXING:  cpu time    0.00: real time    0.00
    --------------------------------------------
      LOOP:  cpu time    5.73: real time    5.74

 eigenvalue-minimisations  :  3198
 total energy-change (2. order) : 0.1459392E-03  (-0.1711144E-03)
 number of electron     103.0000001 magnetization 
 augmentation part        6.3481419 magnetization 

 Broyden mixing:
  rms(total) = 0.54818E-02    rms(broyden)= 0.54782E-02
  rms(prec ) = 0.67014E-02
  weight for this iteration     100.00

 eigenvalues of (default mixing * dielectric matrix)
  average eigenvalue GAMMA=   1.2413
  2.8182  2.4901  1.0653  1.0653  0.9082  0.9082  0.6605  0.0148

 Free energy of the ion-electron system (eV)
  ---------------------------------------------------
  alpha Z        PSCENC =       144.57875399
  Ewald energy   TEWEN  =     13872.42186660
  -Hartree energ DENC   =    -19335.28597784
  -exchange      EXHF   =         0.00000000
  -V(xc)+E(xc)   XCENC  =      -422.38522903
  PAW double counting   =      6371.10376233    -5597.80068581
  entropy T*S    EENTRO =        -0.00462779
  eigenvalues    EBANDS =      -130.18669327
  atomic energy  EATOM  =      4951.75456612
  ---------------------------------------------------
  free energy    TOTEN  =      -145.80426471 eV

  energy without entropy =     -145.79963692  energy(sigma->0) =     -145.80195081


--------------------------------------------------------------------------------------------------------




----------------------------------------- Iteration    1(  14)  ---------------------------------------


    POTLOK:  cpu time    0.10: real time    0.10
    SETDIJ:  cpu time    0.11: real time    0.11
     EDDAV:  cpu time    5.77: real time    5.78
       DOS:  cpu time    0.00: real time    0.00
    CHARGE:  cpu time    0.40: real time    0.40
    MIXING:  cpu time    0.01: real time    0.01
    --------------------------------------------
      LOOP:  cpu time    6.40: real time    6.41

 eigenvalue-minimisations  :  3752
 total energy-change (2. order) : 0.1242744E-03  (-0.2016539E-04)
 number of electron     103.0000001 magnetization 
 augmentation part        6.3483222 magnetization 

 Broyden mixing:
  rms(total) = 0.34572E-02    rms(broyden)= 0.34569E-02
  rms(prec ) = 0.48636E-02
  weight for this iteration     100.00

 eigenvalues of (default mixing * dielectric matrix)
  average eigenvalue GAMMA=   1.3698
  2.8074  2.5608  1.1608  1.1608  0.6575  0.9007  0.9007  1.0897  1.0897

 Free energy of the ion-electron system (eV)
  ---------------------------------------------------
  alpha Z        PSCENC =       144.57875399
  Ewald energy   TEWEN  =     13872.42186660
  -Hartree energ DENC   =    -19335.11154395
  -exchange      EXHF   =         0.00000000
  -V(xc)+E(xc)   XCENC  =      -422.38517373
  PAW double counting   =      6369.51721749    -5596.21401963
  entropy T*S    EENTRO =        -0.00464803
  eigenvalues    EBANDS =      -130.36115928
  atomic energy  EATOM  =      4951.75456612
  ---------------------------------------------------
  free energy    TOTEN  =      -145.80414043 eV

  energy without entropy =     -145.79949240  energy(sigma->0) =     -145.80181642


--------------------------------------------------------------------------------------------------------




----------------------------------------- Iteration    1(  15)  ---------------------------------------


    POTLOK:  cpu time    0.10: real time    0.10
    SETDIJ:  cpu time    0.10: real time    0.10
     EDDAV:  cpu time    6.05: real time    6.06
       DOS:  cpu time    0.00: real time    0.00
    CHARGE:  cpu time    0.40: real time    0.40
    MIXING:  cpu time    0.01: real time    0.01
    --------------------------------------------
      LOOP:  cpu time    6.66: real time    6.67

 eigenvalue-minimisations  :  3972
 total energy-change (2. order) : 0.1586197E-03  (-0.2350959E-04)
 number of electron     103.0000001 magnetization 
 augmentation part        6.3483960 magnetization 

 Broyden mixing:
  rms(total) = 0.19023E-02    rms(broyden)= 0.19014E-02
  rms(prec ) = 0.33187E-02
  weight for this iteration     100.00

 eigenvalues of (default mixing * dielectric matrix)
  average eigenvalue GAMMA=   1.3962
  3.0951  2.5325  2.1746  1.0030  1.0030  0.9496  0.9496  0.6715  0.7916  0.7916

 Free energy of the ion-electron system (eV)
  ---------------------------------------------------
  alpha Z        PSCENC =       144.57875399
  Ewald energy   TEWEN  =     13872.42186660
  -Hartree energ DENC   =    -19334.71862234
  -exchange      EXHF   =         0.00000000
  -V(xc)+E(xc)   XCENC  =      -422.38725489
  PAW double counting   =      6368.57449716    -5595.27021524
  entropy T*S    EENTRO =        -0.00467988
  eigenvalues    EBANDS =      -130.75289333
  atomic energy  EATOM  =      4951.75456612
  ---------------------------------------------------
  free energy    TOTEN  =      -145.80398181 eV

  energy without entropy =     -145.79930194  energy(sigma->0) =     -145.80164188


--------------------------------------------------------------------------------------------------------




----------------------------------------- Iteration    1(  16)  ---------------------------------------


    POTLOK:  cpu time    0.10: real time    0.10
    SETDIJ:  cpu time    0.10: real time    0.10
     EDDAV:  cpu time    6.00: real time    6.02
       DOS:  cpu time    0.00: real time    0.00
    CHARGE:  cpu time    0.41: real time    0.41
    MIXING:  cpu time    0.01: real time    0.01
    --------------------------------------------
      LOOP:  cpu time    6.63: real time    6.64

 eigenvalue-minimisations  :  3924
 total energy-change (2. order) : 0.7567699E-04  (-0.4628609E-04)
 number of electron     103.0000001 magnetization 
 augmentation part        6.3474864 magnetization 

 Broyden mixing:
  rms(total) = 0.43205E-02    rms(broyden)= 0.43195E-02
  rms(prec ) = 0.48324E-02
  weight for this iteration     100.00

 eigenvalues of (default mixing * dielectric matrix)
  average eigenvalue GAMMA=   1.3940
  3.0180  2.6814  2.4517  0.9453  0.9453  1.0276  1.0276  0.6588  0.8361  0.8712
  0.8712

 Free energy of the ion-electron system (eV)
  ---------------------------------------------------
  alpha Z        PSCENC =       144.57875399
  Ewald energy   TEWEN  =     13872.42186660
  -Hartree energ DENC   =    -19334.37561833
  -exchange      EXHF   =         0.00000000
  -V(xc)+E(xc)   XCENC  =      -422.38133016
  PAW double counting   =      6368.82507360    -5595.52138712
  entropy T*S    EENTRO =        -0.00471609
  eigenvalues    EBANDS =      -131.10111475
  atomic energy  EATOM  =      4951.75456612
  ---------------------------------------------------
  free energy    TOTEN  =      -145.80390614 eV

  energy without entropy =     -145.79919004  energy(sigma->0) =     -145.80154809


--------------------------------------------------------------------------------------------------------




----------------------------------------- Iteration    1(  17)  ---------------------------------------


    POTLOK:  cpu time    0.11: real time    0.11
    SETDIJ:  cpu time    0.11: real time    0.11
     EDDAV:  cpu time    5.09: real time    5.10
       DOS:  cpu time    0.00: real time    0.00
    CHARGE:  cpu time    0.40: real time    0.40
    MIXING:  cpu time    0.01: real time    0.01
    --------------------------------------------
      LOOP:  cpu time    5.72: real time    5.73

 eigenvalue-minimisations  :  3200
 total energy-change (2. order) : 0.6002360E-04  (-0.2035468E-04)
 number of electron     103.0000001 magnetization 
 augmentation part        6.3481007 magnetization 

 Broyden mixing:
  rms(total) = 0.27428E-02    rms(broyden)= 0.27425E-02
  rms(prec ) = 0.32968E-02
  weight for this iteration     100.00

 eigenvalues of (default mixing * dielectric matrix)
  average eigenvalue GAMMA=   1.4704
  3.6600  2.8284  2.4957  1.1495  1.1495  0.6666  0.9827  0.9827  0.9625  0.8623
  0.9524  0.9524

 Free energy of the ion-electron system (eV)
  ---------------------------------------------------
  alpha Z        PSCENC =       144.57875399
  Ewald energy   TEWEN  =     13872.42186660
  -Hartree energ DENC   =    -19334.16736891
  -exchange      EXHF   =         0.00000000
  -V(xc)+E(xc)   XCENC  =      -422.38337384
  PAW double counting   =      6369.84299566    -5596.53856485
  entropy T*S    EENTRO =        -0.00473872
  eigenvalues    EBANDS =      -131.30798216
  atomic energy  EATOM  =      4951.75456612
  ---------------------------------------------------
  free energy    TOTEN  =      -145.80384611 eV

  energy without entropy =     -145.79910739  energy(sigma->0) =     -145.80147675


--------------------------------------------------------------------------------------------------------




----------------------------------------- Iteration    1(  18)  ---------------------------------------


    POTLOK:  cpu time    0.10: real time    0.10
    SETDIJ:  cpu time    0.11: real time    0.11
     EDDAV:  cpu time    4.92: real time    4.92
       DOS:  cpu time    0.00: real time    0.00
    CHARGE:  cpu time    0.40: real time    0.40
    MIXING:  cpu time    0.01: real time    0.01
    --------------------------------------------
      LOOP:  cpu time    5.53: real time    5.54

 eigenvalue-minimisations  :  3036
 total energy-change (2. order) : 0.5012211E-04  (-0.6030844E-05)
 number of electron     103.0000001 magnetization 
 augmentation part        6.3481436 magnetization 

 Broyden mixing:
  rms(total) = 0.12883E-02    rms(broyden)= 0.12879E-02
  rms(prec ) = 0.20518E-02
  weight for this iteration     100.00

 eigenvalues of (default mixing * dielectric matrix)
  average eigenvalue GAMMA=   1.5535
  5.1460  2.8704  2.4208  1.3195  1.3195  0.9734  0.9734  1.0961  0.9612  0.9612
  0.6716  0.7182  0.7638

 Free energy of the ion-electron system (eV)
  ---------------------------------------------------
  alpha Z        PSCENC =       144.57875399
  Ewald energy   TEWEN  =     13872.42186660
  -Hartree energ DENC   =    -19333.98380998
  -exchange      EXHF   =         0.00000000
  -V(xc)+E(xc)   XCENC  =      -422.38226510
  PAW double counting   =      6370.38264988    -5597.07859714
  entropy T*S    EENTRO =        -0.00474972
  eigenvalues    EBANDS =      -131.49221065
  atomic energy  EATOM  =      4951.75456612
  ---------------------------------------------------
  free energy    TOTEN  =      -145.80379599 eV

  energy without entropy =     -145.79904627  energy(sigma->0) =     -145.80142113


--------------------------------------------------------------------------------------------------------




----------------------------------------- Iteration    1(  19)  ---------------------------------------


    POTLOK:  cpu time    0.10: real time    0.10
    SETDIJ:  cpu time    0.11: real time    0.11
     EDDAV:  cpu time    4.93: real time    4.93
       DOS:  cpu time    0.00: real time    0.00
    CHARGE:  cpu time    0.40: real time    0.40
    MIXING:  cpu time    0.01: real time    0.01
    --------------------------------------------
      LOOP:  cpu time    5.55: real time    5.56

 eigenvalue-minimisations  :  3038
 total energy-change (2. order) : 0.5826377E-04  (-0.6366637E-05)
 number of electron     103.0000001 magnetization 
 augmentation part        6.3480402 magnetization 

 Broyden mixing:
  rms(total) = 0.14601E-02    rms(broyden)= 0.14597E-02
  rms(prec ) = 0.19422E-02
  weight for this iteration     100.00

 eigenvalues of (default mixing * dielectric matrix)
  average eigenvalue GAMMA=   1.5851
  4.6474  3.3153  2.4892  2.4892  1.1377  1.1377  1.1532  1.0933  0.8201  0.8201
  0.8704  0.8704  0.6602  0.6879

 Free energy of the ion-electron system (eV)
  ---------------------------------------------------
  alpha Z        PSCENC =       144.57875399
  Ewald energy   TEWEN  =     13872.42186660
  -Hartree energ DENC   =    -19333.63295830
  -exchange      EXHF   =         0.00000000
  -V(xc)+E(xc)   XCENC  =      -422.37994304
  PAW double counting   =      6370.51788140    -5597.21446589
  entropy T*S    EENTRO =        -0.00476609
  eigenvalues    EBANDS =      -131.84467253
  atomic energy  EATOM  =      4951.75456612
  ---------------------------------------------------
  free energy    TOTEN  =      -145.80373773 eV

  energy without entropy =     -145.79897164  energy(sigma->0) =     -145.80135468


--------------------------------------------------------------------------------------------------------




----------------------------------------- Iteration    1(  20)  ---------------------------------------


    POTLOK:  cpu time    0.10: real time    0.10
    SETDIJ:  cpu time    0.11: real time    0.11
     EDDAV:  cpu time    4.98: real time    4.98
       DOS:  cpu time    0.00: real time    0.00
    CHARGE:  cpu time    0.40: real time    0.40
    MIXING:  cpu time    0.01: real time    0.01
    --------------------------------------------
      LOOP:  cpu time    5.59: real time    5.60

 eigenvalue-minimisations  :  3054
 total energy-change (2. order) : 0.4760459E-04  (-0.4764635E-05)
 number of electron     103.0000001 magnetization 
 augmentation part        6.3481635 magnetization 

 Broyden mixing:
  rms(total) = 0.13917E-02    rms(broyden)= 0.13915E-02
  rms(prec ) = 0.17149E-02
  weight for this iteration     100.00

 eigenvalues of (default mixing * dielectric matrix)
  average eigenvalue GAMMA=   1.7117
  6.6013  3.7432  2.6967  2.4905  1.1993  1.1993  0.8672  0.8672  1.1448  1.0858
  0.9075  0.9075  0.7448  0.6639  0.5565

 Free energy of the ion-electron system (eV)
  ---------------------------------------------------
  alpha Z        PSCENC =       144.57875399
  Ewald energy   TEWEN  =     13872.42186660
  -Hartree energ DENC   =    -19333.31882171
  -exchange      EXHF   =         0.00000000
  -V(xc)+E(xc)   XCENC  =      -422.38040353
  PAW double counting   =      6370.94774089    -5597.64398803
  entropy T*S    EENTRO =        -0.00476835
  eigenvalues    EBANDS =      -132.15863610
  atomic energy  EATOM  =      4951.75456612
  ---------------------------------------------------
  free energy    TOTEN  =      -145.80369012 eV

  energy without entropy =     -145.79892177  energy(sigma->0) =     -145.80130595


--------------------------------------------------------------------------------------------------------




----------------------------------------- Iteration    1(  21)  ---------------------------------------


    POTLOK:  cpu time    0.10: real time    0.10
    SETDIJ:  cpu time    0.10: real time    0.10
     EDDAV:  cpu time    5.83: real time    5.84
       DOS:  cpu time    0.00: real time    0.00
    CHARGE:  cpu time    0.40: real time    0.40
    MIXING:  cpu time    0.01: real time    0.01
    --------------------------------------------
      LOOP:  cpu time    6.44: real time    6.45

 eigenvalue-minimisations  :  3772
 total energy-change (2. order) : 0.4774421E-04  (-0.1305886E-04)
 number of electron     103.0000001 magnetization 
 augmentation part        6.3481638 magnetization 

 Broyden mixing:
  rms(total) = 0.71329E-03    rms(broyden)= 0.71267E-03
  rms(prec ) = 0.87205E-03
  weight for this iteration     100.00

 eigenvalues of (default mixing * dielectric matrix)
  average eigenvalue GAMMA=   1.7484
  7.2242  4.0203  2.7156  2.4973  1.3012  1.3012  1.1334  1.1334  0.9144  0.9144
  0.9454  0.9454  0.8361  0.8361  0.6623  0.5934

 Free energy of the ion-electron system (eV)
  ---------------------------------------------------
  alpha Z        PSCENC =       144.57875399
  Ewald energy   TEWEN  =     13872.42186660
  -Hartree energ DENC   =    -19332.89715824
  -exchange      EXHF   =         0.00000000
  -V(xc)+E(xc)   XCENC  =      -422.37772622
  PAW double counting   =      6371.12047534    -5597.81712826
  entropy T*S    EENTRO =        -0.00478272
  eigenvalues    EBANDS =      -132.58250899
  atomic energy  EATOM  =      4951.75456612
  ---------------------------------------------------
  free energy    TOTEN  =      -145.80364238 eV

  energy without entropy =     -145.79885966  energy(sigma->0) =     -145.80125102


--------------------------------------------------------------------------------------------------------




----------------------------------------- Iteration    1(  22)  ---------------------------------------


    POTLOK:  cpu time    0.10: real time    0.10
    SETDIJ:  cpu time    0.10: real time    0.10
     EDDAV:  cpu time    4.60: real time    4.61
       DOS:  cpu time    0.00: real time    0.00
    CHARGE:  cpu time    0.41: real time    0.41
    MIXING:  cpu time    0.01: real time    0.01
    --------------------------------------------
      LOOP:  cpu time    5.23: real time    5.23

 eigenvalue-minimisations  :  2786
 total energy-change (2. order) :-0.5435140E-05  (-0.1744367E-04)
 number of electron     103.0000001 magnetization 
 augmentation part        6.3477287 magnetization 

 Broyden mixing:
  rms(total) = 0.10760E-02    rms(broyden)= 0.10754E-02
  rms(prec ) = 0.11229E-02
  weight for this iteration     100.00

 eigenvalues of (default mixing * dielectric matrix)
  average eigenvalue GAMMA=   1.6602
  7.2666  4.0558  2.7192  2.4940  1.3101  1.3101  1.1316  1.1316  0.9228  0.9228
  0.9398  0.9398  0.8424  0.8424  0.6621  0.5971  0.1345

 Free energy of the ion-electron system (eV)
  ---------------------------------------------------
  alpha Z        PSCENC =       144.57875399
  Ewald energy   TEWEN  =     13872.42186660
  -Hartree energ DENC   =    -19332.83782040
  -exchange      EXHF   =         0.00000000
  -V(xc)+E(xc)   XCENC  =      -422.37609026
  PAW double counting   =      6370.95273945    -5597.65048910
  entropy T*S    EENTRO =        -0.00478552
  eigenvalues    EBANDS =      -132.64238869
  atomic energy  EATOM  =      4951.75456612
  ---------------------------------------------------
  free energy    TOTEN  =      -145.80364781 eV

  energy without entropy =     -145.79886229  energy(sigma->0) =     -145.80125505


--------------------------------------------------------------------------------------------------------




----------------------------------------- Iteration    1(  23)  ---------------------------------------


    POTLOK:  cpu time    0.10: real time    0.10
    SETDIJ:  cpu time    0.11: real time    0.11
     EDDAV:  cpu time    4.42: real time    4.43
       DOS:  cpu time    0.00: real time    0.00
    --------------------------------------------
      LOOP:  cpu time    4.64: real time    4.64

 eigenvalue-minimisations  :  2558
 total energy-change (2. order) :-0.1458475E-06  (-0.3722043E-05)
 number of electron     103.0000001 magnetization 
 augmentation part        6.3477287 magnetization 

 Free energy of the ion-electron system (eV)
  ---------------------------------------------------
  alpha Z        PSCENC =       144.57875399
  Ewald energy   TEWEN  =     13872.42186660
  -Hartree energ DENC   =    -19332.83947068
  -exchange      EXHF   =         0.00000000
  -V(xc)+E(xc)   XCENC  =      -422.37662330
  PAW double counting   =      6370.96606750    -5597.66361125
  entropy T*S    EENTRO =        -0.00478602
  eigenvalues    EBANDS =      -132.64041092
  atomic energy  EATOM  =      4951.75456612
  ---------------------------------------------------
  free energy    TOTEN  =      -145.80364796 eV

  energy without entropy =     -145.79886194  energy(sigma->0) =     -145.80125495


--------------------------------------------------------------------------------------------------------




 average (electrostatic) potential at core
  the test charge radii are     0.7215  1.0714  1.0406
  (the norm of the test charge is              1.0000)
       1 -69.8524       2 -69.7413       3 -69.7220       4 -69.7143       5 -69.7257
       6 -69.7318       7 -69.8489       8 -69.7282       9 -69.7157      10 -69.7433
      11 -35.2999      12 -35.2684      13 -35.3022      14 -35.3233      15 -35.2736
      16 -35.2895      17 -35.4653      18 -35.4648      19 -35.2862      20 -35.2767
      21 -35.3238      22 -73.9377      23 -73.8539      24 -73.8946      25 -73.8960
      26 -73.8543      27 -73.8965      28 -73.8945
 
 
 
 E-fermi :   6.7695     XC(G=0): -10.4618     alpha+bet :-12.9498


 k-point     1 :       0.0000    0.0000    0.0000
  band No.  band energies     occupation 
      1     -14.0780      2.00000
      2     -14.0275      2.00000
      3     -13.9331      2.00000
      4     -13.8082      2.00000
      5     -13.6550      2.00000
      6     -13.4880      2.00000
      7     -13.3196      2.00000
      8     -13.1622      2.00000
      9     -13.0353      2.00000
     10     -12.9420      2.00000
     11      -3.8220      2.00000
     12      -3.4826      2.00000
     13      -2.9188      2.00000
     14      -2.1767      2.00000
     15      -1.5241      2.00000
     16      -1.3270      2.00000
     17      -1.3100      2.00000
     18      -0.8534      2.00000
     19      -0.7374      2.00000
     20      -0.1094      2.00000
     21      -0.0081      2.00000
     22       0.6809      2.00000
     23       0.8821      2.00000
     24       1.6887      2.00000
     25       1.7068      2.00000
     26       2.4244      2.00000
     27       2.4681      2.00000
     28       2.4681      2.00000
     29       2.4923      2.00000
     30       2.4923      2.00000
     31       2.5432      2.00000
     32       2.5432      2.00000
     33       2.6081      2.00000
     34       2.6082      2.00000
     35       2.6687      2.00000
     36       2.6885      2.00000
     37       2.6885      2.00000
     38       2.7736      2.00000
     39       2.7736      2.00000
     40       2.8576      2.00000
     41       2.8576      2.00000
     42       2.9359      2.00000
     43       2.9359      2.00000
     44       2.9913      2.00000
     45       2.9972      2.00000
     46       2.9972      2.00000
     47       3.0454      2.00000
     48       3.0454      2.00000
     49       4.5777      2.00000
     50       5.9500      2.00000
     51       7.1941      0.00000
     52       7.7473      0.00000
     53       7.9499      0.00000
     54       8.7106      0.00000
     55       8.7563      0.00000
     56       9.6366      0.00000
     57       9.6959      0.00000
     58      10.3338      0.00000
     59      10.4512      0.00000
     60      10.7275      0.00000
     61      10.8047      0.00000
     62      11.0063      0.00000
[...]
     17      -0.4643      2.00000
     18      -0.3889      2.00000
     19      -0.2504      2.00000
     20      -0.1021      2.00000
     21       0.2900      2.00000
     22       0.4182      2.00000
     23       0.5568      2.00000
     24       0.7016      2.00000
     25       0.8784      2.00000
     26       0.8933      2.00000
     27       0.9465      2.00000
     28       0.9725      2.00000
     29       1.0433      2.00000
     30       1.1075      2.00000
     31       1.2203      2.00000
     32       1.2966      2.00000
     33       1.3256      2.00000
     34       1.4103      2.00000
     35       1.5141      2.00000
     36       1.6836      2.00000
     37       1.8138      2.00000
     38       1.8728      2.00000
     39       1.8929      2.00000
     40       1.9695      2.00000
     41       2.0483      2.00000
     42       2.1333      2.00000
     43       2.2359      2.00000
     44       2.6474      2.00000
     45       3.5875      2.00000
     46       4.1901      2.00000
     47       4.5201      2.00000
     48       4.6293      2.00000
     49       5.0594      2.00000
     50       5.6699      2.00000
     51       5.7774      2.00000
     52       5.9557      2.00000
     53       6.0972      2.00000
     54       6.5854      2.00000
     55       6.8321      0.19955
     56       7.0611      0.00000
     57       7.4967      0.00000
     58       7.9428      0.00000
     59       8.4003      0.00000
     60       8.9055      0.00000
     61       9.0813      0.00000
     62       9.6303      0.00000
     63       9.9617      0.00000
     64      10.3289      0.00000
     65      10.8821      0.00000
     66      11.2946      0.00000

 k-point    20 :       0.3846    0.2308    0.0000
  band No.  band energies     occupation 
      1     -12.7890      2.00000
      2     -12.7869      2.00000
      3     -12.7536      2.00000
      4     -12.7463      2.00000
      5     -12.7274      2.00000
      6     -12.7076      2.00000
      7     -12.6866      2.00000
      8     -12.6667      2.00000
      9     -12.6474      2.00000
     10     -12.6264      2.00000
     11      -0.9167      2.00000
     12      -0.8402      2.00000
     13      -0.6987      2.00000
     14      -0.5337      2.00000
     15      -0.4582      2.00000
     16      -0.4478      2.00000
     17      -0.4079      2.00000
     18      -0.3953      2.00000
     19      -0.3480      2.00000
     20      -0.3268      2.00000
     21       0.4687      2.00000
     22       0.5026      2.00000
     23       0.5490      2.00000
     24       0.5643      2.00000
     25       0.6393      2.00000
     26       0.6500      2.00000
     27       0.6906      2.00000
     28       0.8477      2.00000
     29       1.0121      2.00000
     30       1.1841      2.00000
     31       1.4333      2.00000
     32       1.4434      2.00000
     33       1.6532      2.00000
     34       1.6702      2.00000
     35       1.7852      2.00000
     36       1.7874      2.00000
     37       1.9350      2.00000
     38       2.0399      2.00000
     39       2.1053      2.00000
     40       2.1075      2.00000
     41       2.4541      2.00000
     42       2.4550      2.00000
     43       2.7901      2.00000
     44       2.8001      2.00000
     45       3.3268      2.00000
     46       3.3641      2.00000
     47       4.0839      2.00000
     48       4.0897      2.00000
     49       4.8751      2.00000
     50       5.2021      2.00000
     51       5.6590      2.00000
     52       5.9308      2.00000
     53       5.9852      2.00000
     54       6.2381      2.00000
     55       6.6120      2.00000
     56       7.0700      0.00000
     57       7.2543      0.00000
     58       7.6961      0.00000
     59       8.2248      0.00000
     60       8.5279      0.00000
     61       8.7042      0.00000
     62       9.3419      0.00000
     63      10.2766      0.00000
     64      10.4036      0.00000
     65      10.4397      0.00000
     66      11.5145      0.00000

 k-point    21 :       0.3077    0.3077   -0.0000
  band No.  band energies     occupation 
      1     -12.7617      2.00000
      2     -12.7600      2.00000
      3     -12.7231      2.00000
      4     -12.7180      2.00000
      5     -12.7028      2.00000
      6     -12.6897      2.00000
      7     -12.6753      2.00000
      8     -12.6614      2.00000
      9     -12.6469      2.00000
     10     -12.6305      2.00000
     11      -0.5627      2.00000
     12      -0.5592      2.00000
     13      -0.4989      2.00000
     14      -0.4883      2.00000
     15      -0.3848      2.00000
     16      -0.3673      2.00000
     17      -0.2586      2.00000
     18      -0.1654      2.00000
     19      -0.1164      2.00000
     20      -0.0650      2.00000
     21       0.0501      2.00000
     22       0.1108      2.00000
     23       0.2397      2.00000
     24       0.2854      2.00000
     25       0.4065      2.00000
     26       0.4368      2.00000
     27       0.5407      2.00000
     28       0.6132      2.00000
     29       0.7174      2.00000
     30       0.7493      2.00000
     31       1.4366      2.00000
     32       1.4535      2.00000
     33       1.6596      2.00000
     34       1.7850      2.00000
     35       1.8522      2.00000
     36       1.8778      2.00000
     37       1.9291      2.00000
     38       1.9331      2.00000
     39       1.9654      2.00000
     40       2.0698      2.00000
     41       2.3306      2.00000
     42       2.6738      2.00000
     43       3.2210      2.00000
     44       3.9221      2.00000
     45       3.9421      2.00000
     46       3.9927      2.00000
     47       4.2738      2.00000
     48       4.2764      2.00000
     49       4.7960      2.00000
     50       4.8117      2.00000
     51       4.8602      2.00000
     52       5.4665      2.00000
     53       5.5855      2.00000
     54       5.9489      2.00000
     55       6.4868      2.00000
     56       6.5766      2.00000
     57       7.3998      0.00000
     58       7.5244      0.00000
     59       7.9424      0.00000
     60       8.2880      0.00000
     61       8.7493      0.00000
     62       9.0754      0.00000
     63       9.7690      0.00000
     64       9.9147      0.00000
     65      10.5621      0.00000
     66      11.1153      0.00000


--------------------------------------------------------------------------------------------------------


 soft charge-density along one line, spin component           1
         0         1         2         3         4         5         6         7         8         9
 total charge-density along one line
 
 pseudopotential strength for first ion, spin component:           1
 12.135   0.000 -14.762   0.000   0.000   0.000  -0.003   0.000  -0.000   0.000  -0.000   0.000   0.003   0.000   0.000   0.000
-14.762   0.000  17.976   0.000  -0.000   0.000   0.004   0.000   0.000   0.000   0.000   0.000  -0.004   0.000  -0.000   0.000
  0.000   0.000  -0.000   0.000  -8.264   0.000  -0.000   0.000   0.000   0.000   9.883   0.000   0.000   0.000  -0.000   0.000
 -0.003   0.000   0.004   0.000  -0.000   0.000  -8.267   0.000   0.000   0.000   0.000   0.000   9.888   0.000  -0.000   0.000
 -0.000   0.000   0.000   0.000   0.000   0.000   0.000   0.000  -8.264   0.000  -0.000   0.000  -0.000   0.000   9.883   0.000
 -0.000   0.000   0.000   0.000   9.883   0.000   0.000   0.000  -0.000   0.000 -11.656   0.000  -0.000   0.000   0.000   0.000
  0.003   0.000  -0.004   0.000   0.000   0.000   9.888   0.000  -0.000   0.000  -0.000   0.000 -11.663   0.000   0.000   0.000
  0.000   0.000  -0.000   0.000  -0.000   0.000  -0.000   0.000   9.883   0.000   0.000   0.000   0.000   0.000 -11.656   0.000
 total augmentation occupancy for first ion, spin component:           1
  2.589   0.357   0.000   0.011  -0.000   0.000   0.001  -0.000
  0.357   0.076  -0.000   0.008  -0.000  -0.000  -0.003   0.000
  0.000  -0.000   2.143   0.000  -0.000   0.255  -0.000  -0.000
  0.011   0.008  -0.000   2.130  -0.000  -0.000   0.255  -0.000
 -0.000  -0.000  -0.000  -0.000   2.143  -0.000  -0.000   0.255
  0.000  -0.000   0.255   0.000   0.000   0.033   0.000  -0.000
  0.001  -0.003   0.000   0.255  -0.000   0.000   0.035  -0.000
 -0.000   0.000  -0.000  -0.000   0.255  -0.000  -0.000   0.033


------------------------ aborting loop because EDIFF is reached ----------------------------------------


    CHARGE:  cpu time    0.40: real time    0.40
    FORLOC:  cpu time    0.03: real time    0.03
    FORNL :  cpu time    3.44: real time    3.45
    STRESS:  cpu time    4.47: real time    4.47
    FORCOR:  cpu time    0.14: real time    0.14
    FORHAR:  cpu time    0.07: real time    0.07
    MIXING:  cpu time    0.00: real time    0.00
    OFIELD:  cpu time    0.00: real time    0.00

  FORCE on cell =-STRESS in cart. coord.  units (eV):
  Direction    XX          YY          ZZ          XY          YZ          ZX
  --------------------------------------------------------------------------------------
  Alpha Z   144.57875   144.57875   144.57875
  Ewald   16656.00248 16656.00288-19367.08212    -0.00010     0.00006    -0.00020
  Hartree 18453.27941 18453.27932-17502.24007    -0.00000     0.00000     0.00004
  E(xc)    -426.39142  -426.39143  -426.90720    -0.00000     0.00000     0.00000
  Local  -36363.02479-36363.02433 35612.07655    -0.00012    -0.00005     0.00009
  n-local   -43.38106   -57.42680   -43.72961     3.01598    -1.81770     5.70089
  augment    60.80549    60.80524    60.20508     0.00018    -0.00000     0.00000
  Kinetic  1544.34170  1504.23870  1518.01477    -1.10902    -0.40311     1.93777
  Fock        0.00000     0.00000     0.00000     0.00000     0.00000     0.00000
  -------------------------------------------------------------------------------------
  Total      -0.86356    -0.86356    -5.08384     0.00000     0.00000    -0.00000
  in kB      -4.12084    -4.12084   -24.25973     0.00000     0.00000    -0.00000
  external pressure =      -10.83 kB  Pullay stress =        0.00 kB


 VOLUME and BASIS-vectors are now :
 -----------------------------------------------------------------------------
  energy-cutoff  :      520.00
  volume of cell :      335.75
      direct lattice vectors                 reciprocal lattice vectors
     2.592201318 -1.496607673  0.000000000     0.385772507  0.000000000  0.000000000
     0.000000000  2.993215347  0.000000000     0.192886253  0.334088892  0.000000000
    -0.000000000  0.000000000 43.272264243     0.000000000  0.000000000  0.023109491

  length of vectors
     2.993216030  2.993215347 43.272264243     0.385772507  0.385772595  0.023109491


 FORCES acting on ions
    electron-ion (+dipol)            ewald-force                    non-local-force                 convergence-correction
 -----------------------------------------------------------------------------------------------
   0.288E-05 -.529E-06 0.132E+04   -.401E-05 0.321E-05 -.132E+04   -.476E-17 0.130E-17 0.111E+01   0.639E-09 -.942E-09 -.618E-02
   0.106E-02 -.184E-02 0.103E+04   0.580E-04 -.100E-03 -.103E+04   -.122E-19 0.000E+00 0.159E-01   0.195E-08 -.352E-08 0.424E-02
   -.110E-07 0.210E-08 0.442E+03   0.819E-08 -.546E-08 -.442E+03   0.936E-20 0.000E+00 -.336E-02   -.173E-09 0.451E-09 0.172E-01
   0.106E-02 -.184E-02 0.147E+03   0.577E-04 -.999E-04 -.147E+03   -.147E-19 0.212E-20 0.153E-02   0.234E-08 -.400E-08 -.104E-02
   0.113E-07 -.215E-08 -.442E+03   -.201E-07 0.187E-07 0.442E+03   -.287E-19 -.136E-19 0.756E-02   0.121E-09 -.395E-09 -.323E-01
   0.106E-02 -.184E-02 -.737E+03   0.579E-04 -.100E-03 0.737E+03   0.324E-20 -.813E-19 0.459E-02   0.238E-09 -.742E-09 -.236E-01
   -.287E-05 0.529E-06 -.132E+04   0.401E-05 -.322E-05 0.132E+04   0.520E-17 -.217E-18 -.112E+01   -.499E-09 0.751E-09 0.116E-01
   -.106E-02 0.184E-02 0.737E+03   -.579E-04 0.100E-03 -.737E+03   0.153E-19 -.271E-19 -.662E-02   -.698E-09 0.157E-08 0.199E-01
   -.106E-02 0.184E-02 -.147E+03   -.577E-04 0.999E-04 0.147E+03   -.267E-19 -.339E-20 0.829E-02   -.254E-08 0.425E-08 -.231E-01
   -.106E-02 0.184E-02 -.103E+04   -.579E-04 0.100E-03 0.103E+04   -.309E-18 -.867E-18 -.207E-01   -.973E-09 0.190E-08 -.848E-03
   0.475E-08 -.268E-08 0.295E+03   -.134E-07 0.149E-07 -.295E+03   0.172E-22 -.136E-19 -.223E-04   0.972E-10 -.164E-09 0.451E-02
   0.873E-09 -.504E-08 -.457E-01   0.782E-08 -.872E-08 0.486E-01   0.236E-21 0.339E-20 -.307E-03   -.936E-11 0.131E-10 -.414E-02
   -.611E-08 0.134E-08 -.295E+03   0.202E-07 -.225E-07 0.295E+03   0.899E-20 -.339E-20 -.122E-02   0.242E-11 -.648E-12 -.427E-02
   0.441E-04 -.763E-04 0.394E+03   -.495E-04 0.857E-04 -.393E+03   0.332E-19 -.867E-18 -.431E-01   0.541E-09 -.965E-09 -.699E-03
   0.438E-04 -.759E-04 0.981E+02   -.494E-04 0.855E-04 -.981E+02   0.220E-19 0.271E-19 0.228E-02   -.129E-10 0.271E-10 0.305E-02
   0.439E-04 -.760E-04 -.196E+03   -.494E-04 0.856E-04 0.196E+03   0.175E-19 -.136E-18 -.507E-02   -.306E-09 0.559E-09 -.998E-02
   0.321E-04 -.407E-04 -.471E+03   -.259E-04 0.279E-04 0.472E+03   0.107E-16 0.694E-17 -.315E+00   0.654E-09 -.114E-08 0.478E-02
   -.321E-04 0.407E-04 0.471E+03   0.259E-04 -.279E-04 -.472E+03   -.244E-18 0.694E-17 0.317E+00   -.711E-09 0.123E-08 -.305E-02
   -.439E-04 0.760E-04 0.196E+03   0.494E-04 -.857E-04 -.196E+03   -.301E-19 0.000E+00 0.383E-02   0.175E-09 -.332E-09 0.689E-02
   -.438E-04 0.759E-04 -.982E+02   0.493E-04 -.854E-04 0.982E+02   0.914E-20 -.542E-19 -.307E-02   0.373E-10 -.696E-10 -.979E-02
   -.441E-04 0.763E-04 -.394E+03   0.495E-04 -.857E-04 0.393E+03   0.183E-18 0.867E-18 0.434E-01   -.467E-09 0.828E-09 0.237E-02
   0.589E-10 0.240E-09 0.199E+00   -.176E-08 0.176E-08 -.200E+00   -.253E-19 -.271E-19 -.240E-02   0.544E-12 -.332E-12 0.302E-02
   -.349E-06 -.438E-07 0.500E+03   0.136E-05 -.130E-05 -.500E+03   0.282E-16 -.278E-16 -.516E+00   -.498E-11 0.788E-12 0.318E-03
   0.150E-04 -.261E-04 0.333E+03   -.394E-05 0.679E-05 -.333E+03   -.677E-17 -.260E-17 -.215E+00   -.725E-11 0.516E-11 0.464E-02
   -.151E-04 0.261E-04 0.166E+03   0.393E-05 -.679E-05 -.166E+03   0.806E-18 -.347E-17 0.799E-01   -.308E-11 -.101E-11 0.544E-02
   0.350E-06 0.434E-07 -.500E+03   -.136E-05 0.130E-05 0.499E+03   -.393E-18 0.000E+00 0.510E+00   0.434E-11 -.126E-11 0.308E-02
   0.151E-04 -.261E-04 -.166E+03   -.393E-05 0.678E-05 0.166E+03   -.167E-17 0.104E-16 -.836E-01   0.504E-11 -.134E-11 0.255E-03
   -.150E-04 0.261E-04 -.333E+03   0.394E-05 -.678E-05 0.333E+03   -.170E-18 0.104E-16 0.220E+00   0.379E-11 0.257E-11 0.119E-03
 -----------------------------------------------------------------------------------------------
   0.347E-07 -.764E-07 0.380E-01   -.120E-12 -.176E-13 0.796E-12   0.307E-16 0.758E-18 -.995E-02   0.412E-09 -.687E-09 -.276E-01
 
 
 POSITION                                       TOTAL-FORCE (eV/Angst)
 -----------------------------------------------------------------------------------
     -0.00000      0.00000     11.55243        -0.000000     -0.000000      0.003386
      0.86407      1.49661     14.02443        -0.000000      0.000000     -0.008652
     -0.00000      0.00000     18.97276        -0.000000     -0.000000      0.000051
      0.86407      1.49661     21.44934         0.000000      0.000000      0.001876
     -0.00000      0.00000     26.40355        -0.000000     -0.000000      0.001757
      0.86407      1.49661     28.87855        -0.000000      0.000000      0.002460
     -0.00000      0.00000     33.82457         0.000000     -0.000000     -0.006716
      1.72814     -0.00000     16.49802         0.000000     -0.000000     -0.002858
      1.72814     -0.00000     23.92668        -0.000000      0.000000      0.003649
      1.72814     -0.00000     31.35225        -0.000000      0.000000      0.007592
     -0.00000      0.00000     15.26108        -0.000000     -0.000000      0.009995
     -0.00000      0.00000     22.68809         0.000000     -0.000000     -0.001565
     -0.00000      0.00000     30.11561         0.000000     -0.000000     -0.009857
      1.72814     -0.00000     12.78732        -0.000000     -0.000000      0.015352
      1.72814     -0.00000     20.21085        -0.000000     -0.000000      0.008196
      1.72814     -0.00000     27.64155         0.000000     -0.000000     -0.016316
      1.72814     -0.00000     35.10287        -0.000000     -0.000000     -0.000537
      0.86407      1.49661     10.27419        -0.000000     -0.000000      0.002637
      0.86407      1.49661     17.73501        -0.000000     -0.000000      0.014662
      0.86407      1.49661     25.16545         0.000000     -0.000000     -0.010887
      0.86407      1.49661     32.58943         0.000000     -0.000000     -0.011534
     -0.00000      0.00000      1.05355         0.000000     -0.000000     -0.000972
     -0.00000      0.00000      7.82824        -0.000000     -0.000000      0.001781
      1.72814     -0.00000      5.57291        -0.000000     -0.000000      0.008319
      0.86407      1.49661      3.31050        -0.000000     -0.000000      0.002189
     -0.00000      0.00000     37.54979         0.000000     -0.000000     -0.004310
      1.72814     -0.00000     42.06853         0.000000     -0.000000     -0.003548
      0.86407      1.49661     39.80519         0.000000     -0.000000     -0.006152
 -----------------------------------------------------------------------------------
    total drift:                                0.000000     -0.000000      0.000481


--------------------------------------------------------------------------------------------------------



  FREE ENERGIE OF THE ION-ELECTRON SYSTEM (eV)
  ---------------------------------------------------
  free  energy   TOTEN  =      -145.80506503 eV

  energy  without entropy=     -145.79980993  energy(sigma->0) =     -145.80243748
 
 d Force = 0.9682113E-04[ 0.691E-04, 0.124E-03]  d Energy = 0.9740421E-04-0.583E-06
 d Force =-0.4741490E+01[-0.474E+01,-0.474E+01]  d Ewald  =-0.4741490E+01-0.801E-08


--------------------------------------------------------------------------------------------------------


    POTLOK:  cpu time    0.20: real time    0.20


--------------------------------------------------------------------------------------------------------


 Conjugate gradient step on ions:
 trial-energy change:   -0.000097  1 .order   -0.000097   -0.000124   -0.000069
  (g-gl).g = 0.209E-03      g.g   = 0.264E-03  gl.gl    = 0.281E-03
 g(Force)  = 0.264E-03   g(Stress)= 0.000E+00 ortho     =-0.251E-04
 gamma     =   0.74397
 trial     =   0.50695
 opt step  =   1.14034  (harmonic =   1.14034) maximal distance =0.00267564
 next E    =  -145.805108   (d E  =  -0.00014)


--------------------------------------------------------------------------------------------------------


  
 reached required accuracy - stopping structural energy minimisation
     LOOP+:  cpu time   37.90: real time   37.96
    4ORBIT:  cpu time    0.00: real time    0.00

 total amount of memory used by VASP on root node   150790. kBytes
========================================================================

   base      :      30000. kBytes
   nonl-proj :      16128. kBytes
   fftplans  :      55867. kBytes
   grid      :      22394. kBytes
   one-center:         56. kBytes
   wavefun   :      26345. kBytes
 
  
  
 General timing and accounting informations for this job:
 ========================================================
  
                  Total CPU time used (sec):      967.162
                            User time (sec):      956.201
                          System time (sec):       10.961
                         Elapsed time (sec):      968.656
  
                   Maximum memory used (kb):      254020.
                   Average memory used (kb):           0.
  
                          Minor page faults:       253972
                          Major page faults:            0
                 Voluntary context switches:          252
