       N       E                     dE             d eps       ncg     rms          rms(c)
DAV:   1     0.535378926206E+03    0.53538E+03   -0.44761E+04  2804   0.134E+03
DAV:   2    -0.928466279836E+02   -0.62823E+03   -0.59277E+03  3638   0.252E+02
DAV:   3    -0.159134455240E+03   -0.66288E+02   -0.65925E+02  3216   0.892E+01
DAV:   4    -0.160077631933E+03   -0.94318E+00   -0.94139E+00  3240   0.115E+01
DAV:   5    -0.160093103613E+03   -0.15472E-01   -0.15463E-01  3224   0.144E+00    0.231E+01
DAV:   6    -0.143956980833E+03    0.16136E+02   -0.94371E+01  3182   0.298E+01    0.789E+00
DAV:   7    -0.143838629069E+03    0.11835E+00   -0.21320E+00  3036   0.531E+00    0.480E+00
DAV:   8    -0.143727394813E+03    0.11123E+00   -0.60763E-01  3170   0.405E+00    0.895E-01
DAV:   9    -0.143706607361E+03    0.20787E-01   -0.10386E-01  3170   0.118E+00    0.528E-01
DAV:  10    -0.143705363088E+03    0.12443E-02   -0.35877E-02  3106   0.716E-01    0.237E-01
DAV:  11    -0.143706271118E+03   -0.90803E-03   -0.47301E-03  3148   0.273E-01    0.155E-01
DAV:  12    -0.143706276928E+03   -0.58103E-05   -0.12618E-03  3936   0.239E-01    0.886E-02
DAV:  13    -0.143706148255E+03    0.12867E-03   -0.11831E-03  3208   0.178E-01    0.276E-02
DAV:  14    -0.143706065388E+03    0.82868E-04   -0.28208E-04  3312   0.113E-01    0.176E-02
DAV:  15    -0.143706019676E+03    0.45711E-04   -0.62093E-05  3038   0.626E-02    0.221E-02
DAV:  16    -0.143705859958E+03    0.15972E-03   -0.20794E-04  3958   0.201E-01    0.149E-02
DAV:  17    -0.143705851206E+03    0.87522E-05   -0.11939E-04  2928   0.525E-02    0.147E-02
DAV:  18    -0.143705797362E+03    0.53845E-04   -0.12943E-04  4096   0.163E-01    0.156E-02
DAV:  19    -0.143705775996E+03    0.21366E-04   -0.18371E-04  3814   0.242E-01    0.235E-02
DAV:  20    -0.143705785615E+03   -0.96191E-05   -0.22448E-04  3040   0.840E-02    0.175E-02
DAV:  21    -0.143705787735E+03   -0.21199E-05   -0.82925E-05  2728   0.347E-02
   1 F= -.14370579E+03 E0= -.14370327E+03  d E =-.143706E+03
       N       E                     dE             d eps       ncg     rms          rms(c)
DAV:   1    -0.143707370987E+03   -0.15854E-02   -0.89162E-03  2834   0.398E-01    0.242E-02
DAV:   2    -0.143707344282E+03    0.26705E-04   -0.69994E-04  3194   0.114E-01    0.267E-02
DAV:   3    -0.143707316674E+03    0.27607E-04   -0.89857E-05  3130   0.450E-02    0.203E-02
DAV:   4    -0.143707296803E+03    0.19872E-04   -0.31984E-05  2554   0.285E-02    0.112E-02
DAV:   5    -0.143707264850E+03    0.31953E-04   -0.55239E-05  2826   0.556E-02    0.747E-03
DAV:   6    -0.143707258360E+03    0.64899E-05   -0.35800E-05  2630   0.423E-02
   2 F= -.14370726E+03 E0= -.14370481E+03  d E =-.147063E-02
       N       E                     dE             d eps       ncg     rms          rms(c)
DAV:   1    -0.143708240605E+03   -0.97576E-03   -0.18758E-02  2814   0.576E-01    0.371E-02
DAV:   2    -0.143708188427E+03    0.52178E-04   -0.15543E-03  3184   0.166E-01    0.393E-02
DAV:   3    -0.143708129403E+03    0.59024E-04   -0.17889E-04  3146   0.617E-02    0.290E-02
DAV:   4    -0.143708082280E+03    0.47123E-04   -0.80379E-05  3050   0.437E-02    0.149E-02
DAV:   5    -0.143708011359E+03    0.70921E-04   -0.12294E-04  3100   0.780E-02    0.126E-02
DAV:   6    -0.143707994395E+03    0.16964E-04   -0.69040E-05  3102   0.516E-02    0.114E-02
DAV:   7    -0.143707988529E+03    0.58654E-05   -0.36943E-05  2770   0.294E-02
   3 F= -.14370799E+03 E0= -.14370567E+03  d E =-.220079E-02
       N       E                     dE             d eps       ncg     rms          rms(c)
DAV:   1    -0.143708761304E+03   -0.76691E-03   -0.22162E-01  2892   0.197E+00    0.579E-02
DAV:   2    -0.143709195981E+03   -0.43468E-03   -0.49908E-03  3056   0.264E-01    0.353E-02
DAV:   3    -0.143709161126E+03    0.34856E-04   -0.61814E-05  3160   0.497E-02    0.232E-02
DAV:   4    -0.143709129327E+03    0.31799E-04   -0.40490E-05  2910   0.611E-02    0.882E-03
DAV:   5    -0.143709120083E+03    0.92436E-05   -0.46860E-05  2846   0.512E-02    0.585E-03
DAV:   6    -0.143709119086E+03    0.99768E-06   -0.23913E-05  2132   0.238E-02
   4 F= -.14370912E+03 E0= -.14370687E+03  d E =-.113056E-02
       N       E                     dE             d eps       ncg     rms          rms(c)
DAV:   1    -0.143707196732E+03    0.19234E-02   -0.19890E+00  2860   0.592E+00    0.174E-01
DAV:   2    -0.143711152840E+03   -0.39561E-02   -0.45095E-02  3056   0.793E-01    0.107E-01
DAV:   3    -0.143710827195E+03    0.32564E-03   -0.47147E-04  3232   0.146E-01    0.709E-02
DAV:   4    -0.143710512334E+03    0.31486E-03   -0.51439E-04  3458   0.204E-01    0.229E-02
DAV:   5    -0.143710448975E+03    0.63358E-04   -0.43069E-04  3158   0.133E-01    0.181E-02
DAV:   6    -0.143710397994E+03    0.50981E-04   -0.80176E-05  3100   0.751E-02    0.118E-02
DAV:   7    -0.143710317569E+03    0.80425E-04   -0.22747E-05  2212   0.100E-01    0.852E-03
DAV:   8    -0.143710266911E+03    0.50658E-04   -0.40083E-05  2822   0.787E-02    0.772E-03
DAV:   9    -0.143710211785E+03    0.55127E-04   -0.34972E-05  2608   0.109E-01    0.722E-03
DAV:  10    -0.143710101043E+03    0.11074E-03   -0.13877E-04  3688   0.290E-01    0.801E-03
DAV:  11    -0.143710086258E+03    0.14785E-04   -0.24236E-04  3204   0.145E-01    0.538E-03
DAV:  12    -0.143710095502E+03   -0.92441E-05   -0.19217E-04  3030   0.665E-02    0.131E-02
DAV:  13    -0.143710090210E+03    0.52928E-05   -0.21628E-05  2232   0.258E-02
   5 F= -.14371009E+03 E0= -.14370804E+03  d E =-.210168E-02
       N       E                     dE             d eps       ncg     rms          rms(c)
DAV:   1    -0.143710029059E+03    0.66443E-04   -0.93698E-02  2780   0.128E+00    0.365E-02
DAV:   2    -0.143710210431E+03   -0.18137E-03   -0.21491E-03  3068   0.175E-01    0.248E-02
DAV:   3    -0.143710193662E+03    0.16769E-04   -0.15302E-05  2326   0.247E-02    0.179E-02
DAV:   4    -0.143710173912E+03    0.19750E-04   -0.54848E-05  2836   0.561E-02    0.563E-03
DAV:   5    -0.143710175338E+03   -0.14259E-05   -0.31225E-05  2532   0.220E-02    0.754E-03
DAV:   6    -0.143710174877E+03    0.46107E-06   -0.13304E-06  1516   0.490E-03
   6 F= -.14371017E+03 E0= -.14370809E+03  d E =-.218635E-02
       N       E                     dE             d eps       ncg     rms          rms(c)
DAV:   1    -0.143710648611E+03   -0.47327E-03   -0.11296E-01  2896   0.141E+00    0.414E-02
DAV:   2    -0.143710874461E+03   -0.22585E-03   -0.25152E-03  3022   0.193E-01    0.234E-02
DAV:   3    -0.143710860857E+03    0.13604E-04   -0.32193E-05  2790   0.274E-02    0.165E-02
DAV:   4    -0.143710848400E+03    0.12456E-04   -0.19968E-05  2088   0.275E-02    0.678E-03
DAV:   5    -0.143710843620E+03    0.47807E-05   -0.13249E-05  1812   0.254E-02    0.515E-03
DAV:   6    -0.143710841143E+03    0.24768E-05   -0.57660E-06  1684   0.170E-02
   7 F= -.14371084E+03 E0= -.14370879E+03  d E =-.666266E-03
       N       E                     dE             d eps       ncg     rms          rms(c)
DAV:   1    -0.143710540741E+03    0.30288E-03   -0.10157E+00  2884   0.424E+00    0.122E-01
DAV:   2    -0.143712627466E+03   -0.20867E-02   -0.22713E-02  2976   0.575E-01    0.711E-02
DAV:   3    -0.143712504573E+03    0.12289E-03   -0.19694E-04  3190   0.673E-02    0.485E-02
DAV:   4    -0.143712392820E+03    0.11175E-03   -0.28930E-04  3162   0.956E-02    0.163E-02
DAV:   5    -0.143712382382E+03    0.10439E-04   -0.11042E-04  3028   0.517E-02    0.136E-02
DAV:   6    -0.143712366872E+03    0.15510E-04   -0.21593E-05  2188   0.311E-02    0.665E-03
DAV:   7    -0.143712337716E+03    0.29156E-04   -0.12229E-05  2058   0.567E-02    0.550E-03
DAV:   8    -0.143712308209E+03    0.29507E-04   -0.21860E-05  2344   0.656E-02    0.964E-03
DAV:   9    -0.143712278888E+03    0.29321E-04   -0.27435E-05  2566   0.714E-02    0.610E-03
DAV:  10    -0.143712233977E+03    0.44911E-04   -0.85468E-05  3620   0.163E-01    0.161E-02
DAV:  11    -0.143712215885E+03    0.18092E-04   -0.85622E-05  3346   0.121E-01    0.123E-02
DAV:  12    -0.143712221556E+03   -0.56708E-05   -0.12183E-04  2854   0.495E-02    0.557E-03
DAV:  13    -0.143712222137E+03   -0.58096E-06   -0.12100E-05  1674   0.134E-02
   8 F= -.14371222E+03 E0= -.14371025E+03  d E =-.204726E-02
       N       E                     dE             d eps       ncg     rms          rms(c)
DAV:   1    -0.143705097869E+03    0.71237E-02   -0.40631E+00  2876   0.854E+00    0.249E-01
DAV:   2    -0.143713699641E+03   -0.86018E-02   -0.93321E-02  2958   0.116E+00    0.146E-01
DAV:   3    -0.143713222951E+03    0.47669E-03   -0.81200E-04  3230   0.135E-01    0.985E-02
DAV:   4    -0.143712853410E+03    0.36954E-03   -0.10303E-03  3218   0.170E-01    0.325E-02
DAV:   5    -0.143712829769E+03    0.23641E-04   -0.36963E-04  3104   0.913E-02    0.245E-02
DAV:   6    -0.143712788100E+03    0.41670E-04   -0.87651E-05  3054   0.610E-02    0.116E-02
DAV:   7    -0.143712734711E+03    0.53388E-04   -0.28399E-05  2372   0.765E-02    0.954E-03
DAV:   8    -0.143712679116E+03    0.55596E-04   -0.35863E-05  2654   0.822E-02    0.112E-02
DAV:   9    -0.143712616938E+03    0.62177E-04   -0.52646E-05  2982   0.946E-02    0.108E-02
DAV:  10    -0.143712498092E+03    0.11885E-03   -0.15474E-04  3874   0.238E-01    0.186E-02
DAV:  11    -0.143712474535E+03    0.23556E-04   -0.17714E-04  3476   0.117E-01    0.116E-02
DAV:  12    -0.143712479135E+03   -0.45998E-05   -0.16620E-04  2916   0.883E-02    0.156E-02
DAV:  13    -0.143712472755E+03    0.63807E-05   -0.48836E-05  2784   0.605E-02
   9 F= -.14371247E+03 E0= -.14371064E+03  d E =-.229788E-02
       N       E                     dE             d eps       ncg     rms          rms(c)
DAV:   1    -0.143711351004E+03    0.11281E-02   -0.77836E-01  2856   0.367E+00    0.112E-01
DAV:   2    -0.143713021150E+03   -0.16701E-02   -0.18210E-02  2960   0.496E-01    0.630E-02
DAV:   3    -0.143712927818E+03    0.93332E-04   -0.14525E-04  3188   0.586E-02    0.438E-02
DAV:   4    -0.143712853189E+03    0.74629E-04   -0.27194E-04  3168   0.887E-02    0.141E-02
DAV:   5    -0.143712852035E+03    0.11537E-05   -0.89784E-05  2922   0.397E-02    0.138E-02
DAV:   6    -0.143712843815E+03    0.82202E-05   -0.22155E-05  2164   0.244E-02
  10 F= -.14371284E+03 E0= -.14371094E+03  d E =-.266894E-02
       N       E                     dE             d eps       ncg     rms          rms(c)
DAV:   1    -0.143713461987E+03   -0.60995E-03   -0.20616E-01  2796   0.193E+00    0.622E-02
DAV:   2    -0.143713883609E+03   -0.42162E-03   -0.48798E-03  3072   0.273E-01    0.320E-02
DAV:   3    -0.143713862371E+03    0.21238E-04   -0.90942E-05  3134   0.416E-02    0.245E-02
DAV:   4    -0.143713841408E+03    0.20963E-04   -0.73996E-05  3050   0.403E-02    0.114E-02
DAV:   5    -0.143713830420E+03    0.10988E-04   -0.18001E-05  2074   0.321E-02    0.138E-02
DAV:   6    -0.143713820105E+03    0.10315E-04   -0.12845E-05  2004   0.299E-02    0.917E-03
DAV:   7    -0.143713807333E+03    0.12772E-04   -0.32005E-05  2632   0.482E-02    0.671E-03
DAV:   8    -0.143713800087E+03    0.72462E-05   -0.17594E-05  2058   0.331E-02
  11 F= -.14371380E+03 E0= -.14371196E+03  d E =-.956272E-03
       N       E                     dE             d eps       ncg     rms          rms(c)
DAV:   1    -0.143711875589E+03    0.19317E-02   -0.18626E+00  2796   0.582E+00    0.172E-01
DAV:   2    -0.143715894640E+03   -0.40191E-02   -0.43941E-02  3064   0.810E-01    0.103E-01
DAV:   3    -0.143715707450E+03    0.18719E-03   -0.53804E-04  3294   0.107E-01    0.761E-02
DAV:   4    -0.143715587342E+03    0.12011E-03   -0.10834E-03  3262   0.150E-01    0.401E-02
DAV:   5    -0.143715576290E+03    0.11052E-04   -0.15615E-04  3060   0.613E-02    0.426E-02
DAV:   6    -0.143715542370E+03    0.33920E-04   -0.18335E-04  3298   0.735E-02    0.157E-02
DAV:   7    -0.143715541113E+03    0.12566E-05   -0.49113E-05  2638   0.290E-02
  12 F= -.14371554E+03 E0= -.14371384E+03  d E =-.269730E-02
       N       E                     dE             d eps       ncg     rms          rms(c)
DAV:   1    -0.143714822728E+03    0.71964E-03   -0.44652E-01  2796   0.285E+00    0.901E-02
DAV:   2    -0.143715784339E+03   -0.96161E-03   -0.10671E-02  3064   0.400E-01    0.485E-02
DAV:   3    -0.143715737463E+03    0.46876E-04   -0.14577E-04  3214   0.556E-02    0.356E-02
DAV:   4    -0.143715700771E+03    0.36692E-04   -0.25355E-04  3240   0.708E-02    0.210E-02
DAV:   5    -0.143715690647E+03    0.10124E-04   -0.31720E-05  2716   0.343E-02    0.222E-02
DAV:   6    -0.143715672231E+03    0.18415E-04   -0.54783E-05  2786   0.488E-02    0.831E-03
DAV:   7    -0.143715668454E+03    0.37777E-05   -0.24184E-05  2254   0.235E-02
  13 F= -.14371567E+03 E0= -.14371403E+03  d E =-.282464E-02
       N       E                     dE             d eps       ncg     rms          rms(c)
DAV:   1    -0.143716021836E+03   -0.34961E-03   -0.67544E-01  2820   0.347E+00    0.101E-01
DAV:   2    -0.143717390700E+03   -0.13689E-02   -0.15031E-02  3062   0.476E-01    0.587E-02
DAV:   3    -0.143717311396E+03    0.79304E-04   -0.17956E-04  3320   0.693E-02    0.411E-02
DAV:   4    -0.143717246222E+03    0.65174E-04   -0.25624E-04  3270   0.928E-02    0.169E-02
DAV:   5    -0.143717244052E+03    0.21701E-05   -0.92743E-05  2912   0.488E-02    0.196E-02
DAV:   6    -0.143717239886E+03    0.41667E-05   -0.23578E-05  2024   0.222E-02
  14 F= -.14371724E+03 E0= -.14371564E+03  d E =-.157143E-02
       N       E                     dE             d eps       ncg     rms          rms(c)
DAV:   1    -0.143709837590E+03    0.74065E-02   -0.50137E+00  2812   0.950E+00    0.273E-01
DAV:   2    -0.143719855460E+03   -0.10018E-01   -0.10925E-01  3068   0.130E+00    0.160E-01
DAV:   3    -0.143719267718E+03    0.58774E-03   -0.12430E-03  3288   0.187E-01    0.110E-01
DAV:   4    -0.143718795560E+03    0.47216E-03   -0.16592E-03  3362   0.252E-01    0.400E-02
DAV:   5    -0.143718803669E+03   -0.81087E-05   -0.73878E-04  3112   0.129E-01    0.453E-02
DAV:   6    -0.143718785051E+03    0.18618E-04   -0.12947E-04  2842   0.493E-02    0.306E-02
DAV:   7    -0.143718738932E+03    0.46120E-04   -0.14356E-04  3028   0.600E-02    0.203E-02
DAV:   8    -0.143718719836E+03    0.19096E-04   -0.44273E-05  2862   0.520E-02    0.160E-02
DAV:   9    -0.143718711365E+03    0.84706E-05   -0.81129E-05  2750   0.578E-02
  15 F= -.14371871E+03 E0= -.14371717E+03  d E =-.304291E-02
       N       E                     dE             d eps       ncg     rms          rms(c)
DAV:   1    -0.143717035448E+03    0.16844E-02   -0.19242E+00  2812   0.594E+00    0.166E-01
DAV:   2    -0.143720958306E+03   -0.39229E-02   -0.41678E-02  2998   0.804E-01    0.967E-02
DAV:   3    -0.143720764006E+03    0.19430E-03   -0.39007E-04  3278   0.920E-02    0.661E-02
DAV:   4    -0.143720618164E+03    0.14584E-03   -0.64091E-04  3312   0.155E-01    0.194E-02
DAV:   5    -0.143720635841E+03   -0.17677E-04   -0.24556E-04  2960   0.618E-02    0.258E-02
DAV:   6    -0.143720629520E+03    0.63213E-05   -0.13788E-05  1632   0.161E-02
  16 F= -.14372063E+03 E0= -.14371910E+03  d E =-.191815E-02
       N       E                     dE             d eps       ncg     rms          rms(c)
DAV:   1    -0.143709183153E+03    0.11453E-01   -0.71299E+00  2820   0.114E+01    0.320E-01
DAV:   2    -0.143723798016E+03   -0.14615E-01   -0.15551E-01  2996   0.155E+00    0.190E-01
DAV:   3    -0.143723015646E+03    0.78237E-03   -0.14194E-03  3278   0.189E-01    0.130E-01
DAV:   4    -0.143722319259E+03    0.69639E-03   -0.24253E-03  3296   0.341E-01    0.393E-02
DAV:   5    -0.143722378845E+03   -0.59586E-04   -0.13123E-03  3110   0.154E-01    0.549E-02
DAV:   6    -0.143722352742E+03    0.26103E-04   -0.79649E-05  2850   0.360E-02    0.429E-02
DAV:   7    -0.143722284261E+03    0.68481E-04   -0.11890E-04  3078   0.420E-02    0.250E-02
DAV:   8    -0.143722199608E+03    0.84652E-04   -0.12580E-04  3062   0.830E-02    0.297E-02
DAV:   9    -0.143722139513E+03    0.60095E-04   -0.11575E-04  3448   0.947E-02    0.330E-02
DAV:  10    -0.143722083454E+03    0.56059E-04   -0.32412E-04  3544   0.141E-01    0.367E-02
DAV:  11    -0.143722028285E+03    0.55169E-04   -0.19827E-04  3382   0.953E-02    0.257E-02
DAV:  12    -0.143721979399E+03    0.48887E-04   -0.66605E-05  3138   0.966E-02    0.255E-02
DAV:  13    -0.143721875175E+03    0.10422E-03   -0.92866E-05  3306   0.155E-01    0.148E-02
DAV:  14    -0.143721808568E+03    0.66607E-04   -0.38281E-04  3802   0.311E-01    0.352E-02
DAV:  15    -0.143721813652E+03   -0.50838E-05   -0.45394E-04  3042   0.101E-01    0.180E-02
DAV:  16    -0.143721816647E+03   -0.29944E-05   -0.73983E-05  2772   0.330E-02
  17 F= -.14372182E+03 E0= -.14372029E+03  d E =-.310528E-02
       N       E                     dE             d eps       ncg     rms          rms(c)
DAV:   1    -0.143721360107E+03    0.45355E-03   -0.12418E+00  2776   0.478E+00    0.142E-01
DAV:   2    -0.143723913013E+03   -0.25529E-02   -0.28028E-02  3108   0.666E-01    0.761E-02
DAV:   3    -0.143723824900E+03    0.88113E-04   -0.47348E-04  3258   0.915E-02    0.562E-02
DAV:   4    -0.143723754099E+03    0.70802E-04   -0.27952E-04  3214   0.733E-02    0.253E-02
DAV:   5    -0.143723735409E+03    0.18690E-04   -0.77733E-05  3108   0.509E-02    0.232E-02
DAV:   6    -0.143723717038E+03    0.18371E-04   -0.57281E-05  2972   0.566E-02    0.122E-02
DAV:   7    -0.143723714479E+03    0.25583E-05   -0.44931E-05  2498   0.301E-02
  18 F= -.14372371E+03 E0= -.14372219E+03  d E =-.189783E-02
       N       E                     dE             d eps       ncg     rms          rms(c)
DAV:   1    -0.143719417937E+03    0.42991E-02   -0.27239E+00  2772   0.709E+00    0.212E-01
DAV:   2    -0.143725023875E+03   -0.56059E-02   -0.61889E-02  3130   0.992E-01    0.116E-01
DAV:   3    -0.143724800547E+03    0.22333E-03   -0.10746E-03  3288   0.139E-01    0.856E-02
DAV:   4    -0.143724610624E+03    0.18992E-03   -0.68099E-04  3266   0.113E-01    0.387E-02
DAV:   5    -0.143724542766E+03    0.67858E-04   -0.18236E-04  3212   0.876E-02    0.381E-02
DAV:   6    -0.143724474638E+03    0.68128E-04   -0.17588E-04  3884   0.107E-01    0.185E-02
DAV:   7    -0.143724461314E+03    0.13325E-04   -0.12310E-04  2914   0.535E-02    0.161E-02
DAV:   8    -0.143724406555E+03    0.54758E-04   -0.28292E-05  2542   0.559E-02    0.907E-03
DAV:   9    -0.143724341245E+03    0.65310E-04   -0.74408E-05  2982   0.974E-02    0.247E-02
DAV:  10    -0.143724270329E+03    0.70916E-04   -0.62537E-05  3118   0.134E-01    0.200E-02
DAV:  11    -0.143724226017E+03    0.44312E-04   -0.21168E-04  3910   0.167E-01    0.124E-02
DAV:  12    -0.143724207798E+03    0.18219E-04   -0.89752E-05  2960   0.995E-02    0.459E-03
DAV:  13    -0.143724200004E+03    0.77938E-05   -0.32620E-05  2622   0.114E-01
  19 F= -.14372420E+03 E0= -.14372266E+03  d E =-.238336E-02
       N       E                     dE             d eps       ncg     rms          rms(c)
DAV:   1    -0.143723619486E+03    0.58831E-03   -0.37888E-01  2780   0.266E+00    0.806E-02
DAV:   2    -0.143724374894E+03   -0.75541E-03   -0.84768E-03  3108   0.372E-01    0.419E-02
DAV:   3    -0.143724351077E+03    0.23818E-04   -0.18587E-04  3208   0.570E-02    0.320E-02
DAV:   4    -0.143724331541E+03    0.19536E-04   -0.67651E-05  3028   0.372E-02    0.156E-02
DAV:   5    -0.143724322966E+03    0.85752E-05   -0.33931E-05  2830   0.308E-02    0.118E-02
DAV:   6    -0.143724318626E+03    0.43396E-05   -0.10628E-05  1736   0.256E-02
  20 F= -.14372432E+03 E0= -.14372278E+03  d E =-.250198E-02
       N       E                     dE             d eps       ncg     rms          rms(c)
DAV:   1    -0.143724549340E+03   -0.22637E-03   -0.66543E-01  2812   0.349E+00    0.983E-02
DAV:   2    -0.143725900095E+03   -0.13508E-02   -0.14722E-02  3088   0.480E-01    0.596E-02
DAV:   3    -0.143725829823E+03    0.70273E-04   -0.17499E-04  3244   0.593E-02    0.431E-02
DAV:   4    -0.143725770632E+03    0.59190E-04   -0.22617E-04  3100   0.812E-02    0.165E-02
DAV:   5    -0.143725766963E+03    0.36696E-05   -0.74881E-05  2844   0.413E-02    0.167E-02
DAV:   6    -0.143725760020E+03    0.69429E-05   -0.27668E-05  2304   0.257E-02
  21 F= -.14372576E+03 E0= -.14372421E+03  d E =-.144139E-02
       N       E                     dE             d eps       ncg     rms          rms(c)
DAV:   1    -0.143719968469E+03    0.57985E-02   -0.38990E+00  2812   0.844E+00    0.245E-01
DAV:   2    -0.143728034175E+03   -0.80657E-02   -0.87752E-02  3096   0.117E+00    0.145E-01
DAV:   3    -0.143727625713E+03    0.40846E-03   -0.10477E-03  3316   0.145E-01    0.104E-01
DAV:   4    -0.143727315096E+03    0.31062E-03   -0.14865E-03  3200   0.196E-01    0.411E-02
DAV:   5    -0.143727306508E+03    0.85877E-05   -0.38520E-04  3104   0.905E-02    0.409E-02
DAV:   6    -0.143727274431E+03    0.32077E-04   -0.17393E-04  2968   0.631E-02    0.159E-02
DAV:   7    -0.143727258546E+03    0.15885E-04   -0.64377E-05  3062   0.462E-02    0.126E-02
DAV:   8    -0.143727246229E+03    0.12317E-04   -0.15959E-05  1908   0.316E-02    0.139E-02
DAV:   9    -0.143727225214E+03    0.21015E-04   -0.17243E-05  2114   0.449E-02    0.678E-03
DAV:  10    -0.143727206434E+03    0.18780E-04   -0.17604E-05  2072   0.511E-02    0.592E-03
DAV:  11    -0.143727175719E+03    0.30715E-04   -0.34633E-05  2436   0.103E-01    0.394E-03
DAV:  12    -0.143727168952E+03    0.67672E-05   -0.54202E-05  2972   0.644E-02
  22 F= -.14372717E+03 E0= -.14372558E+03  d E =-.285033E-02
       N       E                     dE             d eps       ncg     rms          rms(c)
DAV:   1    -0.143726199665E+03    0.97605E-03   -0.12919E+00  2852   0.476E+00    0.134E-01
DAV:   2    -0.143728641259E+03   -0.24416E-02   -0.27059E-02  3114   0.639E-01    0.856E-02
DAV:   3    -0.143728440130E+03    0.20113E-03   -0.29739E-04  3266   0.107E-01    0.603E-02
DAV:   4    -0.143728209370E+03    0.23076E-03   -0.63809E-04  3810   0.200E-01    0.213E-02
DAV:   5    -0.143728215574E+03   -0.62037E-05   -0.43405E-04  3082   0.934E-02    0.308E-02
DAV:   6    -0.143728225565E+03   -0.99911E-05   -0.40975E-05  2426   0.231E-02
  23 F= -.14372823E+03 E0= -.14372661E+03  d E =-.105661E-02
       N       E                     dE             d eps       ncg     rms          rms(c)
DAV:   1    -0.143727831424E+03    0.38415E-03   -0.24464E-01  2846   0.207E+00    0.692E-02
DAV:   2    -0.143728260265E+03   -0.42884E-03   -0.54946E-03  3122   0.289E-01    0.384E-02
DAV:   3    -0.143728193711E+03    0.66555E-04   -0.60181E-05  2988   0.639E-02    0.281E-02
DAV:   4    -0.143728090901E+03    0.10281E-03   -0.26581E-04  4000   0.152E-01    0.147E-02
DAV:   5    -0.143728091327E+03   -0.42606E-06   -0.18725E-04  3064   0.600E-02    0.229E-02
DAV:   6    -0.143728093832E+03   -0.25046E-05   -0.15247E-05  1816   0.142E-02
  24 F= -.14372809E+03 E0= -.14372646E+03  d E =-.924880E-03
       N       E                     dE             d eps       ncg     rms          rms(c)
DAV:   1    -0.143728038823E+03    0.52504E-04   -0.67068E-02  2844   0.108E+00    0.353E-02
DAV:   2    -0.143728149132E+03   -0.11031E-03   -0.13461E-03  3106   0.144E-01    0.210E-02
DAV:   3    -0.143728137846E+03    0.11286E-04   -0.19459E-05  2066   0.205E-02    0.124E-02
DAV:   4    -0.143728130970E+03    0.68766E-05   -0.16799E-05  1958   0.212E-02    0.333E-03
DAV:   5    -0.143728130912E+03    0.57513E-07   -0.69256E-06  1508   0.119E-02    0.288E-03
DAV:   6    -0.143728130523E+03    0.38885E-06   -0.12951E-06  1534   0.684E-03
  25 F= -.14372813E+03 E0= -.14372650E+03  d E =-.961571E-03
       N       E                     dE             d eps       ncg     rms          rms(c)
DAV:   1    -0.143728129867E+03    0.10454E-05   -0.52207E-03  2884   0.302E-01    0.903E-03
DAV:   2    -0.143728140186E+03   -0.10319E-04   -0.11158E-04  2814   0.408E-02    0.527E-03
DAV:   3    -0.143728139465E+03    0.72100E-06   -0.94815E-07  1518   0.662E-03    0.366E-03
DAV:   4    -0.143728138780E+03    0.68531E-06   -0.31811E-06  1712   0.143E-02    0.111E-03
DAV:   5    -0.143728138943E+03   -0.16308E-06   -0.22073E-06  1438   0.567E-03    0.201E-03
DAV:   6    -0.143728138982E+03   -0.39252E-07   -0.22496E-07  1428   0.175E-03
  26 F= -.14372814E+03 E0= -.14372651E+03  d E =-.970030E-03
       N       E                     dE             d eps       ncg     rms          rms(c)
DAV:   1    -0.143728378692E+03   -0.23975E-03   -0.13990E-01  2932   0.157E+00    0.467E-02
DAV:   2    -0.143728586959E+03   -0.20827E-03   -0.29385E-03  3104   0.223E-01    0.307E-02
DAV:   3    -0.143728564451E+03    0.22507E-04   -0.86828E-05  3094   0.421E-02    0.241E-02
DAV:   4    -0.143728545900E+03    0.18551E-04   -0.44034E-05  2872   0.290E-02    0.118E-02
DAV:   5    -0.143728533623E+03    0.12277E-04   -0.21296E-05  2450   0.339E-02    0.987E-03
DAV:   6    -0.143728525551E+03    0.80719E-05   -0.12601E-05  2004   0.390E-02
  27 F= -.14372853E+03 E0= -.14372687E+03  d E =-.386569E-03
       N       E                     dE             d eps       ncg     rms          rms(c)
DAV:   1    -0.143728516627E+03    0.16996E-04   -0.18494E-02  2980   0.574E-01    0.200E-02
DAV:   2    -0.143728547656E+03   -0.31029E-04   -0.47039E-04  3138   0.904E-02    0.132E-02
DAV:   3    -0.143728541165E+03    0.64903E-05   -0.13540E-05  1896   0.195E-02    0.102E-02
DAV:   4    -0.143728528978E+03    0.12188E-04   -0.26072E-05  2574   0.307E-02    0.671E-03
DAV:   5    -0.143728524740E+03    0.42372E-05   -0.60356E-06  1748   0.208E-02    0.810E-03
DAV:   6    -0.143728519848E+03    0.48927E-05   -0.51946E-06  1732   0.226E-02
  28 F= -.14372852E+03 E0= -.14372685E+03  d E =-.380866E-03
       N       E                     dE             d eps       ncg     rms          rms(c)
DAV:   1    -0.143728801841E+03   -0.27710E-03   -0.20476E-02  2828   0.606E-01    0.239E-02
DAV:   2    -0.143728845610E+03   -0.43770E-04   -0.68637E-04  3092   0.104E-01    0.164E-02
DAV:   3    -0.143728839481E+03    0.61290E-05   -0.24801E-05  2046   0.216E-02    0.115E-02
DAV:   4    -0.143728835966E+03    0.35156E-05   -0.12737E-05  1798   0.161E-02    0.496E-03
DAV:   5    -0.143728834050E+03    0.19156E-05   -0.46032E-06  1712   0.145E-02    0.342E-03
DAV:   6    -0.143728832685E+03    0.13648E-05   -0.18632E-06  1748   0.166E-02
  29 F= -.14372883E+03 E0= -.14372713E+03  d E =-.312838E-03
       N       E                     dE             d eps       ncg     rms          rms(c)
DAV:   1    -0.143729261246E+03   -0.42720E-03   -0.18399E-01  2940   0.180E+00    0.627E-02
DAV:   2    -0.143729559433E+03   -0.29819E-03   -0.48974E-03  3080   0.268E-01    0.378E-02
DAV:   3    -0.143729517651E+03    0.41781E-04   -0.18559E-04  3214   0.570E-02    0.269E-02
DAV:   4    -0.143729495649E+03    0.22003E-04   -0.55729E-05  3116   0.402E-02    0.153E-02
DAV:   5    -0.143729474665E+03    0.20983E-04   -0.21490E-05  2270   0.405E-02    0.628E-03
DAV:   6    -0.143729463146E+03    0.11520E-04   -0.25406E-05  2422   0.390E-02    0.359E-03
DAV:   7    -0.143729459130E+03    0.40160E-05   -0.15717E-05  1912   0.218E-02
  30 F= -.14372946E+03 E0= -.14372765E+03  d E =-.939282E-03
       N       E                     dE             d eps       ncg     rms          rms(c)
DAV:   1    -0.143728319222E+03    0.11439E-02   -0.73598E-01  2940   0.360E+00    0.125E-01
DAV:   2    -0.143729471966E+03   -0.11527E-02   -0.19820E-02  3080   0.531E-01    0.756E-02
DAV:   3    -0.143729277901E+03    0.19406E-03   -0.85948E-04  3198   0.117E-01    0.529E-02
DAV:   4    -0.143729185983E+03    0.91919E-04   -0.21168E-04  3216   0.778E-02    0.327E-02
DAV:   5    -0.143729071393E+03    0.11459E-03   -0.92654E-05  3154   0.841E-02    0.136E-02
DAV:   6    -0.143728992681E+03    0.78713E-04   -0.10815E-04  3084   0.850E-02    0.765E-03
DAV:   7    -0.143728950469E+03    0.42212E-04   -0.67684E-05  2968   0.590E-02    0.876E-03
DAV:   8    -0.143728909524E+03    0.40946E-04   -0.17432E-05  2150   0.521E-02    0.614E-03
DAV:   9    -0.143728849084E+03    0.60439E-04   -0.66474E-05  2996   0.110E-01    0.914E-03
DAV:  10    -0.143728822161E+03    0.26924E-04   -0.90448E-05  3442   0.980E-02    0.707E-03
DAV:  11    -0.143728813879E+03    0.82817E-05   -0.64330E-05  2818   0.657E-02
  31 F= -.14372881E+03 E0= -.14372678E+03  d E =-.294031E-03
       N       E                     dE             d eps       ncg     rms          rms(c)
DAV:   1    -0.143729149043E+03   -0.32688E-03   -0.37166E-01  2948   0.255E+00    0.904E-02
DAV:   2    -0.143729757003E+03   -0.60796E-03   -0.10167E-02  3076   0.385E-01    0.551E-02
DAV:   3    -0.143729668961E+03    0.88042E-04   -0.39355E-04  3208   0.820E-02    0.392E-02
DAV:   4    -0.143729621301E+03    0.47660E-04   -0.11398E-04  3186   0.560E-02    0.223E-02
DAV:   5    -0.143729573641E+03    0.47660E-04   -0.48917E-05  2882   0.603E-02    0.939E-03
DAV:   6    -0.143729546558E+03    0.27083E-04   -0.57985E-05  3082   0.618E-02    0.536E-03
DAV:   7    -0.143729540124E+03    0.64341E-05   -0.36638E-05  2690   0.307E-02
  32 F= -.14372954E+03 E0= -.14372768E+03  d E =-.102028E-02
       N       E                     dE             d eps       ncg     rms          rms(c)
DAV:   1    -0.143729600225E+03   -0.53667E-04   -0.51492E-04  2666   0.923E-02    0.647E-03
DAV:   2    -0.143729596772E+03    0.34528E-05   -0.17163E-05  2086   0.207E-02    0.353E-03
DAV:   3    -0.143729594066E+03    0.27066E-05   -0.33586E-06  1604   0.114E-02    0.315E-03
DAV:   4    -0.143729589041E+03    0.50250E-05   -0.24469E-06  1822   0.155E-02    0.205E-03
DAV:   5    -0.143729581554E+03    0.74863E-05   -0.81392E-06  1998   0.307E-02    0.395E-03
DAV:   6    -0.143729580904E+03    0.64990E-06   -0.80974E-06  1700   0.136E-02
  33 F= -.14372958E+03 E0= -.14372771E+03  d E =-.407809E-04
       N       E                     dE             d eps       ncg     rms          rms(c)
DAV:   1    -0.143729759601E+03   -0.17805E-03   -0.45997E-03  2832   0.277E-01    0.116E-02
DAV:   2    -0.143729769390E+03   -0.97893E-05   -0.17167E-04  3038   0.473E-02    0.866E-03
DAV:   3    -0.143729767877E+03    0.15133E-05   -0.67144E-06  1824   0.106E-02    0.579E-03
DAV:   4    -0.143729767321E+03    0.55569E-06   -0.54440E-06  1552   0.107E-02    0.238E-03
DAV:   5    -0.143729767099E+03    0.22292E-06   -0.11232E-06  1524   0.575E-03    0.206E-03
DAV:   6    -0.143729766627E+03    0.47161E-06   -0.42449E-07  1612   0.828E-03
  34 F= -.14372977E+03 E0= -.14372787E+03  d E =-.226503E-03
       N       E                     dE             d eps       ncg     rms          rms(c)
DAV:   1    -0.143730102461E+03   -0.33536E-03   -0.18293E-02  2808   0.546E-01    0.225E-02
DAV:   2    -0.143730130761E+03   -0.28300E-04   -0.57594E-04  2972   0.838E-02    0.129E-02
DAV:   3    -0.143730127808E+03    0.29528E-05   -0.29481E-05  2302   0.168E-02    0.902E-03
DAV:   4    -0.143730127124E+03    0.68413E-06   -0.60051E-06  1512   0.116E-02    0.511E-03
DAV:   5    -0.143730126928E+03    0.19613E-06   -0.26465E-06  1482   0.769E-03    0.255E-03
DAV:   6    -0.143730126750E+03    0.17799E-06   -0.64848E-07  1470   0.719E-03
  35 F= -.14373013E+03 E0= -.14372817E+03  d E =-.586626E-03
       N       E                     dE             d eps       ncg     rms          rms(c)
DAV:   1    -0.143730661686E+03   -0.53476E-03   -0.73225E-02  2806   0.109E+00    0.451E-02
DAV:   2    -0.143730772392E+03   -0.11071E-03   -0.23232E-03  2986   0.168E-01    0.256E-02
DAV:   3    -0.143730760153E+03    0.12238E-04   -0.12947E-04  2756   0.347E-02    0.181E-02
DAV:   4    -0.143730757459E+03    0.26942E-05   -0.21093E-05  2036   0.223E-02    0.113E-02
DAV:   5    -0.143730756433E+03    0.10262E-05   -0.89121E-06  1804   0.179E-02    0.471E-03
DAV:   6    -0.143730756054E+03    0.37915E-06   -0.31420E-06  1630   0.148E-02
  36 F= -.14373076E+03 E0= -.14372870E+03  d E =-.121593E-02
       N       E                     dE             d eps       ncg     rms          rms(c)
DAV:   1    -0.143731306380E+03   -0.54995E-03   -0.29311E-01  2804   0.219E+00    0.908E-02
DAV:   2    -0.143731744168E+03   -0.43779E-03   -0.95135E-03  2978   0.337E-01    0.514E-02
DAV:   3    -0.143731687383E+03    0.56785E-04   -0.58584E-04  3168   0.717E-02    0.365E-02
DAV:   4    -0.143731676693E+03    0.10690E-04   -0.89370E-05  3078   0.440E-02    0.235E-02
DAV:   5    -0.143731670882E+03    0.58108E-05   -0.20576E-05  2026   0.320E-02    0.101E-02
DAV:   6    -0.143731668332E+03    0.25498E-05   -0.12852E-05  1982   0.331E-02
  37 F= -.14373167E+03 E0= -.14372939E+03  d E =-.212821E-02
       N       E                     dE             d eps       ncg     rms          rms(c)
DAV:   1    -0.143730629156E+03    0.10417E-02   -0.11737E+00  2804   0.437E+00    0.183E-01
DAV:   2    -0.143732351813E+03   -0.17227E-02   -0.39446E-02  2970   0.678E-01    0.104E-01
DAV:   3    -0.143732072202E+03    0.27961E-03   -0.27620E-03  3170   0.148E-01    0.734E-02
DAV:   4    -0.143732027962E+03    0.44241E-04   -0.35534E-04  3196   0.865E-02    0.484E-02
DAV:   5    -0.143732002537E+03    0.25425E-04   -0.89091E-05  3214   0.662E-02    0.211E-02
DAV:   6    -0.143731990887E+03    0.11649E-04   -0.50313E-05  3114   0.669E-02    0.667E-03
DAV:   7    -0.143731989085E+03    0.18018E-05   -0.45341E-05  2810   0.374E-02
  38 F= -.14373199E+03 E0= -.14372934E+03  d E =-.244896E-02
       N       E                     dE             d eps       ncg     rms          rms(c)
DAV:   1    -0.143733501065E+03   -0.15102E-02   -0.79502E-02  2790   0.951E-01    0.578E-02
DAV:   2    -0.143733563415E+03   -0.62349E-04   -0.31179E-03  3048   0.180E-01    0.334E-02
DAV:   3    -0.143733534323E+03    0.29091E-04   -0.29704E-04  3142   0.504E-02    0.252E-02
DAV:   4    -0.143733523972E+03    0.10351E-04   -0.33879E-05  2380   0.222E-02    0.172E-02
DAV:   5    -0.143733509804E+03    0.14168E-04   -0.23493E-05  2164   0.280E-02    0.734E-03
DAV:   6    -0.143733502943E+03    0.68609E-05   -0.13540E-05  2108   0.276E-02
  39 F= -.14373350E+03 E0= -.14373077E+03  d E =-.151386E-02
       N       E                     dE             d eps       ncg     rms          rms(c)
DAV:   1    -0.143735023937E+03   -0.15141E-02   -0.53612E-01  2820   0.247E+00    0.150E-01
DAV:   2    -0.143735425353E+03   -0.40142E-03   -0.21291E-02  3072   0.478E-01    0.863E-02
DAV:   3    -0.143735204672E+03    0.22068E-03   -0.20629E-03  3184   0.140E-01    0.667E-02
DAV:   4    -0.143735111561E+03    0.93111E-04   -0.24188E-04  3220   0.640E-02    0.455E-02
DAV:   5    -0.143734958001E+03    0.15356E-03   -0.13528E-04  3344   0.922E-02    0.212E-02
DAV:   6    -0.143734840863E+03    0.11714E-03   -0.11402E-04  3540   0.108E-01    0.120E-02
DAV:   7    -0.143734768241E+03    0.72622E-04   -0.88659E-05  3150   0.840E-02    0.853E-03
DAV:   8    -0.143734642784E+03    0.12546E-03   -0.52916E-05  2750   0.135E-01    0.884E-03
DAV:   9    -0.143734499453E+03    0.14333E-03   -0.14410E-04  3704   0.208E-01    0.133E-02
DAV:  10    -0.143734450763E+03    0.48691E-04   -0.15795E-04  3480   0.134E-01    0.853E-03
DAV:  11    -0.143734418852E+03    0.31911E-04   -0.95176E-05  3460   0.134E-01    0.818E-03
DAV:  12    -0.143734395604E+03    0.23248E-04   -0.46404E-05  2816   0.149E-01    0.457E-03
DAV:  13    -0.143734405809E+03   -0.10204E-04   -0.14511E-04  2830   0.711E-02    0.567E-03
DAV:  14    -0.143734410130E+03   -0.43213E-05   -0.47173E-05  2568   0.227E-02
  40 F= -.14373441E+03 E0= -.14373154E+03  d E =-.242104E-02
       N       E                     dE             d eps       ncg     rms          rms(c)
DAV:   1    -0.143734648603E+03   -0.24279E-03   -0.46399E-02  2834   0.727E-01    0.451E-02
DAV:   2    -0.143734670919E+03   -0.22316E-04   -0.18040E-03  3072   0.141E-01    0.256E-02
DAV:   3    -0.143734651646E+03    0.19273E-04   -0.19190E-04  3152   0.423E-02    0.195E-02
DAV:   4    -0.143734642780E+03    0.88659E-05   -0.21721E-05  2218   0.181E-02    0.130E-02
DAV:   5    -0.143734629420E+03    0.13361E-04   -0.16753E-05  2016   0.264E-02    0.634E-03
DAV:   6    -0.143734621777E+03    0.76429E-05   -0.90702E-06  1936   0.275E-02
  41 F= -.14373462E+03 E0= -.14373177E+03  d E =-.263269E-02
       N       E                     dE             d eps       ncg     rms          rms(c)
DAV:   1    -0.143736227791E+03   -0.15984E-02   -0.16397E-01  2896   0.166E+00    0.688E-02
DAV:   2    -0.143736526075E+03   -0.29828E-03   -0.51601E-03  2964   0.254E-01    0.407E-02
DAV:   3    -0.143736485264E+03    0.40811E-04   -0.29160E-04  2992   0.497E-02    0.275E-02
DAV:   4    -0.143736475138E+03    0.10126E-04   -0.48270E-05  2728   0.294E-02    0.176E-02
DAV:   5    -0.143736466028E+03    0.91099E-05   -0.14850E-05  1984   0.298E-02    0.712E-03
DAV:   6    -0.143736459596E+03    0.64321E-05   -0.11695E-05  1918   0.317E-02
  42 F= -.14373646E+03 E0= -.14373358E+03  d E =-.183782E-02
       N       E                     dE             d eps       ncg     rms          rms(c)
DAV:   1    -0.143738239369E+03   -0.17733E-02   -0.14775E+00  2892   0.499E+00    0.207E-01
DAV:   2    -0.143741002327E+03   -0.27630E-02   -0.46185E-02  2906   0.759E-01    0.122E-01
DAV:   3    -0.143740659402E+03    0.34293E-03   -0.23880E-03  3176   0.149E-01    0.830E-02
DAV:   4    -0.143740589021E+03    0.70381E-04   -0.48931E-04  3184   0.937E-02    0.514E-02
DAV:   5    -0.143740550320E+03    0.38701E-04   -0.13453E-04  3228   0.666E-02    0.223E-02
DAV:   6    -0.143740537175E+03    0.13145E-04   -0.71890E-05  3186   0.599E-02    0.656E-03
DAV:   7    -0.143740533216E+03    0.39587E-05   -0.36125E-05  2560   0.283E-02
  43 F= -.14374053E+03 E0= -.14373763E+03  d E =-.591144E-02
       N       E                     dE             d eps       ncg     rms          rms(c)
DAV:   1    -0.143732001837E+03    0.85353E-02   -0.58967E+00  2916   0.997E+00    0.415E-01
DAV:   2    -0.143743140489E+03   -0.11139E-01   -0.18046E-01  2936   0.151E+00    0.243E-01
DAV:   3    -0.143741941842E+03    0.11986E-02   -0.78373E-03  3200   0.289E-01    0.164E-01
DAV:   4    -0.143741668060E+03    0.27378E-03   -0.20502E-03  3168   0.196E-01    0.967E-02
DAV:   5    -0.143741537541E+03    0.13052E-03   -0.54842E-04  3260   0.126E-01    0.438E-02
DAV:   6    -0.143741494655E+03    0.42886E-04   -0.28473E-04  3342   0.111E-01    0.142E-02
DAV:   7    -0.143741480662E+03    0.13993E-04   -0.11418E-04  3064   0.490E-02    0.158E-02
DAV:   8    -0.143741466701E+03    0.13961E-04   -0.13143E-05  1920   0.178E-02    0.988E-03
DAV:   9    -0.143741415622E+03    0.51079E-04   -0.29621E-05  2472   0.618E-02    0.933E-03
DAV:  10    -0.143741398585E+03    0.17037E-04   -0.13277E-05  2092   0.337E-02    0.103E-02
DAV:  11    -0.143741332517E+03    0.66067E-04   -0.12543E-04  4160   0.165E-01    0.146E-02
DAV:  12    -0.143741314554E+03    0.17963E-04   -0.10613E-04  3378   0.971E-02    0.199E-02
DAV:  13    -0.143741309239E+03    0.53158E-05   -0.51412E-05  2554   0.293E-02
  44 F= -.14374131E+03 E0= -.14373834E+03  d E =-.668746E-02
       N       E                     dE             d eps       ncg     rms          rms(c)
DAV:   1    -0.143740479937E+03    0.83462E-03   -0.10544E+00  2908   0.420E+00    0.175E-01
DAV:   2    -0.143742449642E+03   -0.19697E-02   -0.31578E-02  2940   0.632E-01    0.989E-02
DAV:   3    -0.143742265491E+03    0.18415E-03   -0.15147E-03  3214   0.123E-01    0.667E-02
DAV:   4    -0.143742221494E+03    0.43996E-04   -0.32435E-04  3198   0.772E-02    0.412E-02
DAV:   5    -0.143742203767E+03    0.17727E-04   -0.10573E-04  3220   0.551E-02    0.181E-02
DAV:   6    -0.143742204224E+03   -0.45665E-06   -0.49203E-05  2982   0.350E-02
  45 F= -.14374220E+03 E0= -.14373931E+03  d E =-.758245E-02
       N       E                     dE             d eps       ncg     rms          rms(c)
DAV:   1    -0.143744172215E+03   -0.19684E-02   -0.50650E-01  2884   0.292E+00    0.119E-01
DAV:   2    -0.143744980968E+03   -0.80875E-03   -0.13683E-02  3096   0.467E-01    0.751E-02
DAV:   3    -0.143744846348E+03    0.13462E-03   -0.63144E-04  3254   0.121E-01    0.562E-02
DAV:   4    -0.143744748233E+03    0.98116E-04   -0.21564E-04  3256   0.782E-02    0.323E-02
DAV:   5    -0.143744656856E+03    0.91377E-04   -0.11191E-04  3228   0.822E-02    0.175E-02
DAV:   6    -0.143744609346E+03    0.47510E-04   -0.11000E-04  3386   0.849E-02    0.992E-03
DAV:   7    -0.143744589794E+03    0.19552E-04   -0.74082E-05  3012   0.531E-02    0.982E-03
DAV:   8    -0.143744569467E+03    0.20328E-04   -0.11458E-05  1980   0.304E-02    0.503E-03
DAV:   9    -0.143744543978E+03    0.25489E-04   -0.36421E-05  2608   0.576E-02    0.105E-02
DAV:  10    -0.143744531891E+03    0.12087E-04   -0.31377E-05  2606   0.518E-02    0.825E-03
DAV:  11    -0.143744530051E+03    0.18399E-05   -0.33311E-05  2512   0.285E-02
  46 F= -.14374453E+03 E0= -.14374159E+03  d E =-.232583E-02
       N       E                     dE             d eps       ncg     rms          rms(c)
DAV:   1    -0.143744640208E+03   -0.10832E-03   -0.16465E-01  2898   0.167E+00    0.675E-02
DAV:   2    -0.143744905737E+03   -0.26553E-03   -0.44105E-03  3096   0.264E-01    0.429E-02
DAV:   3    -0.143744862120E+03    0.43616E-04   -0.17948E-04  3256   0.674E-02    0.321E-02
DAV:   4    -0.143744827396E+03    0.34724E-04   -0.76459E-05  3136   0.501E-02    0.175E-02
DAV:   5    -0.143744798176E+03    0.29220E-04   -0.35941E-05  2582   0.487E-02    0.100E-02
DAV:   6    -0.143744780676E+03    0.17500E-04   -0.33343E-05  2526   0.492E-02    0.572E-03
DAV:   7    -0.143744771854E+03    0.88222E-05   -0.27562E-05  2354   0.328E-02
  47 F= -.14374477E+03 E0= -.14374178E+03  d E =-.256763E-02
       N       E                     dE             d eps       ncg     rms          rms(c)
DAV:   1    -0.143747005817E+03   -0.22251E-02   -0.21162E-01  2812   0.171E+00    0.793E-02
DAV:   2    -0.143747358727E+03   -0.35291E-03   -0.52176E-03  3054   0.251E-01    0.421E-02
DAV:   3    -0.143747335661E+03    0.23066E-04   -0.14612E-04  2940   0.491E-02    0.293E-02
DAV:   4    -0.143747309533E+03    0.26128E-04   -0.73736E-05  3070   0.548E-02    0.129E-02
DAV:   5    -0.143747295510E+03    0.14024E-04   -0.38362E-05  2492   0.353E-02    0.906E-03
DAV:   6    -0.143747282135E+03    0.13374E-04   -0.12202E-05  2016   0.260E-02    0.452E-03
DAV:   7    -0.143747266077E+03    0.16058E-04   -0.74967E-06  1876   0.327E-02    0.440E-03
DAV:   8    -0.143747251314E+03    0.14764E-04   -0.68679E-06  1886   0.424E-02    0.296E-03
DAV:   9    -0.143747216899E+03    0.34415E-04   -0.26100E-05  2422   0.110E-01    0.423E-03
DAV:  10    -0.143747202156E+03    0.14743E-04   -0.56844E-05  2982   0.834E-02    0.468E-03
DAV:  11    -0.143747198015E+03    0.41413E-05   -0.33890E-05  2568   0.697E-02
  48 F= -.14374720E+03 E0= -.14374411E+03  d E =-.242616E-02
       N       E                     dE             d eps       ncg     rms          rms(c)
DAV:   1    -0.143750792510E+03   -0.35904E-02   -0.18950E+00  2812   0.513E+00    0.240E-01
DAV:   2    -0.143754002573E+03   -0.32101E-02   -0.46093E-02  3070   0.752E-01    0.127E-01
DAV:   3    -0.143753876502E+03    0.12607E-03   -0.12044E-03  3194   0.136E-01    0.883E-02
DAV:   4    -0.143753772599E+03    0.10390E-03   -0.61856E-04  3214   0.142E-01    0.363E-02
DAV:   5    -0.143753748804E+03    0.23795E-04   -0.17888E-04  3302   0.680E-02    0.228E-02
DAV:   6    -0.143753711627E+03    0.37177E-04   -0.72617E-05  3108   0.471E-02    0.992E-03
DAV:   7    -0.143753687905E+03    0.23722E-04   -0.14547E-05  2118   0.377E-02    0.772E-03
DAV:   8    -0.143753654460E+03    0.33446E-04   -0.14868E-05  2112   0.581E-02    0.479E-03
DAV:   9    -0.143753619468E+03    0.34991E-04   -0.20651E-05  2254   0.675E-02    0.638E-03
DAV:  10    -0.143753592966E+03    0.26503E-04   -0.23552E-05  2362   0.631E-02    0.469E-03
DAV:  11    -0.143753529368E+03    0.63598E-04   -0.10550E-04  3514   0.200E-01    0.121E-02
DAV:  12    -0.143753522781E+03    0.65865E-05   -0.10371E-04  3078   0.825E-02    0.142E-02
DAV:  13    -0.143753520597E+03    0.21849E-05   -0.87234E-05  2754   0.641E-02
  49 F= -.14375352E+03 E0= -.14375003E+03  d E =-.874874E-02
       N       E                     dE             d eps       ncg     rms          rms(c)
DAV:   1    -0.143748972166E+03    0.45506E-02   -0.74856E+00  2828   0.102E+01    0.494E-01
DAV:   2    -0.143761894654E+03   -0.12922E-01   -0.18461E-01  3090   0.152E+00    0.262E-01
DAV:   3    -0.143761317013E+03    0.57764E-03   -0.56680E-03  3114   0.283E-01    0.182E-01
DAV:   4    -0.143760960857E+03    0.35616E-03   -0.20893E-03  3256   0.233E-01    0.938E-02
DAV:   5    -0.143760767630E+03    0.19323E-03   -0.94907E-04  3294   0.150E-01    0.424E-02
DAV:   6    -0.143760648898E+03    0.11873E-03   -0.30016E-04  3202   0.831E-02    0.247E-02
DAV:   7    -0.143760528577E+03    0.12032E-03   -0.63823E-05  3018   0.816E-02    0.133E-02
DAV:   8    -0.143760388561E+03    0.14002E-03   -0.46617E-05  2756   0.104E-01    0.960E-03
DAV:   9    -0.143760180185E+03    0.20838E-03   -0.10616E-04  3488   0.189E-01    0.883E-03
DAV:  10    -0.143759971239E+03    0.20895E-03   -0.24163E-04  4176   0.252E-01    0.962E-03
DAV:  11    -0.143759813380E+03    0.15786E-03   -0.38739E-04  3994   0.353E-01    0.519E-03
DAV:  12    -0.143759848000E+03   -0.34620E-04   -0.60535E-04  3168   0.156E-01    0.120E-02
DAV:  13    -0.143759865935E+03   -0.17935E-04   -0.20709E-04  2806   0.491E-02    0.233E-02
DAV:  14    -0.143759865718E+03    0.21750E-06   -0.31711E-06  1638   0.643E-03
  50 F= -.14375987E+03 E0= -.14375664E+03  d E =-.150939E-01
       N       E                     dE             d eps       ncg     rms          rms(c)
DAV:   1    -0.143761160999E+03   -0.12951E-02   -0.60394E-02  2836   0.965E-01    0.464E-02
DAV:   2    -0.143761262093E+03   -0.10109E-03   -0.14966E-03  3094   0.146E-01    0.215E-02
DAV:   3    -0.143761258358E+03    0.37346E-05   -0.43747E-05  2664   0.277E-02    0.147E-02
DAV:   4    -0.143761256138E+03    0.22197E-05   -0.14103E-05  1924   0.217E-02    0.663E-03
DAV:   5    -0.143761255898E+03    0.24066E-06   -0.10605E-05  1812   0.156E-02    0.418E-03
DAV:   6    -0.143761255608E+03    0.28985E-06   -0.26726E-06  1504   0.809E-03
  51 F= -.14376126E+03 E0= -.14375810E+03  d E =-.138989E-02
       N       E                     dE             d eps       ncg     rms          rms(c)
DAV:   1    -0.143764107203E+03   -0.28513E-02   -0.54234E-01  2816   0.290E+00    0.120E-01
DAV:   2    -0.143765128623E+03   -0.10214E-02   -0.12964E-02  3084   0.413E-01    0.618E-02
DAV:   3    -0.143765100600E+03    0.28022E-04   -0.28855E-04  3066   0.627E-02    0.430E-02
DAV:   4    -0.143765085858E+03    0.14743E-04   -0.10239E-04  3240   0.586E-02    0.192E-02
DAV:   5    -0.143765087171E+03   -0.13131E-05   -0.68014E-05  3112   0.389E-02    0.105E-02
DAV:   6    -0.143765085263E+03    0.19077E-05   -0.14561E-05  1830   0.172E-02
  52 F= -.14376509E+03 E0= -.14376209E+03  d E =-.521955E-02
       N       E                     dE             d eps       ncg     rms          rms(c)
DAV:   1    -0.143766946631E+03   -0.18595E-02   -0.21615E+00  2828   0.580E+00    0.245E-01
DAV:   2    -0.143771060188E+03   -0.41136E-02   -0.52591E-02  3038   0.831E-01    0.125E-01
DAV:   3    -0.143770953138E+03    0.10705E-03   -0.11658E-03  3212   0.127E-01    0.864E-02
DAV:   4    -0.143770900157E+03    0.52981E-04   -0.49006E-04  3260   0.117E-01    0.417E-02
DAV:   5    -0.143770896543E+03    0.36143E-05   -0.30537E-04  3256   0.808E-02    0.219E-02
DAV:   6    -0.143770886453E+03    0.10089E-04   -0.76636E-05  3072   0.388E-02    0.140E-02
DAV:   7    -0.143770876658E+03    0.97950E-05   -0.15937E-05  1952   0.210E-02
  53 F= -.14377088E+03 E0= -.14376772E+03  d E =-.110109E-01
       N       E                     dE             d eps       ncg     rms          rms(c)
DAV:   1    -0.143769197143E+03    0.16893E-02   -0.85783E+00  2828   0.116E+01    0.543E-01
DAV:   2    -0.143784673258E+03   -0.15476E-01   -0.26691E-01  2934   0.173E+00    0.318E-01
DAV:   3    -0.143780351902E+03    0.43214E-02   -0.27946E-02  3162   0.360E-01    0.201E-01
DAV:   4    -0.143779933477E+03    0.41842E-03   -0.31628E-03  3086   0.181E-01    0.144E-01
DAV:   5    -0.143779793060E+03    0.14042E-03   -0.10064E-03  3216   0.165E-01    0.541E-02
DAV:   6    -0.143779775408E+03    0.17652E-04   -0.41451E-04  3248   0.134E-01    0.177E-02
DAV:   7    -0.143779760260E+03    0.15148E-04   -0.17465E-04  3156   0.714E-02    0.175E-02
DAV:   8    -0.143779753000E+03    0.72606E-05   -0.25565E-05  2282   0.203E-02
  54 F= -.14377975E+03 E0= -.14377560E+03  d E =-.198873E-01
       N       E                     dE             d eps       ncg     rms          rms(c)
DAV:   1    -0.143763291899E+03    0.16468E-01   -0.33755E+01  2860   0.231E+01    0.120E+00
DAV:   2    -0.143838583743E+03   -0.75292E-01   -0.17318E+00  3022   0.360E+00    0.694E-01
DAV:   3    -0.143807058188E+03    0.31526E-01   -0.12489E-01  3114   0.777E-01    0.441E-01
DAV:   4    -0.143804339011E+03    0.27192E-02   -0.14303E-02  3302   0.429E-01    0.272E-01
DAV:   5    -0.143804189688E+03    0.14932E-03   -0.20808E-03  3228   0.267E-01    0.150E-01
DAV:   6    -0.143804209117E+03   -0.19429E-04   -0.58194E-03  3188   0.267E-01    0.573E-02
DAV:   7    -0.143803986068E+03    0.22305E-03   -0.28429E-03  3078   0.133E-01    0.433E-02
DAV:   8    -0.143803947537E+03    0.38531E-04   -0.67579E-05  3148   0.356E-02    0.297E-02
DAV:   9    -0.143803856076E+03    0.91462E-04   -0.15934E-04  3144   0.723E-02    0.132E-02
DAV:  10    -0.143803835886E+03    0.20189E-04   -0.25100E-05  2304   0.400E-02    0.954E-03
DAV:  11    -0.143803789228E+03    0.46658E-04   -0.48880E-05  3068   0.905E-02    0.872E-03
DAV:  12    -0.143803731042E+03    0.58186E-04   -0.37104E-05  2680   0.114E-01    0.118E-02
DAV:  13    -0.143803632259E+03    0.98783E-04   -0.15888E-04  3978   0.233E-01    0.569E-03
DAV:  14    -0.143803629767E+03    0.24920E-05   -0.19446E-04  3058   0.114E-01    0.103E-02
DAV:  15    -0.143803640655E+03   -0.10888E-04   -0.13218E-04  2710   0.378E-02    0.795E-03
DAV:  16    -0.143803639444E+03    0.12110E-05   -0.32468E-06  1654   0.107E-02
  55 F= -.14380364E+03 E0= -.14380071E+03  d E =-.437737E-01
       N       E                     dE             d eps       ncg     rms          rms(c)
DAV:   1    -0.143814938592E+03   -0.11298E-01   -0.61265E+00  2836   0.924E+00    0.588E-01
DAV:   2    -0.143843381119E+03   -0.28443E-01   -0.72868E-01  3094   0.153E+00    0.480E-01
DAV:   3    -0.143811668796E+03    0.31712E-01   -0.66309E-02  3060   0.461E-01    0.195E-01
DAV:   4    -0.143811032407E+03    0.63639E-03   -0.51323E-03  3244   0.190E-01    0.128E-01
DAV:   5    -0.143811328497E+03   -0.29609E-03   -0.31340E-03  3246   0.124E-01    0.920E-02
DAV:   6    -0.143811007427E+03    0.32107E-03   -0.55547E-03  3126   0.129E-01    0.401E-02
DAV:   7    -0.143810878551E+03    0.12888E-03   -0.96104E-04  3106   0.568E-02    0.160E-02
DAV:   8    -0.143810875548E+03    0.30032E-05   -0.13703E-05  2468   0.139E-02
  56 F= -.14381088E+03 E0= -.14380720E+03  d E =-.723610E-02
       N       E                     dE             d eps       ncg     rms          rms(c)
DAV:   1    -0.143811176925E+03   -0.29837E-03   -0.11081E-01  2838   0.125E+00    0.793E-02
DAV:   2    -0.143811819248E+03   -0.64232E-03   -0.13772E-02  3066   0.207E-01    0.933E-02
DAV:   3    -0.143811071636E+03    0.74761E-03   -0.53700E-03  3040   0.653E-02    0.274E-02
DAV:   4    -0.143811056883E+03    0.14753E-04   -0.81470E-05  2548   0.254E-02    0.181E-02
DAV:   5    -0.143811053127E+03    0.37561E-05   -0.22226E-05  2566   0.251E-02    0.618E-03
DAV:   6    -0.143811053085E+03    0.41923E-07   -0.79722E-06  1690   0.174E-02
  57 F= -.14381105E+03 E0= -.14380756E+03  d E =-.741364E-02
       N       E                     dE             d eps       ncg     rms          rms(c)
DAV:   1    -0.143820535728E+03   -0.94826E-02   -0.38742E-01  2910   0.264E+00    0.992E-02
DAV:   2    -0.143821424859E+03   -0.88913E-03   -0.16193E-02  3144   0.410E-01    0.934E-02
DAV:   3    -0.143820844497E+03    0.58036E-03   -0.42935E-03  3104   0.102E-01    0.509E-02
DAV:   4    -0.143820767005E+03    0.77492E-04   -0.16229E-04  3086   0.465E-02    0.356E-02
DAV:   5    -0.143820677833E+03    0.89172E-04   -0.19118E-04  3082   0.857E-02    0.132E-02
DAV:   6    -0.143820668600E+03    0.92331E-05   -0.11831E-04  3248   0.632E-02    0.822E-03
DAV:   7    -0.143820668916E+03   -0.31633E-06   -0.41533E-05  2502   0.288E-02
  58 F= -.14382067E+03 E0= -.14381723E+03  d E =-.961583E-02
       N       E                     dE             d eps       ncg     rms          rms(c)
DAV:   1    -0.143834245782E+03   -0.13577E-01   -0.34772E+00  2908   0.791E+00    0.287E-01
DAV:   2    -0.143840148013E+03   -0.59022E-02   -0.11690E-01  3146   0.124E+00    0.229E-01
DAV:   3    -0.143837427567E+03    0.27204E-02   -0.25684E-02  3144   0.313E-01    0.153E-01
DAV:   4    -0.143836684630E+03    0.74294E-03   -0.14943E-03  3220   0.130E-01    0.107E-01
DAV:   5    -0.143835808375E+03    0.87626E-03   -0.19692E-03  3210   0.264E-01    0.439E-02
DAV:   6    -0.143835712593E+03    0.95782E-04   -0.88796E-04  3272   0.169E-01    0.283E-02
DAV:   7    -0.143835668675E+03    0.43918E-04   -0.52254E-04  3334   0.141E-01    0.294E-02
DAV:   8    -0.143835620096E+03    0.48579E-04   -0.17130E-04  3114   0.585E-02    0.140E-02
DAV:   9    -0.143835564719E+03    0.55377E-04   -0.45961E-05  2706   0.582E-02    0.152E-02
DAV:  10    -0.143835512222E+03    0.52496E-04   -0.24077E-05  2446   0.897E-02    0.129E-02
DAV:  11    -0.143835470365E+03    0.41857E-04   -0.22305E-04  4114   0.149E-01    0.211E-02
DAV:  12    -0.143835420106E+03    0.50259E-04   -0.73320E-05  3482   0.162E-01    0.247E-02
DAV:  13    -0.143835368491E+03    0.51615E-04   -0.10756E-04  3194   0.146E-01    0.951E-03
DAV:  14    -0.143835377880E+03   -0.93895E-05   -0.14395E-04  2982   0.525E-02    0.119E-02
DAV:  15    -0.143835376602E+03    0.12783E-05   -0.11687E-05  1776   0.174E-02
  59 F= -.14383538E+03 E0= -.14383216E+03  d E =-.243235E-01
       N       E                     dE             d eps       ncg     rms          rms(c)
DAV:   1    -0.143848212191E+03   -0.12834E-01   -0.13077E+00  2844   0.491E+00    0.164E-01
DAV:   2    -0.143851018133E+03   -0.28059E-02   -0.35114E-02  3142   0.713E-01    0.105E-01
DAV:   3    -0.143850682810E+03    0.33532E-03   -0.30501E-03  3186   0.124E-01    0.769E-02
DAV:   4    -0.143850557462E+03    0.12535E-03   -0.57070E-04  3178   0.721E-02    0.514E-02
DAV:   5    -0.143850421389E+03    0.13607E-03   -0.23915E-04  3220   0.110E-01    0.181E-02
DAV:   6    -0.143850401829E+03    0.19560E-04   -0.15930E-04  2964   0.695E-02    0.167E-02
DAV:   7    -0.143850372398E+03    0.29432E-04   -0.79533E-05  2860   0.542E-02    0.113E-02
DAV:   8    -0.143850354830E+03    0.17567E-04   -0.19575E-05  2180   0.352E-02    0.895E-03
DAV:   9    -0.143850323402E+03    0.31429E-04   -0.12093E-05  2036   0.508E-02    0.446E-03
DAV:  10    -0.143850268734E+03    0.54668E-04   -0.49122E-05  3036   0.115E-01    0.111E-02
DAV:  11    -0.143850221755E+03    0.46979E-04   -0.13108E-04  3644   0.174E-01    0.116E-02
DAV:  12    -0.143850227468E+03   -0.57122E-05   -0.13863E-04  2838   0.628E-02    0.180E-02
DAV:  13    -0.143850226365E+03    0.11030E-05   -0.29928E-05  2240   0.235E-02
  60 F= -.14385023E+03 E0= -.14384721E+03  d E =-.148498E-01
       N       E                     dE             d eps       ncg     rms          rms(c)
DAV:   1    -0.143860836898E+03   -0.10609E-01   -0.11765E+01  2856   0.147E+01    0.481E-01
DAV:   2    -0.143885290978E+03   -0.24454E-01   -0.29946E-01  3132   0.214E+00    0.305E-01
DAV:   3    -0.143882957267E+03    0.23337E-02   -0.14457E-02  3232   0.373E-01    0.219E-01
DAV:   4    -0.143882073056E+03    0.88421E-03   -0.31671E-03  3172   0.231E-01    0.144E-01
DAV:   5    -0.143880954635E+03    0.11184E-02   -0.16645E-03  3398   0.313E-01    0.506E-02
DAV:   6    -0.143880742931E+03    0.21170E-03   -0.12465E-03  3220   0.210E-01    0.441E-02
DAV:   7    -0.143880431393E+03    0.31154E-03   -0.63354E-04  3418   0.177E-01    0.338E-02
DAV:   8    -0.143880304804E+03    0.12659E-03   -0.27349E-04  3206   0.106E-01    0.289E-02
DAV:   9    -0.143880140742E+03    0.16406E-03   -0.71294E-05  3002   0.847E-02    0.149E-02
DAV:  10    -0.143879515911E+03    0.62483E-03   -0.58045E-04  3818   0.394E-01    0.460E-02
DAV:  11    -0.143879266632E+03    0.24928E-03   -0.44109E-04  3790   0.223E-01    0.383E-02
DAV:  12    -0.143878991208E+03    0.27542E-03   -0.10086E-03  4460   0.442E-01    0.421E-02
DAV:  13    -0.143878998110E+03   -0.69018E-05   -0.10708E-03  3262   0.205E-01    0.516E-02
DAV:  14    -0.143878952339E+03    0.45771E-04   -0.48638E-04  3204   0.120E-01    0.209E-02
DAV:  15    -0.143878954551E+03   -0.22116E-05   -0.73915E-05  2880   0.429E-02
  61 F= -.14387895E+03 E0= -.14387636E+03  d E =-.435779E-01
       N       E                     dE             d eps       ncg     rms          rms(c)
DAV:   1    -0.143796619222E+03    0.82333E-01   -0.47032E+01  2852   0.294E+01    0.985E-01
DAV:   2    -0.143891666635E+03   -0.95047E-01   -0.12042E+00  3116   0.432E+00    0.605E-01
DAV:   3    -0.143884235383E+03    0.74313E-02   -0.25962E-02  3256   0.694E-01    0.412E-01
DAV:   4    -0.143878779759E+03    0.54556E-02   -0.15925E-02  3242   0.706E-01    0.173E-01
DAV:   5    -0.143877258508E+03    0.15213E-02   -0.60699E-03  3338   0.423E-01    0.113E-01
DAV:   6    -0.143876027460E+03    0.12310E-02   -0.23112E-03  3286   0.278E-01    0.545E-02
DAV:   7    -0.143875333353E+03    0.69411E-03   -0.49788E-04  3324   0.164E-01    0.464E-02
DAV:   8    -0.143873497610E+03    0.18357E-02   -0.89919E-04  4148   0.410E-01    0.319E-02
DAV:   9    -0.143872425407E+03    0.10722E-02   -0.86917E-04  3566   0.284E-01    0.367E-02
DAV:  10    -0.143870583164E+03    0.18422E-02   -0.19837E-03  4358   0.607E-01    0.478E-02
DAV:  11    -0.143869811282E+03    0.77188E-03   -0.21774E-03  3488   0.458E-01    0.479E-02
DAV:  12    -0.143869514020E+03    0.29726E-03   -0.26796E-03  3662   0.509E-01    0.286E-02
DAV:  13    -0.143869682066E+03   -0.16805E-03   -0.20444E-03  3018   0.148E-01    0.466E-02
DAV:  14    -0.143869693758E+03   -0.11692E-04   -0.43360E-05  2776   0.236E-02    0.468E-02
DAV:  15    -0.143869704449E+03   -0.10690E-04   -0.81836E-06  1682   0.150E-02    0.527E-02
DAV:  16    -0.143869648712E+03    0.55737E-04   -0.42939E-04  3260   0.112E-01    0.268E-02
DAV:  17    -0.143869643514E+03    0.51976E-05   -0.22769E-04  3240   0.837E-02    0.405E-02
DAV:  18    -0.143869619417E+03    0.24097E-04   -0.57474E-05  2766   0.411E-02    0.290E-02
DAV:  19    -0.143869614076E+03    0.53415E-05   -0.35981E-04  3340   0.116E-01    0.303E-02
DAV:  20    -0.143869596658E+03    0.17418E-04   -0.10614E-04  3164   0.614E-02    0.172E-02
DAV:  21    -0.143869595649E+03    0.10093E-05   -0.66234E-05  2680   0.345E-02
  62 F= -.14386960E+03 E0= -.14386750E+03  d E =-.342190E-01
       N       E                     dE             d eps       ncg     rms          rms(c)
DAV:   1    -0.143858319283E+03    0.11277E-01   -0.18153E+01  2828   0.179E+01    0.618E-01
DAV:   2    -0.143896004515E+03   -0.37685E-01   -0.48675E-01  3124   0.267E+00    0.377E-01
DAV:   3    -0.143891351852E+03    0.46527E-02   -0.18713E-02  3234   0.465E-01    0.273E-01
DAV:   4    -0.143889934735E+03    0.14171E-02   -0.39714E-03  3120   0.281E-01    0.163E-01
DAV:   5    -0.143888629397E+03    0.13053E-02   -0.24870E-03  3302   0.272E-01    0.683E-02
DAV:   6    -0.143888244576E+03    0.38482E-03   -0.11837E-03  3284   0.198E-01    0.431E-02
DAV:   7    -0.143887922676E+03    0.32190E-03   -0.42261E-04  3248   0.121E-01    0.305E-02
DAV:   8    -0.143887499960E+03    0.42272E-03   -0.12626E-04  3898   0.125E-01    0.194E-02
DAV:   9    -0.143886824191E+03    0.67577E-03   -0.44606E-04  3784   0.238E-01    0.316E-02
DAV:  10    -0.143886213118E+03    0.61107E-03   -0.82203E-04  4252   0.308E-01    0.310E-02
DAV:  11    -0.143885826896E+03    0.38622E-03   -0.89171E-04  3798   0.325E-01    0.315E-02
DAV:  12    -0.143885679189E+03    0.14771E-03   -0.77728E-04  3418   0.265E-01    0.129E-02
DAV:  13    -0.143885693966E+03   -0.14777E-04   -0.52214E-04  3118   0.128E-01    0.131E-02
DAV:  14    -0.143885694681E+03   -0.71416E-06   -0.10098E-04  2714   0.385E-02    0.102E-02
DAV:  15    -0.143885685267E+03    0.94134E-05   -0.11425E-05  1882   0.420E-02
  63 F= -.14388569E+03 E0= -.14388314E+03  d E =-.503087E-01
       N       E                     dE             d eps       ncg     rms          rms(c)
DAV:   1    -0.143893406439E+03   -0.77118E-02   -0.47810E-01  2808   0.297E+00    0.106E-01
DAV:   2    -0.143894359041E+03   -0.95260E-03   -0.13224E-02  3080   0.443E-01    0.622E-02
DAV:   3    -0.143894262819E+03    0.96222E-04   -0.72971E-04  3246   0.743E-02    0.431E-02
DAV:   4    -0.143894232988E+03    0.29831E-04   -0.12395E-04  3130   0.415E-02    0.285E-02
DAV:   5    -0.143894211639E+03    0.21349E-04   -0.66334E-05  3146   0.456E-02    0.928E-03
DAV:   6    -0.143894209384E+03    0.22549E-05   -0.21107E-05  2002   0.248E-02
  64 F= -.14389421E+03 E0= -.14389172E+03  d E =-.852412E-02
       N       E                     dE             d eps       ncg     rms          rms(c)
DAV:   1    -0.143908909320E+03   -0.14698E-01   -0.42873E+00  2800   0.890E+00    0.314E-01
DAV:   2    -0.143917326881E+03   -0.84176E-02   -0.11175E-01  3050   0.130E+00    0.176E-01
DAV:   3    -0.143916780130E+03    0.54675E-03   -0.33660E-03  3232   0.204E-01    0.121E-01
DAV:   4    -0.143916487690E+03    0.29244E-03   -0.12505E-03  3156   0.176E-01    0.627E-02
DAV:   5    -0.143916393851E+03    0.93839E-04   -0.55504E-04  3282   0.118E-01    0.330E-02
DAV:   6    -0.143916349221E+03    0.44630E-04   -0.17176E-04  3338   0.754E-02    0.165E-02
DAV:   7    -0.143916318177E+03    0.31044E-04   -0.36798E-05  2640   0.412E-02    0.107E-02
DAV:   8    -0.143916278637E+03    0.39540E-04   -0.14297E-05  2118   0.457E-02    0.599E-03
DAV:   9    -0.143916212494E+03    0.66143E-04   -0.48735E-05  3024   0.856E-02    0.790E-03
DAV:  10    -0.143916152046E+03    0.60448E-04   -0.74214E-05  3326   0.119E-01    0.722E-03
DAV:  11    -0.143916119078E+03    0.32968E-04   -0.10131E-04  3454   0.133E-01    0.766E-03
DAV:  12    -0.143916126018E+03   -0.69399E-05   -0.14102E-04  2786   0.510E-02    0.992E-03
DAV:  13    -0.143916129346E+03   -0.33279E-05   -0.19926E-05  2170   0.162E-02
  65 F= -.14391613E+03 E0= -.14391394E+03  d E =-.304441E-01
       N       E                     dE             d eps       ncg     rms          rms(c)
DAV:   1    -0.143913227439E+03    0.28986E-02   -0.17118E+01  2792   0.178E+01    0.680E-01
DAV:   2    -0.143944743334E+03   -0.31516E-01   -0.48544E-01  3090   0.267E+00    0.383E-01
DAV:   3    -0.143940912448E+03    0.38309E-02   -0.18140E-02  3202   0.449E-01    0.253E-01
DAV:   4    -0.143940068310E+03    0.84414E-03   -0.31862E-03  3194   0.257E-01    0.176E-01
DAV:   5    -0.143939456178E+03    0.61213E-03   -0.11435E-03  3212   0.203E-01    0.776E-02
DAV:   6    -0.143939227123E+03    0.22905E-03   -0.79959E-04  3310   0.185E-01    0.239E-02
DAV:   7    -0.143939144689E+03    0.82434E-04   -0.37047E-04  3174   0.111E-01    0.253E-02
DAV:   8    -0.143939099445E+03    0.45245E-04   -0.87365E-05  2850   0.427E-02    0.182E-02
DAV:   9    -0.143938962766E+03    0.13668E-03   -0.68194E-05  3022   0.796E-02    0.136E-02
DAV:  10    -0.143938805545E+03    0.15722E-03   -0.10340E-04  3350   0.137E-01    0.236E-02
DAV:  11    -0.143938654416E+03    0.15113E-03   -0.62961E-04  4396   0.301E-01    0.400E-02
DAV:  12    -0.143938603399E+03    0.51017E-04   -0.40279E-04  3428   0.170E-01    0.403E-02
DAV:  13    -0.143938564013E+03    0.39386E-04   -0.17026E-04  3064   0.513E-02    0.220E-02
DAV:  14    -0.143938542968E+03    0.21045E-04   -0.10751E-04  3072   0.568E-02    0.108E-02
DAV:  15    -0.143938526961E+03    0.16007E-04   -0.15781E-05  2072   0.760E-02    0.102E-02
DAV:  16    -0.143938519016E+03    0.79455E-05   -0.37400E-05  2582   0.670E-02
  66 F= -.14393852E+03 E0= -.14393643E+03  d E =-.528337E-01
       N       E                     dE             d eps       ncg     rms          rms(c)
DAV:   1    -0.143938297725E+03    0.22924E-03   -0.49283E-01  2854   0.304E+00    0.119E-01
DAV:   2    -0.143939183346E+03   -0.88562E-03   -0.14709E-02  3054   0.455E-01    0.691E-02
DAV:   3    -0.143938968578E+03    0.21477E-03   -0.86696E-04  3094   0.838E-02    0.435E-02
DAV:   4    -0.143938942559E+03    0.26018E-04   -0.97924E-05  3224   0.442E-02    0.296E-02
DAV:   5    -0.143938922477E+03    0.20082E-04   -0.31383E-05  2458   0.374E-02    0.129E-02
DAV:   6    -0.143938913689E+03    0.87880E-05   -0.29306E-05  2294   0.376E-02
  67 F= -.14393891E+03 E0= -.14393673E+03  d E =-.532284E-01
       N       E                     dE             d eps       ncg     rms          rms(c)
DAV:   1    -0.143946214041E+03   -0.72916E-02   -0.18962E-01  2860   0.190E+00    0.707E-02
DAV:   2    -0.143946588545E+03   -0.37450E-03   -0.61714E-03  3190   0.333E-01    0.545E-02
DAV:   3    -0.143946518005E+03    0.70540E-04   -0.26293E-04  3198   0.748E-02    0.427E-02
DAV:   4    -0.143946490849E+03    0.27156E-04   -0.57327E-05  2956   0.323E-02    0.289E-02
DAV:   5    -0.143946434183E+03    0.56666E-04   -0.86898E-05  2966   0.522E-02    0.123E-02
DAV:   6    -0.143946417978E+03    0.16205E-04   -0.41162E-05  2854   0.434E-02    0.100E-02
DAV:   7    -0.143946404426E+03    0.13552E-04   -0.45255E-05  2610   0.527E-02    0.645E-03
DAV:   8    -0.143946396247E+03    0.81797E-05   -0.15259E-05  2020   0.287E-02
  68 F= -.14394640E+03 E0= -.14394419E+03  d E =-.748256E-02
       N       E                     dE             d eps       ncg     rms          rms(c)
DAV:   1    -0.143956003355E+03   -0.95989E-02   -0.17096E+00  2854   0.569E+00    0.220E-01
DAV:   2    -0.143959479074E+03   -0.34757E-02   -0.56189E-02  3190   0.101E+00    0.161E-01
DAV:   3    -0.143958932973E+03    0.54610E-03   -0.25147E-03  3198   0.230E-01    0.128E-01
DAV:   4    -0.143958692898E+03    0.24008E-03   -0.53303E-04  3178   0.948E-02    0.836E-02
DAV:   5    -0.143958300048E+03    0.39285E-03   -0.69564E-04  3190   0.129E-01    0.366E-02
DAV:   6    -0.143958187266E+03    0.11278E-03   -0.29776E-04  3374   0.117E-01    0.301E-02
DAV:   7    -0.143958116424E+03    0.70841E-04   -0.34426E-04  3698   0.137E-01    0.187E-02
DAV:   8    -0.143958097846E+03    0.18579E-04   -0.16318E-04  3064   0.668E-02    0.208E-02
DAV:   9    -0.143958069683E+03    0.28163E-04   -0.63835E-05  2988   0.361E-02    0.106E-02
DAV:  10    -0.143958054031E+03    0.15652E-04   -0.10582E-05  1924   0.329E-02    0.114E-02
DAV:  11    -0.143958034072E+03    0.19959E-04   -0.47086E-05  2730   0.658E-02    0.541E-03
DAV:  12    -0.143958029633E+03    0.44395E-05   -0.47562E-05  2734   0.433E-02
  69 F= -.14395803E+03 E0= -.14395581E+03  d E =-.191159E-01
       N       E                     dE             d eps       ncg     rms          rms(c)
DAV:   1    -0.143964947373E+03   -0.69133E-02   -0.38516E-01  2820   0.265E+00    0.827E-02
DAV:   2    -0.143965607541E+03   -0.66017E-03   -0.91109E-03  3176   0.377E-01    0.509E-02
DAV:   3    -0.143965510179E+03    0.97361E-04   -0.26351E-04  3188   0.648E-02    0.350E-02
DAV:   4    -0.143965477835E+03    0.32344E-04   -0.62224E-05  3144   0.467E-02    0.222E-02
DAV:   5    -0.143965442156E+03    0.35679E-04   -0.59373E-05  2880   0.684E-02    0.691E-03
DAV:   6    -0.143965438107E+03    0.40490E-05   -0.56198E-05  2876   0.438E-02
  70 F= -.14396544E+03 E0= -.14396326E+03  d E =-.740847E-02
       N       E                     dE             d eps       ncg     rms          rms(c)
DAV:   1    -0.143978640587E+03   -0.13198E-01   -0.34678E+00  2836   0.796E+00    0.248E-01
DAV:   2    -0.143984770950E+03   -0.61304E-02   -0.81260E-02  3168   0.114E+00    0.151E-01
DAV:   3    -0.143984154108E+03    0.61684E-03   -0.15189E-03  3230   0.199E-01    0.106E-01
DAV:   4    -0.143983770911E+03    0.38320E-03   -0.95231E-04  3236   0.198E-01    0.504E-02
DAV:   5    -0.143983619852E+03    0.15106E-03   -0.64409E-04  3350   0.173E-01    0.271E-02
DAV:   6    -0.143983601863E+03    0.17989E-04   -0.30810E-04  3066   0.824E-02    0.213E-02
DAV:   7    -0.143983577778E+03    0.24086E-04   -0.39228E-05  2846   0.295E-02    0.159E-02
DAV:   8    -0.143983555393E+03    0.22385E-04   -0.97774E-06  2036   0.439E-02    0.110E-02
DAV:   9    -0.143983534447E+03    0.20946E-04   -0.61058E-05  3068   0.790E-02    0.550E-03
DAV:  10    -0.143983533062E+03    0.13849E-05   -0.29804E-05  2430   0.232E-02
  71 F= -.14398353E+03 E0= -.14398164E+03  d E =-.255034E-01
       N       E                     dE             d eps       ncg     rms          rms(c)
DAV:   1    -0.143977347567E+03    0.61869E-02   -0.13850E+01  2812   0.159E+01    0.489E-01
DAV:   2    -0.144003964932E+03   -0.26617E-01   -0.32229E-01  3134   0.228E+00    0.307E-01
DAV:   3    -0.144001759371E+03    0.22056E-02   -0.47961E-03  3284   0.387E-01    0.218E-01
DAV:   4    -0.143999846687E+03    0.19127E-02   -0.57561E-03  3228   0.507E-01    0.807E-02
DAV:   5    -0.143999818963E+03    0.27724E-04   -0.33377E-03  3202   0.276E-01    0.813E-02
DAV:   6    -0.143999767620E+03    0.51343E-04   -0.39908E-04  2978   0.789E-02    0.666E-02
DAV:   7    -0.143999637291E+03    0.13033E-03   -0.49804E-04  2980   0.809E-02    0.481E-02
DAV:   8    -0.143999538022E+03    0.99268E-04   -0.39179E-04  3130   0.868E-02    0.545E-02
DAV:   9    -0.143999489224E+03    0.48798E-04   -0.37268E-04  3170   0.935E-02    0.409E-02
DAV:  10    -0.143999477862E+03    0.11362E-04   -0.38243E-04  2840   0.802E-02    0.279E-02
DAV:  11    -0.143999431992E+03    0.45870E-04   -0.11139E-04  2848   0.659E-02    0.889E-03
DAV:  12    -0.143999421389E+03    0.10604E-04   -0.71649E-05  3272   0.741E-02    0.107E-02
DAV:  13    -0.143999422473E+03   -0.10844E-05   -0.47542E-05  2686   0.293E-02
  72 F= -.14399942E+03 E0= -.14399764E+03  d E =-.413928E-01
       N       E                     dE             d eps       ncg     rms          rms(c)
DAV:   1    -0.144006865935E+03   -0.74445E-02   -0.42637E-01  2872   0.284E+00    0.105E-01
DAV:   2    -0.144007643027E+03   -0.77709E-03   -0.11216E-02  3132   0.438E-01    0.569E-02
DAV:   3    -0.144007597473E+03    0.45554E-04   -0.32243E-04  3314   0.805E-02    0.446E-02
DAV:   4    -0.144007555710E+03    0.41763E-04   -0.16078E-04  3136   0.531E-02    0.205E-02
DAV:   5    -0.144007539411E+03    0.16299E-04   -0.27419E-05  2368   0.396E-02    0.143E-02
DAV:   6    -0.144007528032E+03    0.11379E-04   -0.43011E-05  2736   0.549E-02    0.676E-03
DAV:   7    -0.144007529670E+03   -0.16383E-05   -0.48051E-05  2730   0.294E-02
  73 F= -.14400753E+03 E0= -.14400568E+03  d E =-.810720E-02
       N       E                     dE             d eps       ncg     rms          rms(c)
DAV:   1    -0.144015499390E+03   -0.79714E-02   -0.38423E+00  2892   0.855E+00    0.319E-01
DAV:   2    -0.144022753640E+03   -0.72543E-02   -0.10350E-01  3058   0.134E+00    0.174E-01
DAV:   3    -0.144022296305E+03    0.45734E-03   -0.31563E-03  3326   0.249E-01    0.141E-01
DAV:   4    -0.144021904089E+03    0.39222E-03   -0.11667E-03  3196   0.139E-01    0.686E-02
DAV:   5    -0.144021688944E+03    0.21514E-03   -0.39589E-04  3176   0.131E-01    0.427E-02
DAV:   6    -0.144021584909E+03    0.10404E-03   -0.37061E-04  4232   0.162E-01    0.247E-02
DAV:   7    -0.144021583637E+03    0.12721E-05   -0.33290E-04  3042   0.885E-02    0.252E-02
DAV:   8    -0.144021572397E+03    0.11240E-04   -0.38675E-05  2646   0.270E-02    0.170E-02
DAV:   9    -0.144021557904E+03    0.14493E-04   -0.14301E-04  2986   0.430E-02    0.232E-02
DAV:  10    -0.144021535037E+03    0.22867E-04   -0.32197E-05  2820   0.690E-02    0.143E-02
DAV:  11    -0.144021538307E+03   -0.32701E-05   -0.12501E-04  2842   0.502E-02    0.128E-02
DAV:  12    -0.144021535135E+03    0.31720E-05   -0.14730E-05  1606   0.222E-02
  74 F= -.14402154E+03 E0= -.14401951E+03  d E =-.221127E-01
       N       E                     dE             d eps       ncg     rms          rms(c)
DAV:   1    -0.144022006211E+03   -0.46790E-03   -0.55719E-01  2872   0.326E+00    0.126E-01
DAV:   2    -0.144022906769E+03   -0.90056E-03   -0.15029E-02  3058   0.513E-01    0.663E-02
DAV:   3    -0.144022852014E+03    0.54755E-04   -0.51429E-04  3324   0.998E-02    0.524E-02
DAV:   4    -0.144022793653E+03    0.58361E-04   -0.18018E-04  3166   0.541E-02    0.246E-02
DAV:   5    -0.144022764537E+03    0.29115E-04   -0.46192E-05  2880   0.483E-02    0.162E-02
DAV:   6    -0.144022749934E+03    0.14603E-04   -0.49895E-05  2848   0.586E-02    0.983E-03
DAV:   7    -0.144022749898E+03    0.36476E-07   -0.56768E-05  2864   0.339E-02
  75 F= -.14402275E+03 E0= -.14402048E+03  d E =-.233274E-01
       N       E                     dE             d eps       ncg     rms          rms(c)
DAV:   1    -0.144029783947E+03   -0.70340E-02   -0.21855E-01  2934   0.193E+00    0.850E-02
DAV:   2    -0.144029951820E+03   -0.16787E-03   -0.56804E-03  3106   0.300E-01    0.448E-02
DAV:   3    -0.144029891199E+03    0.60621E-04   -0.27085E-04  3200   0.649E-02    0.322E-02
DAV:   4    -0.144029868227E+03    0.22972E-04   -0.53676E-05  2970   0.309E-02    0.232E-02
DAV:   5    -0.144029837995E+03    0.30232E-04   -0.58685E-05  2892   0.453E-02    0.924E-03
DAV:   6    -0.144029833133E+03    0.48614E-05   -0.28472E-05  2550   0.328E-02
  76 F= -.14402983E+03 E0= -.14402754E+03  d E =-.708324E-02
       N       E                     dE             d eps       ncg     rms          rms(c)
DAV:   1    -0.144042282924E+03   -0.12445E-01   -0.19658E+00  2932   0.582E+00    0.254E-01
DAV:   2    -0.144043598255E+03   -0.13153E-02   -0.51730E-02  3130   0.919E-01    0.143E-01
DAV:   3    -0.144042791560E+03    0.80669E-03   -0.29582E-03  3194   0.215E-01    0.104E-01
DAV:   4    -0.144042476374E+03    0.31519E-03   -0.52466E-04  3314   0.113E-01    0.763E-02
DAV:   5    -0.144042011428E+03    0.46495E-03   -0.68616E-04  3354   0.187E-01    0.316E-02
DAV:   6    -0.144041910802E+03    0.10063E-03   -0.45849E-04  3286   0.139E-01    0.222E-02
DAV:   7    -0.144041869849E+03    0.40954E-04   -0.28541E-04  3326   0.950E-02    0.199E-02
DAV:   8    -0.144041816063E+03    0.53785E-04   -0.61569E-05  3026   0.668E-02    0.110E-02
DAV:   9    -0.144041758042E+03    0.58022E-04   -0.84806E-05  3632   0.108E-01    0.779E-03
DAV:  10    -0.144041746706E+03    0.11336E-04   -0.66304E-05  3136   0.722E-02    0.767E-03
DAV:  11    -0.144041751288E+03   -0.45817E-05   -0.70553E-05  2828   0.344E-02
  77 F= -.14404175E+03 E0= -.14403972E+03  d E =-.190014E-01
       N       E                     dE             d eps       ncg     rms          rms(c)
DAV:   1    -0.144049837811E+03   -0.80911E-02   -0.35398E-01  2940   0.257E+00    0.104E-01
DAV:   2    -0.144050431157E+03   -0.59335E-03   -0.10265E-02  3094   0.399E-01    0.591E-02
DAV:   3    -0.144050329781E+03    0.10138E-03   -0.33462E-04  3202   0.821E-02    0.429E-02
DAV:   4    -0.144050301713E+03    0.28067E-04   -0.91750E-05  3132   0.434E-02    0.303E-02
DAV:   5    -0.144050263029E+03    0.38684E-04   -0.41100E-05  2910   0.444E-02    0.148E-02
DAV:   6    -0.144050246546E+03    0.16484E-04   -0.39730E-05  2906   0.496E-02    0.669E-03
DAV:   7    -0.144050242136E+03    0.44093E-05   -0.41591E-05  2684   0.458E-02
  78 F= -.14405024E+03 E0= -.14404834E+03  d E =-.849085E-02
       N       E                     dE             d eps       ncg     rms          rms(c)
DAV:   1    -0.144061055321E+03   -0.10809E-01   -0.31811E+00  2940   0.770E+00    0.311E-01
DAV:   2    -0.144066296775E+03   -0.52415E-02   -0.92938E-02  3110   0.120E+00    0.179E-01
DAV:   3    -0.144065246925E+03    0.10498E-02   -0.29399E-03  3172   0.252E-01    0.130E-01
DAV:   4    -0.144064971576E+03    0.27535E-03   -0.82191E-04  3190   0.136E-01    0.944E-02
DAV:   5    -0.144064572291E+03    0.39928E-03   -0.32752E-04  3298   0.138E-01    0.504E-02
DAV:   6    -0.144064324922E+03    0.24737E-03   -0.48503E-04  3514   0.188E-01    0.222E-02
DAV:   7    -0.144064275440E+03    0.49482E-04   -0.53699E-04  3518   0.158E-01    0.214E-02
DAV:   8    -0.144064268692E+03    0.67474E-05   -0.14934E-04  3010   0.489E-02    0.205E-02
DAV:   9    -0.144064262417E+03    0.62752E-05   -0.52161E-06  1700   0.920E-03
  79 F= -.14406426E+03 E0= -.14406240E+03  d E =-.225111E-01
       N       E                     dE             d eps       ncg     rms          rms(c)
DAV:   1    -0.144064668324E+03   -0.39963E-03   -0.30338E-01  2916   0.238E+00    0.963E-02
DAV:   2    -0.144065117944E+03   -0.44962E-03   -0.87295E-03  3136   0.375E-01    0.577E-02
DAV:   3    -0.144064991590E+03    0.12635E-03   -0.33973E-04  3174   0.812E-02    0.408E-02
DAV:   4    -0.144064956199E+03    0.35391E-04   -0.63498E-05  3082   0.378E-02    0.304E-02
DAV:   5    -0.144064895136E+03    0.61063E-04   -0.57090E-05  3070   0.586E-02    0.144E-02
DAV:   6    -0.144064867447E+03    0.27689E-04   -0.60300E-05  3116   0.630E-02    0.722E-03
DAV:   7    -0.144064860786E+03    0.66605E-05   -0.54377E-05  2864   0.495E-02
  80 F= -.14406486E+03 E0= -.14406289E+03  d E =-.231095E-01
       N       E                     dE             d eps       ncg     rms          rms(c)
DAV:   1    -0.144071215574E+03   -0.63481E-02   -0.65774E-01  2860   0.343E+00    0.147E-01
DAV:   2    -0.144072266017E+03   -0.10504E-02   -0.18720E-02  3086   0.550E-01    0.904E-02
DAV:   3    -0.144072151762E+03    0.11425E-03   -0.50352E-04  3252   0.112E-01    0.674E-02
DAV:   4    -0.144072072987E+03    0.78775E-04   -0.75990E-04  3212   0.136E-01    0.318E-02
DAV:   5    -0.144072051986E+03    0.21002E-04   -0.11577E-04  3168   0.553E-02    0.266E-02
DAV:   6    -0.144072036065E+03    0.15921E-04   -0.75168E-05  2838   0.399E-02    0.109E-02
DAV:   7    -0.144072017356E+03    0.18708E-04   -0.14742E-05  2152   0.357E-02    0.577E-03
DAV:   8    -0.144072008946E+03    0.84106E-05   -0.11742E-05  1870   0.234E-02
  81 F= -.14407201E+03 E0= -.14406968E+03  d E =-.714816E-02
       N       E                     dE             d eps       ncg     rms          rms(c)
DAV:   1    -0.144074609308E+03   -0.25920E-02   -0.17342E+00  2868   0.556E+00    0.242E-01
DAV:   2    -0.144077170253E+03   -0.25609E-02   -0.50031E-02  3090   0.900E-01    0.147E-01
DAV:   3    -0.144076838639E+03    0.33161E-03   -0.14663E-03  3256   0.184E-01    0.112E-01
DAV:   4    -0.144076534348E+03    0.30429E-03   -0.19821E-03  3190   0.221E-01    0.535E-02
DAV:   5    -0.144076442952E+03    0.91396E-04   -0.32546E-04  3310   0.968E-02    0.493E-02
DAV:   6    -0.144076344405E+03    0.98547E-04   -0.28483E-04  3460   0.952E-02    0.186E-02
DAV:   7    -0.144076235180E+03    0.10923E-03   -0.85660E-05  3524   0.929E-02    0.172E-02
DAV:   8    -0.144076169455E+03    0.65726E-04   -0.63176E-05  3096   0.733E-02    0.162E-02
DAV:   9    -0.144076030214E+03    0.13924E-03   -0.79627E-05  3850   0.132E-01    0.934E-03
DAV:  10    -0.144075839604E+03    0.19061E-03   -0.14688E-04  3930   0.229E-01    0.119E-02
DAV:  11    -0.144075724182E+03    0.11542E-03   -0.23842E-04  3900   0.254E-01    0.112E-02
DAV:  12    -0.144075715923E+03    0.82592E-05   -0.30983E-04  3472   0.166E-01    0.690E-03
[...]
 103 F= -.14415254E+03 E0= -.14414790E+03  d E =-.490587E-02
       N       E                     dE             d eps       ncg     rms          rms(c)
DAV:   1    -0.144112990741E+03    0.39557E-01   -0.20544E+01  2820   0.195E+01    0.598E-01
DAV:   2    -0.144158656459E+03   -0.45666E-01   -0.48135E-01  2998   0.270E+00    0.351E-01
DAV:   3    -0.144155999151E+03    0.26573E-02   -0.70698E-03  3172   0.323E-01    0.235E-01
DAV:   4    -0.144154718679E+03    0.12805E-02   -0.18160E-03  3076   0.166E-01    0.163E-01
DAV:   5    -0.144153599528E+03    0.11192E-02   -0.24133E-03  3204   0.283E-01    0.458E-02
DAV:   6    -0.144153624049E+03   -0.24521E-04   -0.12478E-03  3148   0.157E-01    0.404E-02
DAV:   7    -0.144153590187E+03    0.33862E-04   -0.16588E-04  3170   0.583E-02    0.256E-02
DAV:   8    -0.144153541802E+03    0.48385E-04   -0.24681E-05  2508   0.416E-02    0.149E-02
DAV:   9    -0.144153481540E+03    0.60262E-04   -0.45335E-05  2918   0.688E-02    0.764E-03
DAV:  10    -0.144153447993E+03    0.33547E-04   -0.82070E-05  3446   0.799E-02    0.139E-02
DAV:  11    -0.144153432640E+03    0.15352E-04   -0.57627E-05  2928   0.524E-02    0.131E-02
DAV:  12    -0.144153421494E+03    0.11146E-04   -0.61168E-05  2874   0.540E-02    0.115E-02
DAV:  13    -0.144153411314E+03    0.10180E-04   -0.13214E-05  2082   0.397E-02    0.109E-02
DAV:  14    -0.144153404602E+03    0.67123E-05   -0.17382E-05  2176   0.343E-02
 104 F= -.14415340E+03 E0= -.14414876E+03  d E =-.577051E-02
       N       E                     dE             d eps       ncg     rms          rms(c)
DAV:   1    -0.144148867997E+03    0.45433E-02   -0.26372E+00  2812   0.695E+00    0.213E-01
DAV:   2    -0.144154595377E+03   -0.57274E-02   -0.60238E-02  3008   0.955E-01    0.117E-01
DAV:   3    -0.144154235767E+03    0.35961E-03   -0.93597E-04  3176   0.121E-01    0.823E-02
DAV:   4    -0.144154102185E+03    0.13358E-03   -0.24403E-04  3070   0.641E-02    0.562E-02
DAV:   5    -0.144153970310E+03    0.13187E-03   -0.37511E-04  3230   0.112E-01    0.184E-02
DAV:   6    -0.144153976712E+03   -0.64023E-05   -0.16125E-04  3082   0.538E-02    0.196E-02
DAV:   7    -0.144153971617E+03    0.50953E-05   -0.28077E-05  2296   0.247E-02
 105 F= -.14415397E+03 E0= -.14414934E+03  d E =-.633753E-02
       N       E                     dE             d eps       ncg     rms          rms(c)
DAV:   1    -0.144153686517E+03    0.29020E-03   -0.18120E+00  2828   0.573E+00    0.168E-01
DAV:   2    -0.144157404473E+03   -0.37180E-02   -0.39919E-02  3066   0.785E-01    0.962E-02
DAV:   3    -0.144157205739E+03    0.19873E-03   -0.44188E-04  3338   0.100E-01    0.665E-02
DAV:   4    -0.144157081504E+03    0.12424E-03   -0.35844E-04  3224   0.112E-01    0.316E-02
DAV:   5    -0.144157025706E+03    0.55797E-04   -0.25915E-04  3184   0.916E-02    0.271E-02
DAV:   6    -0.144157018192E+03    0.75146E-05   -0.89397E-05  3022   0.419E-02
 106 F= -.14415702E+03 E0= -.14415239E+03  d E =-.304657E-02
       N       E                     dE             d eps       ncg     rms          rms(c)
DAV:   1    -0.144141615275E+03    0.15410E-01   -0.93588E+00  2828   0.131E+01    0.397E-01
DAV:   2    -0.144161217609E+03   -0.19602E-01   -0.21090E-01  3066   0.181E+00    0.221E-01
DAV:   3    -0.144160177285E+03    0.10403E-02   -0.24146E-03  3306   0.239E-01    0.151E-01
DAV:   4    -0.144159501708E+03    0.67558E-03   -0.19059E-03  3216   0.271E-01    0.698E-02
DAV:   5    -0.144159260207E+03    0.24150E-03   -0.13643E-03  3216   0.212E-01    0.621E-02
DAV:   6    -0.144159209450E+03    0.50756E-04   -0.48121E-04  3116   0.988E-02    0.489E-02
DAV:   7    -0.144159162024E+03    0.47427E-04   -0.70911E-05  2940   0.364E-02    0.318E-02
DAV:   8    -0.144159039946E+03    0.12208E-03   -0.19015E-04  3676   0.121E-01    0.177E-02
DAV:   9    -0.144158970950E+03    0.68996E-04   -0.10980E-04  3744   0.123E-01    0.160E-02
DAV:  10    -0.144158921753E+03    0.49197E-04   -0.13482E-04  3826   0.135E-01    0.177E-02
DAV:  11    -0.144158895569E+03    0.26184E-04   -0.81425E-05  2846   0.605E-02    0.133E-02
DAV:  12    -0.144158852491E+03    0.43078E-04   -0.46299E-05  2812   0.929E-02    0.114E-02
DAV:  13    -0.144158835567E+03    0.16924E-04   -0.35359E-05  2774   0.719E-02    0.150E-02
DAV:  14    -0.144158815681E+03    0.19885E-04   -0.75135E-05  2942   0.810E-02    0.730E-03
DAV:  15    -0.144158808771E+03    0.69101E-05   -0.41615E-05  2784   0.742E-02
 107 F= -.14415881E+03 E0= -.14415418E+03  d E =-.483715E-02
       N       E                     dE             d eps       ncg     rms          rms(c)
DAV:   1    -0.144158036750E+03    0.77893E-03   -0.50600E-01  2812   0.302E+00    0.921E-02
DAV:   2    -0.144159117097E+03   -0.10803E-02   -0.11639E-02  3068   0.420E-01    0.529E-02
DAV:   3    -0.144159058317E+03    0.58780E-04   -0.13452E-04  3304   0.588E-02    0.368E-02
DAV:   4    -0.144159028304E+03    0.30013E-04   -0.12054E-04  3168   0.570E-02    0.184E-02
DAV:   5    -0.144159009858E+03    0.18446E-04   -0.60552E-05  3130   0.449E-02    0.148E-02
DAV:   6    -0.144159007773E+03    0.20855E-05   -0.22548E-05  2024   0.214E-02
 108 F= -.14415901E+03 E0= -.14415438E+03  d E =-.503616E-02
       N       E                     dE             d eps       ncg     rms          rms(c)
DAV:   1    -0.144158888098E+03    0.12176E-03   -0.20615E+00  2796   0.605E+00    0.183E-01
DAV:   2    -0.144163108970E+03   -0.42209E-02   -0.45142E-02  2988   0.825E-01    0.104E-01
DAV:   3    -0.144162851392E+03    0.25758E-03   -0.71717E-04  3224   0.117E-01    0.741E-02
DAV:   4    -0.144162754113E+03    0.97279E-04   -0.23449E-04  3092   0.704E-02    0.486E-02
DAV:   5    -0.144162644019E+03    0.11009E-03   -0.28361E-04  3236   0.105E-01    0.198E-02
DAV:   6    -0.144162640998E+03    0.30209E-05   -0.11831E-04  2992   0.530E-02    0.209E-02
DAV:   7    -0.144162625538E+03    0.15460E-04   -0.64063E-05  2826   0.537E-02    0.908E-03
DAV:   8    -0.144162614311E+03    0.11227E-04   -0.14694E-05  1962   0.381E-02    0.812E-03
DAV:   9    -0.144162598945E+03    0.15366E-04   -0.59843E-06  1890   0.412E-02    0.543E-03
DAV:  10    -0.144162574594E+03    0.24351E-04   -0.35340E-05  2774   0.752E-02    0.102E-02
DAV:  11    -0.144162545760E+03    0.28835E-04   -0.36070E-05  2746   0.135E-01    0.923E-03
DAV:  12    -0.144162547251E+03   -0.14911E-05   -0.73727E-05  2688   0.438E-02
 109 F= -.14416255E+03 E0= -.14415794E+03  d E =-.353948E-02
       N       E                     dE             d eps       ncg     rms          rms(c)
DAV:   1    -0.144149462059E+03    0.13084E-01   -0.88288E+00  2796   0.126E+01    0.384E-01
DAV:   2    -0.144167587114E+03   -0.18125E-01   -0.19461E-01  2996   0.174E+00    0.217E-01
DAV:   3    -0.144166495229E+03    0.10919E-02   -0.30757E-03  3178   0.241E-01    0.153E-01
DAV:   4    -0.144166111097E+03    0.38413E-03   -0.10787E-03  3094   0.152E-01    0.971E-02
DAV:   5    -0.144165715401E+03    0.39570E-03   -0.11814E-03  3260   0.200E-01    0.433E-02
DAV:   6    -0.144165702709E+03    0.12692E-04   -0.41847E-04  3128   0.102E-01    0.438E-02
DAV:   7    -0.144165635847E+03    0.66862E-04   -0.35137E-04  3738   0.126E-01    0.208E-02
DAV:   8    -0.144165608526E+03    0.27321E-04   -0.10916E-04  2910   0.633E-02    0.203E-02
DAV:   9    -0.144165580271E+03    0.28255E-04   -0.30042E-05  2504   0.323E-02    0.120E-02
DAV:  10    -0.144165495220E+03    0.85051E-04   -0.52267E-05  3130   0.106E-01    0.143E-02
DAV:  11    -0.144165411464E+03    0.83757E-04   -0.52735E-05  3126   0.141E-01    0.132E-02
DAV:  12    -0.144165298300E+03    0.11316E-03   -0.35181E-04  4660   0.371E-01    0.192E-02
DAV:  13    -0.144165318654E+03   -0.20355E-04   -0.42796E-04  3152   0.135E-01    0.210E-02
DAV:  14    -0.144165311584E+03    0.70705E-05   -0.97717E-05  2876   0.571E-02
 110 F= -.14416531E+03 E0= -.14416071E+03  d E =-.630381E-02
       N       E                     dE             d eps       ncg     rms          rms(c)
DAV:   1    -0.144157215198E+03    0.81035E-02   -0.63824E+00  2820   0.107E+01    0.327E-01
DAV:   2    -0.144170629164E+03   -0.13414E-01   -0.14381E-01  3008   0.149E+00    0.197E-01
DAV:   3    -0.144169445764E+03    0.11834E-02   -0.23220E-03  3126   0.200E-01    0.136E-01
DAV:   4    -0.144169073897E+03    0.37187E-03   -0.64917E-04  3124   0.123E-01    0.908E-02
DAV:   5    -0.144168647524E+03    0.42637E-03   -0.86190E-04  3416   0.222E-01    0.223E-02
DAV:   6    -0.144168640810E+03    0.67141E-05   -0.53703E-04  3122   0.108E-01    0.260E-02
DAV:   7    -0.144168604733E+03    0.36077E-04   -0.78916E-05  3026   0.440E-02    0.135E-02
DAV:   8    -0.144168552814E+03    0.51918E-04   -0.56206E-06  1872   0.549E-02    0.912E-03
DAV:   9    -0.144168446437E+03    0.10638E-03   -0.41780E-05  2826   0.115E-01    0.884E-03
DAV:  10    -0.144168326113E+03    0.12032E-03   -0.99388E-05  3758   0.183E-01    0.231E-02
DAV:  11    -0.144168196139E+03    0.12997E-03   -0.32106E-04  4174   0.382E-01    0.340E-02
DAV:  12    -0.144168211092E+03   -0.14953E-04   -0.51902E-04  3134   0.113E-01    0.304E-02
DAV:  13    -0.144168223105E+03   -0.12013E-04   -0.11881E-04  2804   0.392E-02    0.340E-02
DAV:  14    -0.144168223287E+03   -0.18194E-06   -0.79515E-06  1758   0.241E-02
 111 F= -.14416822E+03 E0= -.14416362E+03  d E =-.291170E-02
       N       E                     dE             d eps       ncg     rms          rms(c)
DAV:   1    -0.144168162362E+03    0.60743E-04   -0.61152E-02  2864   0.105E+00    0.608E-02
DAV:   2    -0.144168255150E+03   -0.92788E-04   -0.19934E-03  3100   0.188E-01    0.259E-02
DAV:   3    -0.144168246454E+03    0.86962E-05   -0.11290E-04  3034   0.454E-02    0.196E-02
DAV:   4    -0.144168238895E+03    0.75592E-05   -0.19509E-05  1928   0.224E-02    0.121E-02
DAV:   5    -0.144168233694E+03    0.52005E-05   -0.18543E-05  1832   0.305E-02    0.525E-03
DAV:   6    -0.144168233124E+03    0.57022E-06   -0.12991E-05  1584   0.186E-02
 112 F= -.14416823E+03 E0= -.14416363E+03  d E =-.292154E-02
       N       E                     dE             d eps       ncg     rms          rms(c)
DAV:   1    -0.144168997301E+03   -0.76361E-03   -0.30418E-01  2852   0.236E+00    0.769E-02
DAV:   2    -0.144169585926E+03   -0.58862E-03   -0.72239E-03  3086   0.336E-01    0.537E-02
DAV:   3    -0.144169441051E+03    0.14487E-03   -0.22391E-04  3106   0.629E-02    0.347E-02
DAV:   4    -0.144169413506E+03    0.27545E-04   -0.55242E-05  3124   0.352E-02    0.240E-02
DAV:   5    -0.144169385134E+03    0.28373E-04   -0.34352E-05  2794   0.352E-02    0.126E-02
DAV:   6    -0.144169375651E+03    0.94825E-05   -0.42236E-05  3074   0.366E-02
 113 F= -.14416938E+03 E0= -.14416475E+03  d E =-.114253E-02
       N       E                     dE             d eps       ncg     rms          rms(c)
DAV:   1    -0.144169372111E+03    0.13022E-04   -0.44698E-01  2860   0.287E+00    0.930E-02
DAV:   2    -0.144170230005E+03   -0.85789E-03   -0.10673E-02  3086   0.407E-01    0.651E-02
DAV:   3    -0.144170016110E+03    0.21389E-03   -0.31853E-04  3122   0.754E-02    0.424E-02
DAV:   4    -0.144169974595E+03    0.41515E-04   -0.80229E-05  3156   0.425E-02    0.298E-02
DAV:   5    -0.144169927432E+03    0.47162E-04   -0.57582E-05  2980   0.466E-02    0.150E-02
DAV:   6    -0.144169914048E+03    0.13384E-04   -0.67051E-05  3208   0.454E-02    0.623E-03
DAV:   7    -0.144169913849E+03    0.19963E-06   -0.33472E-05  2584   0.245E-02
 114 F= -.14416991E+03 E0= -.14416529E+03  d E =-.168072E-02
       N       E                     dE             d eps       ncg     rms          rms(c)
DAV:   1    -0.144170910949E+03   -0.99690E-03   -0.82277E-02  2832   0.121E+00    0.571E-02
DAV:   2    -0.144171012462E+03   -0.10151E-03   -0.25793E-03  3106   0.213E-01    0.395E-02
DAV:   3    -0.144170924412E+03    0.88050E-04   -0.21123E-04  2962   0.513E-02    0.276E-02
DAV:   4    -0.144170913232E+03    0.11179E-04   -0.23757E-05  2224   0.214E-02    0.179E-02
DAV:   5    -0.144170905281E+03    0.79511E-05   -0.48608E-05  2866   0.293E-02    0.739E-03
DAV:   6    -0.144170904130E+03    0.11516E-05   -0.51741E-06  1578   0.160E-02
 115 F= -.14417090E+03 E0= -.14416631E+03  d E =-.990281E-03
       N       E                     dE             d eps       ncg     rms          rms(c)
DAV:   1    -0.144171416768E+03   -0.51149E-03   -0.16836E-01  2824   0.173E+00    0.799E-02
DAV:   2    -0.144171627548E+03   -0.21078E-03   -0.53904E-03  3130   0.305E-01    0.571E-02
DAV:   3    -0.144171468415E+03    0.15913E-03   -0.37703E-04  2990   0.698E-02    0.414E-02
DAV:   4    -0.144171444619E+03    0.23796E-04   -0.55136E-05  3038   0.316E-02    0.264E-02
DAV:   5    -0.144171420537E+03    0.24081E-04   -0.83030E-05  3122   0.389E-02    0.956E-03
DAV:   6    -0.144171416060E+03    0.44772E-05   -0.10401E-05  1896   0.226E-02
 116 F= -.14417142E+03 E0= -.14416692E+03  d E =-.150221E-02
       N       E                     dE             d eps       ncg     rms          rms(c)
DAV:   1    -0.144172093394E+03   -0.67286E-03   -0.76188E-02  2920   0.117E+00    0.527E-02
DAV:   2    -0.144172138079E+03   -0.44685E-04   -0.21630E-03  3062   0.183E-01    0.320E-02
DAV:   3    -0.144172087791E+03    0.50288E-04   -0.11009E-04  2896   0.442E-02    0.231E-02
DAV:   4    -0.144172071007E+03    0.16784E-04   -0.32829E-05  2664   0.338E-02    0.141E-02
DAV:   5    -0.144172045446E+03    0.25561E-04   -0.20459E-05  2390   0.437E-02    0.606E-03
DAV:   6    -0.144172031233E+03    0.14212E-04   -0.27681E-05  2548   0.376E-02    0.583E-03
DAV:   7    -0.144172017477E+03    0.13757E-04   -0.11800E-05  2028   0.309E-02    0.456E-03
DAV:   8    -0.144172011317E+03    0.61597E-05   -0.97551E-06  1944   0.245E-02
 117 F= -.14417201E+03 E0= -.14416764E+03  d E =-.595257E-03
       N       E                     dE             d eps       ncg     rms          rms(c)
DAV:   1    -0.144172302226E+03   -0.28475E-03   -0.95456E-02  2924   0.130E+00    0.575E-02
DAV:   2    -0.144172350088E+03   -0.47862E-04   -0.26166E-03  3074   0.203E-01    0.324E-02
DAV:   3    -0.144172297996E+03    0.52093E-04   -0.12954E-04  3102   0.468E-02    0.242E-02
DAV:   4    -0.144172275749E+03    0.22247E-04   -0.32015E-05  2578   0.352E-02    0.153E-02
DAV:   5    -0.144172237085E+03    0.38663E-04   -0.33905E-05  2748   0.561E-02    0.683E-03
DAV:   6    -0.144172220095E+03    0.16990E-04   -0.36221E-05  2856   0.384E-02    0.777E-03
DAV:   7    -0.144172201516E+03    0.18579E-04   -0.15897E-05  2098   0.314E-02    0.606E-03
DAV:   8    -0.144172183992E+03    0.17524E-04   -0.93839E-06  2048   0.398E-02    0.616E-03
DAV:   9    -0.144172171070E+03    0.12923E-04   -0.25007E-05  2516   0.466E-02    0.426E-03
DAV:  10    -0.144172149907E+03    0.21162E-04   -0.19268E-05  2436   0.907E-02    0.416E-03
DAV:  11    -0.144172150344E+03   -0.43625E-06   -0.48770E-05  2820   0.337E-02
 118 F= -.14417215E+03 E0= -.14416795E+03  d E =-.734283E-03
       N       E                     dE             d eps       ncg     rms          rms(c)
DAV:   1    -0.144172545940E+03   -0.39603E-03   -0.88634E-03  2818   0.360E-01    0.232E-02
DAV:   2    -0.144172534165E+03    0.11775E-04   -0.31213E-04  3018   0.642E-02    0.131E-02
DAV:   3    -0.144172526676E+03    0.74890E-05   -0.24362E-05  2388   0.184E-02    0.867E-03
DAV:   4    -0.144172524533E+03    0.21423E-05   -0.46895E-06  1650   0.108E-02    0.510E-03
DAV:   5    -0.144172523177E+03    0.13561E-05   -0.15404E-06  1732   0.124E-02    0.236E-03
DAV:   6    -0.144172522171E+03    0.10058E-05   -0.13292E-06  1762   0.154E-02
 119 F= -.14417252E+03 E0= -.14416843E+03  d E =-.371828E-03
       N       E                     dE             d eps       ncg     rms          rms(c)
DAV:   1    -0.144173408994E+03   -0.88582E-03   -0.79989E-02  2814   0.108E+00    0.637E-02
DAV:   2    -0.144173328150E+03    0.80845E-04   -0.25078E-03  2976   0.178E-01    0.324E-02
DAV:   3    -0.144173301709E+03    0.26440E-04   -0.15282E-04  3084   0.410E-02    0.225E-02
DAV:   4    -0.144173291799E+03    0.99108E-05   -0.25081E-05  2248   0.196E-02    0.142E-02
DAV:   5    -0.144173289366E+03    0.24323E-05   -0.79783E-06  1884   0.147E-02    0.591E-03
DAV:   6    -0.144173287959E+03    0.14077E-05   -0.34616E-06  1814   0.162E-02
 120 F= -.14417329E+03 E0= -.14416954E+03  d E =-.113761E-02
       N       E                     dE             d eps       ncg     rms          rms(c)
DAV:   1    -0.144172673890E+03    0.61548E-03   -0.32021E-01  2816   0.215E+00    0.112E-01
DAV:   2    -0.144172801632E+03   -0.12774E-03   -0.89633E-03  2972   0.340E-01    0.593E-02
DAV:   3    -0.144172735477E+03    0.66155E-04   -0.36563E-04  3238   0.711E-02    0.392E-02
DAV:   4    -0.144172711228E+03    0.24249E-04   -0.13394E-04  3178   0.526E-02    0.191E-02
DAV:   5    -0.144172698162E+03    0.13066E-04   -0.24310E-05  2220   0.338E-02    0.113E-02
DAV:   6    -0.144172687318E+03    0.10843E-04   -0.29629E-05  2580   0.331E-02    0.694E-03
DAV:   7    -0.144172679334E+03    0.79840E-05   -0.58665E-06  1902   0.201E-02
 121 F= -.14417268E+03 E0= -.14416956E+03  d E =-.528991E-03
       N       E                     dE             d eps       ncg     rms          rms(c)
DAV:   1    -0.144173414847E+03   -0.72753E-03   -0.16169E-01  2808   0.153E+00    0.789E-02
DAV:   2    -0.144173468977E+03   -0.54130E-04   -0.45247E-03  2964   0.240E-01    0.425E-02
DAV:   3    -0.144173446610E+03    0.22366E-04   -0.17338E-04  3326   0.505E-02    0.288E-02
DAV:   4    -0.144173441974E+03    0.46366E-05   -0.52975E-05  2888   0.295E-02    0.168E-02
DAV:   5    -0.144173435337E+03    0.66368E-05   -0.10791E-05  2064   0.174E-02    0.798E-03
DAV:   6    -0.144173433845E+03    0.14921E-05   -0.64548E-06  1770   0.211E-02
 122 F= -.14417343E+03 E0= -.14416991E+03  d E =-.128350E-02
       N       E                     dE             d eps       ncg     rms          rms(c)
DAV:   1    -0.144173941699E+03   -0.50636E-03   -0.35758E-02  2840   0.797E-01    0.295E-02
DAV:   2    -0.144174006274E+03   -0.64575E-04   -0.10508E-03  3164   0.133E-01    0.241E-02
DAV:   3    -0.144173995170E+03    0.11103E-04   -0.30926E-05  2812   0.304E-02    0.185E-02
DAV:   4    -0.144173984228E+03    0.10942E-04   -0.53187E-05  2698   0.387E-02    0.774E-03
DAV:   5    -0.144173982586E+03    0.16422E-05   -0.13608E-05  1748   0.209E-02    0.815E-03
DAV:   6    -0.144173981164E+03    0.14217E-05   -0.67011E-06  1540   0.134E-02
 123 F= -.14417398E+03 E0= -.14417048E+03  d E =-.547319E-03
       N       E                     dE             d eps       ncg     rms          rms(c)
DAV:   1    -0.144174120232E+03   -0.13765E-03   -0.42503E-02  2858   0.871E-01    0.326E-02
DAV:   2    -0.144174195321E+03   -0.75089E-04   -0.12842E-03  3184   0.149E-01    0.276E-02
DAV:   3    -0.144174180242E+03    0.15079E-04   -0.45883E-05  3098   0.369E-02    0.212E-02
DAV:   4    -0.144174165000E+03    0.15242E-04   -0.45850E-05  2708   0.369E-02    0.888E-03
DAV:   5    -0.144174158226E+03    0.67743E-05   -0.15383E-05  1870   0.290E-02    0.802E-03
DAV:   6    -0.144174154665E+03    0.35606E-05   -0.11592E-05  1802   0.221E-02
 124 F= -.14417415E+03 E0= -.14417068E+03  d E =-.720820E-03
       N       E                     dE             d eps       ncg     rms          rms(c)
DAV:   1    -0.144174307330E+03   -0.14910E-03   -0.23174E-02  2902   0.649E-01    0.226E-02
DAV:   2    -0.144174346918E+03   -0.39588E-04   -0.57843E-04  3162   0.989E-02    0.142E-02
DAV:   3    -0.144174340994E+03    0.59242E-05   -0.15254E-05  1934   0.195E-02    0.110E-02
DAV:   4    -0.144174337153E+03    0.38405E-05   -0.88403E-06  1810   0.167E-02    0.602E-03
DAV:   5    -0.144174332720E+03    0.44332E-05   -0.89922E-06  1830   0.182E-02    0.419E-03
DAV:   6    -0.144174331414E+03    0.13058E-05   -0.33731E-06  1536   0.105E-02
 125 F= -.14417433E+03 E0= -.14417083E+03  d E =-.176749E-03
