       N       E                     dE             d eps       ncg     rms          rms(c)
DAV:   1     0.551259499197E+03    0.55126E+03   -0.48576E+04  2864   0.138E+03
DAV:   2    -0.110677200816E+03   -0.66194E+03   -0.63141E+03  3680   0.267E+02
DAV:   3    -0.168237118554E+03   -0.57560E+02   -0.57218E+02  3292   0.857E+01
DAV:   4    -0.168973144573E+03   -0.73603E+00   -0.73460E+00  3312   0.105E+01
DAV:   5    -0.168984546100E+03   -0.11402E-01   -0.11393E-01  3408   0.126E+00    0.239E+01
DAV:   6    -0.152258738664E+03    0.16726E+02   -0.97290E+01  3344   0.328E+01    0.828E+00
DAV:   7    -0.152093799910E+03    0.16494E+00   -0.24167E+00  3216   0.636E+00    0.497E+00
DAV:   8    -0.152012152635E+03    0.81647E-01   -0.82287E-01  3256   0.452E+00    0.123E+00
DAV:   9    -0.151972915319E+03    0.39237E-01   -0.18449E-01  3152   0.168E+00    0.557E-01
DAV:  10    -0.151976474840E+03   -0.35595E-02   -0.91802E-02  3192   0.126E+00    0.428E-01
DAV:  11    -0.151973260761E+03    0.32141E-02   -0.13100E-02  3512   0.541E-01    0.242E-01
DAV:  12    -0.151973389754E+03   -0.12899E-03   -0.12952E-02  3276   0.455E-01    0.155E-01
DAV:  13    -0.151972812149E+03    0.57761E-03   -0.14586E-03  4260   0.278E-01    0.751E-02
DAV:  14    -0.151972639842E+03    0.17231E-03   -0.10944E-03  3416   0.170E-01    0.211E-02
DAV:  15    -0.151972373980E+03    0.26586E-03   -0.19015E-04  3916   0.153E-01    0.264E-02
DAV:  16    -0.151972150350E+03    0.22363E-03   -0.22092E-04  4032   0.183E-01    0.241E-02
DAV:  17    -0.151972021111E+03    0.12924E-03   -0.27485E-04  4060   0.172E-01    0.114E-02
DAV:  18    -0.151971917160E+03    0.10395E-03   -0.14606E-04  4156   0.198E-01    0.101E-02
DAV:  19    -0.151971860370E+03    0.56791E-04   -0.15741E-04  3908   0.174E-01    0.974E-03
DAV:  20    -0.151971829102E+03    0.31268E-04   -0.14390E-04  3524   0.128E-01    0.733E-03
DAV:  21    -0.151971803642E+03    0.25460E-04   -0.46633E-05  3072   0.121E-01    0.948E-03
DAV:  22    -0.151971788489E+03    0.15153E-04   -0.34096E-05  2696   0.145E-01    0.781E-03
DAV:  23    -0.151971797683E+03   -0.91947E-05   -0.12094E-04  3088   0.792E-02    0.702E-03
DAV:  24    -0.151971803494E+03   -0.58102E-05   -0.63988E-05  2824   0.289E-02
   1 F= -.15197180E+03 E0= -.15196832E+03  d E =-.151972E+03
       N       E                     dE             d eps       ncg     rms          rms(c)
DAV:   1    -0.151974727527E+03   -0.29298E-02   -0.22200E-02  2904   0.563E-01    0.667E-02
DAV:   2    -0.151974613155E+03    0.11437E-03   -0.24182E-03  3308   0.235E-01    0.532E-02
DAV:   3    -0.151974581566E+03    0.31589E-04   -0.44775E-04  3272   0.846E-02    0.423E-02
DAV:   4    -0.151974550572E+03    0.30994E-04   -0.10880E-04  3212   0.408E-02    0.217E-02
DAV:   5    -0.151974518102E+03    0.32470E-04   -0.96386E-05  3232   0.484E-02    0.130E-02
DAV:   6    -0.151974515269E+03    0.28334E-05   -0.26407E-05  2584   0.330E-02
   2 F= -.15197452E+03 E0= -.15197119E+03  d E =-.271178E-02
       N       E                     dE             d eps       ncg     rms          rms(c)
DAV:   1    -0.151975318474E+03   -0.80037E-03   -0.14686E-02  2892   0.466E-01    0.509E-02
DAV:   2    -0.151975258870E+03    0.59604E-04   -0.16533E-03  3292   0.189E-01    0.447E-02
DAV:   3    -0.151975231378E+03    0.27493E-04   -0.26307E-04  3264   0.668E-02    0.355E-02
DAV:   4    -0.151975207347E+03    0.24030E-04   -0.74968E-05  3188   0.354E-02    0.182E-02
DAV:   5    -0.151975180626E+03    0.26722E-04   -0.94894E-05  3264   0.530E-02    0.138E-02
DAV:   6    -0.151975178741E+03    0.18844E-05   -0.24138E-05  2592   0.285E-02
   3 F= -.15197518E+03 E0= -.15197201E+03  d E =-.337525E-02
       N       E                     dE             d eps       ncg     rms          rms(c)
DAV:   1    -0.151976361814E+03   -0.11812E-02   -0.34091E-01  2856   0.250E+00    0.808E-02
DAV:   2    -0.151977136768E+03   -0.77495E-03   -0.88654E-03  3248   0.351E-01    0.507E-02
DAV:   3    -0.151977078215E+03    0.58554E-04   -0.90409E-05  3356   0.618E-02    0.348E-02
DAV:   4    -0.151977037551E+03    0.40664E-04   -0.10247E-04  3288   0.646E-02    0.132E-02
DAV:   5    -0.151977029785E+03    0.77661E-05   -0.47024E-05  3036   0.379E-02    0.848E-03
DAV:   6    -0.151977019706E+03    0.10079E-04   -0.12845E-05  2012   0.262E-02    0.453E-03
DAV:   7    -0.151977013508E+03    0.61977E-05   -0.40759E-06  1968   0.227E-02
   4 F= -.15197701E+03 E0= -.15197394E+03  d E =-.183477E-02
       N       E                     dE             d eps       ncg     rms          rms(c)
DAV:   1    -0.151975055209E+03    0.19645E-02   -0.18295E+00  2856   0.577E+00    0.187E-01
DAV:   2    -0.151979248954E+03   -0.41937E-02   -0.47984E-02  3240   0.808E-01    0.114E-01
DAV:   3    -0.151978943646E+03    0.30531E-03   -0.45492E-04  3388   0.138E-01    0.790E-02
DAV:   4    -0.151978710795E+03    0.23285E-03   -0.50130E-04  3376   0.155E-01    0.301E-02
DAV:   5    -0.151978651193E+03    0.59602E-04   -0.26402E-04  3352   0.941E-02    0.193E-02
DAV:   6    -0.151978569346E+03    0.81847E-04   -0.78338E-05  3196   0.715E-02    0.123E-02
DAV:   7    -0.151978522619E+03    0.46727E-04   -0.25239E-05  2680   0.592E-02    0.116E-02
DAV:   8    -0.151978407687E+03    0.11493E-03   -0.23078E-04  4612   0.194E-01    0.261E-02
DAV:   9    -0.151978297209E+03    0.11048E-03   -0.12577E-04  3688   0.165E-01    0.165E-02
DAV:  10    -0.151978256282E+03    0.40928E-04   -0.14782E-04  3516   0.115E-01    0.981E-03
DAV:  11    -0.151978233593E+03    0.22689E-04   -0.43052E-05  2944   0.109E-01    0.124E-02
DAV:  12    -0.151978219676E+03    0.13917E-04   -0.59998E-05  3292   0.108E-01    0.515E-03
DAV:  13    -0.151978222772E+03   -0.30963E-05   -0.94832E-05  2996   0.561E-02
   5 F= -.15197822E+03 E0= -.15197542E+03  d E =-.304403E-02
       N       E                     dE             d eps       ncg     rms          rms(c)
DAV:   1    -0.151978725317E+03   -0.50564E-03   -0.15125E-01  2908   0.163E+00    0.514E-02
DAV:   2    -0.151979073588E+03   -0.34827E-03   -0.37767E-03  3196   0.221E-01    0.290E-02
DAV:   3    -0.151979052528E+03    0.21059E-04   -0.34760E-05  3076   0.317E-02    0.195E-02
DAV:   4    -0.151979038282E+03    0.14246E-04   -0.27601E-05  2648   0.346E-02    0.737E-03
DAV:   5    -0.151979035023E+03    0.32592E-05   -0.18336E-05  2336   0.256E-02    0.372E-03
DAV:   6    -0.151979034217E+03    0.80550E-06   -0.58221E-06  1696   0.124E-02
   6 F= -.15197903E+03 E0= -.15197628E+03  d E =-.811445E-03
       N       E                     dE             d eps       ncg     rms          rms(c)
DAV:   1    -0.151978044415E+03    0.99061E-03   -0.13615E+00  2872   0.488E+00    0.155E-01
DAV:   2    -0.151981198816E+03   -0.31544E-02   -0.34141E-02  3180   0.664E-01    0.869E-02
DAV:   3    -0.151981014413E+03    0.18440E-03   -0.29533E-04  3324   0.891E-02    0.580E-02
DAV:   4    -0.151980892616E+03    0.12180E-03   -0.25111E-04  3320   0.956E-02    0.214E-02
DAV:   5    -0.151980865741E+03    0.26875E-04   -0.14215E-04  3280   0.631E-02    0.103E-02
DAV:   6    -0.151980854250E+03    0.11491E-04   -0.30715E-05  2684   0.281E-02    0.692E-03
DAV:   7    -0.151980840802E+03    0.13448E-04   -0.62294E-06  2080   0.239E-02    0.423E-03
DAV:   8    -0.151980825184E+03    0.15618E-04   -0.97834E-06  2124   0.350E-02    0.373E-03
DAV:   9    -0.151980805926E+03    0.19258E-04   -0.31683E-05  2740   0.716E-02    0.466E-03
DAV:  10    -0.151980802518E+03    0.34077E-05   -0.33926E-05  2792   0.412E-02
   7 F= -.15198080E+03 E0= -.15197816E+03  d E =-.257975E-02
       N       E                     dE             d eps       ncg     rms          rms(c)
DAV:   1    -0.151969878760E+03    0.10927E-01   -0.54499E+00  2872   0.983E+00    0.310E-01
DAV:   2    -0.151982806701E+03   -0.12928E-01   -0.13961E-01  3176   0.135E+00    0.182E-01
DAV:   3    -0.151982043037E+03    0.76366E-03   -0.11887E-03  3352   0.180E-01    0.120E-01
DAV:   4    -0.151981571964E+03    0.47107E-03   -0.10679E-03  3320   0.184E-01    0.442E-02
DAV:   5    -0.151981478300E+03    0.93665E-04   -0.49881E-04  3264   0.115E-01    0.187E-02
DAV:   6    -0.151981429855E+03    0.48445E-04   -0.10929E-04  3340   0.561E-02    0.120E-02
DAV:   7    -0.151981386875E+03    0.42980E-04   -0.22244E-05  2488   0.432E-02    0.848E-03
DAV:   8    -0.151981314584E+03    0.72291E-04   -0.46405E-05  3044   0.799E-02    0.771E-03
DAV:   9    -0.151981247441E+03    0.67142E-04   -0.56559E-05  3264   0.108E-01    0.773E-03
DAV:  10    -0.151981197121E+03    0.50321E-04   -0.10080E-04  3812   0.143E-01    0.981E-03
DAV:  11    -0.151981177176E+03    0.19944E-04   -0.10438E-04  3576   0.113E-01    0.735E-03
DAV:  12    -0.151981175888E+03    0.12881E-05   -0.73683E-05  2996   0.451E-02
   8 F= -.15198118E+03 E0= -.15197866E+03  d E =-.295312E-02
       N       E                     dE             d eps       ncg     rms          rms(c)
DAV:   1    -0.151979733267E+03    0.14439E-02   -0.88313E-01  2888   0.402E+00    0.125E-01
DAV:   2    -0.151981777182E+03   -0.20439E-02   -0.22191E-02  3172   0.546E-01    0.689E-02
DAV:   3    -0.151981660223E+03    0.11696E-03   -0.18465E-04  3316   0.764E-02    0.473E-02
DAV:   4    -0.151981573641E+03    0.86583E-04   -0.17317E-04  3408   0.916E-02    0.166E-02
DAV:   5    -0.151981559852E+03    0.13789E-04   -0.11820E-04  3272   0.602E-02    0.991E-03
DAV:   6    -0.151981554472E+03    0.53801E-05   -0.21697E-05  2428   0.222E-02
   9 F= -.15198155E+03 E0= -.15197900E+03  d E =-.333170E-02
       N       E                     dE             d eps       ncg     rms          rms(c)
DAV:   1    -0.151982536946E+03   -0.97709E-03   -0.15799E-01  3032   0.166E+00    0.483E-02
DAV:   2    -0.151982818037E+03   -0.28109E-03   -0.33395E-03  3332   0.226E-01    0.311E-02
DAV:   3    -0.151982793148E+03    0.24889E-04   -0.45668E-05  3176   0.365E-02    0.222E-02
DAV:   4    -0.151982773767E+03    0.19381E-04   -0.65892E-05  3196   0.402E-02    0.915E-03
DAV:   5    -0.151982771161E+03    0.26063E-05   -0.16541E-05  2236   0.249E-02    0.766E-03
DAV:   6    -0.151982768760E+03    0.24010E-05   -0.10482E-05  2016   0.251E-02
  10 F= -.15198277E+03 E0= -.15198022E+03  d E =-.121429E-02
       N       E                     dE             d eps       ncg     rms          rms(c)
DAV:   1    -0.151982776476E+03   -0.53148E-05   -0.14182E+00  2944   0.497E+00    0.145E-01
DAV:   2    -0.151985320270E+03   -0.25438E-02   -0.29709E-02  3292   0.672E-01    0.919E-02
DAV:   3    -0.151985099102E+03    0.22117E-03   -0.32415E-04  3376   0.104E-01    0.640E-02
DAV:   4    -0.151984931278E+03    0.16782E-03   -0.59154E-04  3324   0.131E-01    0.238E-02
DAV:   5    -0.151984918580E+03    0.12698E-04   -0.18591E-04  3260   0.703E-02    0.194E-02
DAV:   6    -0.151984902072E+03    0.16508E-04   -0.70062E-05  2932   0.500E-02    0.811E-03
DAV:   7    -0.151984880864E+03    0.21208E-04   -0.89221E-06  2064   0.465E-02    0.743E-03
DAV:   8    -0.151984860523E+03    0.20341E-04   -0.68005E-06  2080   0.441E-02    0.680E-03
DAV:   9    -0.151984807013E+03    0.53510E-04   -0.25584E-05  2484   0.125E-01    0.590E-03
DAV:  10    -0.151984759750E+03    0.47263E-04   -0.94261E-05  3860   0.167E-01    0.129E-02
DAV:  11    -0.151984742875E+03    0.16875E-04   -0.85511E-05  3396   0.111E-01    0.674E-03
DAV:  12    -0.151984745943E+03   -0.30684E-05   -0.90814E-05  2932   0.628E-02
  11 F= -.15198475E+03 E0= -.15198221E+03  d E =-.319147E-02
       N       E                     dE             d eps       ncg     rms          rms(c)
DAV:   1    -0.151984694089E+03    0.48786E-04   -0.11356E-01  2928   0.139E+00    0.395E-02
DAV:   2    -0.151984888885E+03   -0.19480E-03   -0.22858E-03  3284   0.182E-01    0.256E-02
DAV:   3    -0.151984871456E+03    0.17429E-04   -0.20989E-05  2448   0.269E-02    0.180E-02
DAV:   4    -0.151984857539E+03    0.13917E-04   -0.52559E-05  3008   0.415E-02    0.565E-03
DAV:   5    -0.151984857558E+03   -0.18491E-07   -0.18296E-05  2116   0.193E-02    0.501E-03
DAV:   6    -0.151984856753E+03    0.80451E-06   -0.27439E-06  1680   0.858E-03
  12 F= -.15198486E+03 E0= -.15198232E+03  d E =-.330228E-02
       N       E                     dE             d eps       ncg     rms          rms(c)
DAV:   1    -0.151985979687E+03   -0.11221E-02   -0.16631E-01  2896   0.172E+00    0.527E-02
DAV:   2    -0.151986291555E+03   -0.31187E-03   -0.37009E-03  3320   0.240E-01    0.343E-02
DAV:   3    -0.151986261828E+03    0.29728E-04   -0.55812E-05  3164   0.443E-02    0.241E-02
DAV:   4    -0.151986239971E+03    0.21857E-04   -0.86885E-05  3208   0.614E-02    0.102E-02
DAV:   5    -0.151986237259E+03    0.27117E-05   -0.41724E-05  2988   0.319E-02    0.102E-02
DAV:   6    -0.151986235174E+03    0.20850E-05   -0.67688E-06  1660   0.132E-02
  13 F= -.15198624E+03 E0= -.15198369E+03  d E =-.137842E-02
       N       E                     dE             d eps       ncg     rms          rms(c)
DAV:   1    -0.151985677309E+03    0.55995E-03   -0.13315E+00  2952   0.488E+00    0.151E-01
DAV:   2    -0.151988125148E+03   -0.24478E-02   -0.29907E-02  3328   0.690E-01    0.978E-02
DAV:   3    -0.151987862590E+03    0.26256E-03   -0.56484E-04  3348   0.136E-01    0.699E-02
DAV:   4    -0.151987611573E+03    0.25102E-03   -0.66522E-04  3328   0.173E-01    0.325E-02
DAV:   5    -0.151987528509E+03    0.83064E-04   -0.32531E-04  3464   0.114E-01    0.340E-02
DAV:   6    -0.151987483038E+03    0.45471E-04   -0.12998E-04  3128   0.648E-02    0.183E-02
DAV:   7    -0.151987396787E+03    0.86251E-04   -0.26022E-05  2448   0.785E-02    0.113E-02
DAV:   8    -0.151987272766E+03    0.12402E-03   -0.62889E-05  3576   0.141E-01    0.110E-02
DAV:   9    -0.151987137772E+03    0.13499E-03   -0.13122E-04  3892   0.198E-01    0.169E-02
DAV:  10    -0.151986947991E+03    0.18978E-03   -0.20051E-04  4484   0.354E-01    0.124E-02
DAV:  11    -0.151986874575E+03    0.73416E-04   -0.37727E-04  3744   0.286E-01    0.154E-02
DAV:  12    -0.151986908804E+03   -0.34229E-04   -0.48061E-04  3068   0.789E-02    0.121E-02
DAV:  13    -0.151986907322E+03    0.14815E-05   -0.20425E-05  2368   0.202E-02
  14 F= -.15198691E+03 E0= -.15198434E+03  d E =-.205057E-02
       N       E                     dE             d eps       ncg     rms          rms(c)
DAV:   1    -0.151987062533E+03   -0.15373E-03   -0.15048E-01  2992   0.164E+00    0.470E-02
DAV:   2    -0.151987310533E+03   -0.24800E-03   -0.31622E-03  3328   0.225E-01    0.309E-02
DAV:   3    -0.151987277095E+03    0.33439E-04   -0.56327E-05  3180   0.490E-02    0.219E-02
DAV:   4    -0.151987242030E+03    0.35064E-04   -0.59683E-05  3096   0.670E-02    0.101E-02
DAV:   5    -0.151987230304E+03    0.11727E-04   -0.51669E-05  3088   0.457E-02    0.909E-03
DAV:   6    -0.151987226453E+03    0.38508E-05   -0.16915E-05  1948   0.216E-02
  15 F= -.15198723E+03 E0= -.15198467E+03  d E =-.236970E-02
       N       E                     dE             d eps       ncg     rms          rms(c)
DAV:   1    -0.151987627688E+03   -0.39738E-03   -0.31911E-01  2896   0.241E+00    0.700E-02
DAV:   2    -0.151988233366E+03   -0.60568E-03   -0.68647E-03  3296   0.329E-01    0.409E-02
DAV:   3    -0.151988190776E+03    0.42590E-04   -0.10168E-04  3384   0.519E-02    0.291E-02
DAV:   4    -0.151988155662E+03    0.35114E-04   -0.71208E-05  3260   0.575E-02    0.124E-02
DAV:   5    -0.151988142123E+03    0.13539E-04   -0.47313E-05  3136   0.513E-02    0.102E-02
DAV:   6    -0.151988138694E+03    0.34291E-05   -0.28495E-05  2512   0.278E-02
  16 F= -.15198814E+03 E0= -.15198559E+03  d E =-.912241E-03
       N       E                     dE             d eps       ncg     rms          rms(c)
DAV:   1    -0.151984450342E+03    0.36918E-02   -0.28698E+00  2896   0.724E+00    0.213E-01
DAV:   2    -0.151990033383E+03   -0.55830E-02   -0.62385E-02  3272   0.988E-01    0.124E-01
DAV:   3    -0.151989680786E+03    0.35260E-03   -0.81099E-04  3384   0.139E-01    0.867E-02
DAV:   4    -0.151989434961E+03    0.24583E-03   -0.85980E-04  3308   0.177E-01    0.336E-02
DAV:   5    -0.151989410615E+03    0.24345E-04   -0.43301E-04  3300   0.109E-01    0.336E-02
DAV:   6    -0.151989396397E+03    0.14219E-04   -0.10250E-04  3160   0.462E-02    0.214E-02
DAV:   7    -0.151989380220E+03    0.16176E-04   -0.23200E-05  2164   0.235E-02    0.133E-02
DAV:   8    -0.151989351000E+03    0.29220E-04   -0.50695E-05  3104   0.666E-02    0.126E-02
DAV:   9    -0.151989337612E+03    0.13389E-04   -0.56626E-05  3220   0.653E-02    0.158E-02
DAV:  10    -0.151989327424E+03    0.10187E-04   -0.78790E-05  3664   0.792E-02    0.217E-02
DAV:  11    -0.151989314838E+03    0.12587E-04   -0.34343E-05  2616   0.268E-02    0.157E-02
DAV:  12    -0.151989304307E+03    0.10531E-04   -0.11665E-05  1864   0.167E-02    0.712E-03
DAV:  13    -0.151989277365E+03    0.26942E-04   -0.42477E-05  2900   0.125E-01    0.983E-03
DAV:  14    -0.151989271436E+03    0.59293E-05   -0.46545E-05  3060   0.726E-02
  17 F= -.15198927E+03 E0= -.15198674E+03  d E =-.204498E-02
       N       E                     dE             d eps       ncg     rms          rms(c)
DAV:   1    -0.151989515806E+03   -0.23844E-03   -0.79047E-01  2904   0.393E+00    0.120E-01
DAV:   2    -0.151991289480E+03   -0.17737E-02   -0.19617E-02  3244   0.562E-01    0.711E-02
DAV:   3    -0.151991180255E+03    0.10922E-03   -0.25114E-04  3384   0.751E-02    0.508E-02
DAV:   4    -0.151991099602E+03    0.80653E-04   -0.23475E-04  3272   0.796E-02    0.206E-02
DAV:   5    -0.151991075956E+03    0.23646E-04   -0.73758E-05  3312   0.522E-02    0.160E-02
DAV:   6    -0.151991065595E+03    0.10361E-04   -0.47633E-05  3056   0.362E-02    0.781E-03
DAV:   7    -0.151991056412E+03    0.91828E-05   -0.75110E-06  2016   0.206E-02
  18 F= -.15199106E+03 E0= -.15198857E+03  d E =-.178498E-02
       N       E                     dE             d eps       ncg     rms          rms(c)
DAV:   1    -0.151988755925E+03    0.23097E-02   -0.16620E+00  2904   0.571E+00    0.171E-01
DAV:   2    -0.151992486350E+03   -0.37304E-02   -0.41049E-02  3248   0.812E-01    0.103E-01
DAV:   3    -0.151992248755E+03    0.23759E-03   -0.47890E-04  3380   0.104E-01    0.730E-02
DAV:   4    -0.151992065928E+03    0.18283E-03   -0.51313E-04  3320   0.120E-01    0.287E-02
DAV:   5    -0.151992018560E+03    0.47368E-04   -0.16004E-04  3400   0.759E-02    0.220E-02
DAV:   6    -0.151991993587E+03    0.24974E-04   -0.96299E-05  3264   0.518E-02    0.104E-02
DAV:   7    -0.151991969019E+03    0.24568E-04   -0.11188E-05  2192   0.324E-02    0.695E-03
DAV:   8    -0.151991919850E+03    0.49169E-04   -0.21241E-05  2372   0.669E-02    0.584E-03
DAV:   9    -0.151991873611E+03    0.46239E-04   -0.46873E-05  3216   0.915E-02    0.839E-03
DAV:  10    -0.151991824006E+03    0.49604E-04   -0.76028E-05  3380   0.162E-01    0.822E-03
DAV:  11    -0.151991826210E+03   -0.22031E-05   -0.11667E-04  3104   0.537E-02    0.113E-02
DAV:  12    -0.151991824051E+03    0.21583E-05   -0.16197E-05  2040   0.193E-02
  19 F= -.15199182E+03 E0= -.15198939E+03  d E =-.255262E-02
       N       E                     dE             d eps       ncg     rms          rms(c)
DAV:   1    -0.151992296039E+03   -0.46983E-03   -0.51755E-01  2892   0.318E+00    0.912E-02
DAV:   2    -0.151993362996E+03   -0.10670E-02   -0.11696E-02  3232   0.430E-01    0.537E-02
DAV:   3    -0.151993300820E+03    0.62177E-04   -0.10180E-04  3368   0.542E-02    0.371E-02
DAV:   4    -0.151993254614E+03    0.46206E-04   -0.17523E-04  3448   0.904E-02    0.114E-02
DAV:   5    -0.151993258257E+03   -0.36430E-05   -0.10089E-04  3188   0.412E-02    0.151E-02
DAV:   6    -0.151993255581E+03    0.26762E-05   -0.52032E-06  1636   0.104E-02
  20 F= -.15199326E+03 E0= -.15199086E+03  d E =-.143153E-02
       N       E                     dE             d eps       ncg     rms          rms(c)
DAV:   1    -0.151986350879E+03    0.69074E-02   -0.46573E+00  2872   0.954E+00    0.281E-01
DAV:   2    -0.151996155080E+03   -0.98042E-02   -0.10715E-01  3228   0.130E+00    0.162E-01
DAV:   3    -0.151995593866E+03    0.56121E-03   -0.97780E-04  3392   0.167E-01    0.109E-01
DAV:   4    -0.151995211050E+03    0.38282E-03   -0.16304E-03  3448   0.251E-01    0.353E-02
DAV:   5    -0.151995223602E+03   -0.12552E-04   -0.69812E-04  3228   0.105E-01    0.422E-02
DAV:   6    -0.151995191468E+03    0.32134E-04   -0.78097E-05  3128   0.401E-02    0.229E-02
DAV:   7    -0.151995153713E+03    0.37755E-04   -0.61505E-05  3188   0.472E-02    0.133E-02
DAV:   8    -0.151995126721E+03    0.26992E-04   -0.24309E-05  2600   0.461E-02    0.143E-02
DAV:   9    -0.151995099522E+03    0.27199E-04   -0.27633E-05  2588   0.499E-02    0.773E-03
DAV:  10    -0.151995073476E+03    0.26046E-04   -0.22289E-05  2496   0.597E-02    0.406E-03
DAV:  11    -0.151995037722E+03    0.35754E-04   -0.43104E-05  2876   0.113E-01    0.763E-03
DAV:  12    -0.151995028806E+03    0.89163E-05   -0.59883E-05  3008   0.637E-02
  21 F= -.15199503E+03 E0= -.15199274E+03  d E =-.320475E-02
       N       E                     dE             d eps       ncg     rms          rms(c)
DAV:   1    -0.151995288899E+03   -0.25118E-03   -0.58790E-01  2892   0.339E+00    0.104E-01
DAV:   2    -0.151996566562E+03   -0.12777E-02   -0.14580E-02  3248   0.489E-01    0.634E-02
DAV:   3    -0.151996490858E+03    0.75703E-04   -0.24521E-04  3352   0.729E-02    0.476E-02
DAV:   4    -0.151996440930E+03    0.49929E-04   -0.22584E-04  3268   0.732E-02    0.195E-02
DAV:   5    -0.151996430760E+03    0.10170E-04   -0.62945E-05  3272   0.446E-02    0.189E-02
DAV:   6    -0.151996423527E+03    0.72331E-05   -0.41166E-05  2656   0.395E-02
  22 F= -.15199642E+03 E0= -.15199415E+03  d E =-.139472E-02
       N       E                     dE             d eps       ncg     rms          rms(c)
DAV:   1    -0.151995785946E+03    0.64481E-03   -0.54077E-01  2888   0.325E+00    0.103E-01
DAV:   2    -0.151996970182E+03   -0.11842E-02   -0.13480E-02  3240   0.470E-01    0.602E-02
DAV:   3    -0.151996900290E+03    0.69892E-04   -0.22549E-04  3360   0.719E-02    0.446E-02
DAV:   4    -0.151996856869E+03    0.43421E-04   -0.22641E-04  3260   0.733E-02    0.185E-02
DAV:   5    -0.151996848472E+03    0.83967E-05   -0.52156E-05  3184   0.406E-02    0.180E-02
DAV:   6    -0.151996841184E+03    0.72883E-05   -0.39923E-05  2608   0.391E-02
  23 F= -.15199684E+03 E0= -.15199459E+03  d E =-.181238E-02
       N       E                     dE             d eps       ncg     rms          rms(c)
DAV:   1    -0.151996214854E+03    0.63362E-03   -0.79453E-01  2936   0.392E+00    0.121E-01
DAV:   2    -0.151997956613E+03   -0.17418E-02   -0.19368E-02  3216   0.557E-01    0.727E-02
DAV:   3    -0.151997837801E+03    0.11881E-03   -0.22113E-04  3328   0.810E-02    0.518E-02
DAV:   4    -0.151997759138E+03    0.78663E-04   -0.38393E-04  3300   0.107E-01    0.198E-02
DAV:   5    -0.151997755212E+03    0.39262E-05   -0.10551E-04  3200   0.465E-02    0.188E-02
DAV:   6    -0.151997748481E+03    0.67310E-05   -0.43835E-05  2788   0.317E-02
  24 F= -.15199775E+03 E0= -.15199552E+03  d E =-.907297E-03
