 vasp.5.3.5 31Mar14 (build Apr 08 2024 10:12:10) complex                        
  
 executed on             LinuxIFC date 2024.07.29  12:04:36
 running on    8 total cores
 distrk:  each k-point on    8 cores,    1 groups
 distr:  one band on NCORES_PER_BAND=   4 cores,    2 groups


--------------------------------------------------------------------------------------------------------


 INCAR:
 POTCAR:    PAW_PBE O 08Apr2002                   
 POTCAR:    PAW_PBE Mg 13Apr2007                  
 POTCAR:    PAW_PBE Al 04Jan2001                  
 POTCAR:    PAW_PBE O 08Apr2002                   
   VRHFIN =O: s2p4                                                              
   LEXCH  = PE                                                                  
   EATOM  =   432.3788 eV,   31.7789 Ry                                         
                                                                                
   TITEL  = PAW_PBE O 08Apr2002                                                 
   LULTRA =        F    use ultrasoft PP ?                                      
   IUNSCR =        1    unscreen: 0-lin 1-nonlin 2-no                           
   RPACOR =    1.200    partial core radius                                     
   POMASS =   16.000; ZVAL   =    6.000    mass and valenz                      
   RCORE  =    1.520    outmost cutoff radius                                   
   RWIGS  =    1.550; RWIGS  =    0.820    wigner-seitz radius (au A)           
   ENMAX  =  400.000; ENMIN  =  300.000 eV                                      
   ICORE  =        2    local potential                                         
   LCOR   =        T    correct aug charges                                     
   LPAW   =        T    paw PP                                                  
   EAUG   =  605.392                                                            
   DEXC   =    0.000                                                            
   RMAX   =    1.553    core radius for proj-oper                               
   RAUG   =    1.300    factor for augmentation sphere                          
   RDEP   =    1.550    radius for radial grids                                 
   RDEPT  =    1.329    core radius for aug-charge                              
                                                                                
   Atomic configuration                                                         
    4 entries                                                                   
     n  l   j            E        occ.                                          
     1  0  0.50      -514.6923   2.0000                                         
     2  0  0.50       -23.9615   2.0000                                         
     2  1  0.50        -9.0305   4.0000                                         
     3  2  1.50        -9.5241   0.0000                                         
   Description                                                                  
     l       E           TYP  RCUT    TYP  RCUT                                 
     0    -23.9615318     23  1.200                                             
     0     -9.5240782     23  1.200                                             
     1     -9.0304911     23  1.520                                             
     1      8.1634956     23  1.520                                             
     2     -9.5240782      7  1.500                                             
  local pseudopotential read in
  partial core-charges read in
  partial kinetic energy density read in
  kinetic energy density of atom read in
  atomic valenz-charges read in
  non local Contribution for L=           0  read in
    real space projection operators read in
  non local Contribution for L=           0  read in
    real space projection operators read in
  non local Contribution for L=           1  read in
    real space projection operators read in
  non local Contribution for L=           1  read in
    real space projection operators read in
    PAW grid and wavefunctions read in
 
   number of l-projection  operators is LMAX  =           4
   number of lm-projection operators is LMMAX =           8
 
 POTCAR:    PAW_PBE Mg 13Apr2007                  
   VRHFIN =Mg: s2p0                                                             
   LEXCH  = PE                                                                  
   EATOM  =    23.0369 eV,    1.6932 Ry                                         
                                                                                
   TITEL  = PAW_PBE Mg 13Apr2007                                                
   LULTRA =        F    use ultrasoft PP ?                                      
   IUNSCR =        1    unscreen: 0-lin 1-nonlin 2-no                           
   RPACOR =    1.500    partial core radius                                     
   POMASS =   24.305; ZVAL   =    2.000    mass and valenz                      
   RCORE  =    2.000    outmost cutoff radius                                   
   RWIGS  =    2.880; RWIGS  =    1.524    wigner-seitz radius (au A)           
   ENMAX  =  200.000; ENMIN  =  100.000 eV                                      
   RCLOC  =    1.506    cutoff for local pot                                    
   LCOR   =        T    correct aug charges                                     
   LPAW   =        T    paw PP                                                  
   EAUG   =  454.734                                                            
   DEXC   =    0.000                                                            
   RMAX   =    2.045    core radius for proj-oper                               
   RAUG   =    1.300    factor for augmentation sphere                          
   RDEP   =    2.025    radius for radial grids                                 
   RDEPT  =    1.942    core radius for aug-charge                              
                                                                                
   Atomic configuration                                                         
    6 entries                                                                   
     n  l   j            E        occ.                                          
     1  0  0.50     -1259.6230   2.0000                                         
     2  0  0.50       -79.8442   2.0000                                         
     2  1  1.50       -46.6121   6.0000                                         
     3  0  0.50        -4.7055   2.0000                                         
     3  1  0.50        -1.3660   0.0000                                         
     3  2  1.50        -1.3606   0.0000                                         
   Description                                                                  
     l       E           TYP  RCUT    TYP  RCUT                                 
     0     -4.7054661     23  2.000                                             
     0     27.2116520     23  2.000                                             
     1      1.3605826     23  2.000                                             
     1     27.2116520     23  2.000                                             
     2     -1.3605826     23  2.000                                             
  local pseudopotential read in
  partial core-charges read in
  partial kinetic energy density read in
  atomic valenz-charges read in
  non local Contribution for L=           0  read in
    real space projection operators read in
  non local Contribution for L=           0  read in
    real space projection operators read in
  non local Contribution for L=           1  read in
    real space projection operators read in
  non local Contribution for L=           1  read in
    real space projection operators read in
  non local Contribution for L=           2  read in
    real space projection operators read in
    PAW grid and wavefunctions read in
 
   number of l-projection  operators is LMAX  =           5
   number of lm-projection operators is LMMAX =          13
 
 POTCAR:    PAW_PBE Al 04Jan2001                  
   VRHFIN =Al: s2p1                                                             
   LEXCH  = PE                                                                  
   EATOM  =    53.5387 eV,    3.9350 Ry                                         
                                                                                
   TITEL  = PAW_PBE Al 04Jan2001                                                
   LULTRA =        F    use ultrasoft PP ?                                      
   IUNSCR =        1    unscreen: 0-lin 1-nonlin 2-no                           
   RPACOR =    1.500    partial core radius                                     
   POMASS =   26.981; ZVAL   =    3.000    mass and valenz                      
   RCORE  =    1.900    outmost cutoff radius                                   
   RWIGS  =    2.650; RWIGS  =    1.402    wigner-seitz radius (au A)           
   ENMAX  =  240.300; ENMIN  =  180.225 eV                                      
   ICORE  =        2    local potential                                         
   LCOR   =        T    correct aug charges                                     
   LPAW   =        T    paw PP                                                  
   EAUG   =  291.052                                                            
   DEXC   =    0.000                                                            
   RMAX   =    1.939    core radius for proj-oper                               
   RAUG   =    1.300    factor for augmentation sphere                          
   RDEP   =    1.966    radius for radial grids                                 
   RDEPT  =    1.856    core radius for aug-charge                              
                                                                                
   Atomic configuration                                                         
    6 entries                                                                   
     n  l   j            E        occ.                                          
     1  0  0.50     -1511.1048   2.0000                                         
     2  0  0.50      -108.1629   2.0000                                         
     2  1  1.50       -69.6402   6.0000                                         
     3  0  0.50        -7.7528   2.0000                                         
     3  1  1.50        -2.7121   1.0000                                         
     3  2  2.50        -2.7212   0.0000                                         
   Description                                                                  
     l       E           TYP  RCUT    TYP  RCUT                                 
     0     -7.7528455     23  1.900                                             
     0     -3.3096929     23  1.900                                             
     1     -2.7120682     23  1.900                                             
     1     13.6058260     23  1.900                                             
     2     -2.7211652      7  1.900                                             
  local pseudopotential read in
  partial core-charges read in
  partial kinetic energy density read in
  atomic valenz-charges read in
  non local Contribution for L=           0  read in
    real space projection operators read in
  non local Contribution for L=           0  read in
    real space projection operators read in
  non local Contribution for L=           1  read in
    real space projection operators read in
  non local Contribution for L=           1  read in
    real space projection operators read in
    PAW grid and wavefunctions read in
 
   number of l-projection  operators is LMAX  =           4
   number of lm-projection operators is LMMAX =           8
 

 ----------------------------------------------------------------------------- 
|                                                                             |
|  ADVICE TO THIS USER RUNNING 'VASP/VAMP'   (HEAR YOUR MASTER'S VOICE ...):  |
|                                                                             |
|      You have a (more or less) 'large supercell' and for larger cells       |
|      it might be more efficient to use real space projection opertators     |
|      So try LREAL= Auto  in the INCAR   file.                               |
|      Mind: At the moment your POTCAR file does not contain real space       |
|       projectors, and has to be modified,  BUT if you                       |
|      want to do an extremely  accurate calculation you might also keep the  |
|      reciprocal projection scheme          (i.e. LREAL=.FALSE.)             |
|                                                                             |
 ----------------------------------------------------------------------------- 

  PAW_PBE O 08Apr2002                   :
 energy of atom  1       EATOM= -432.3788
 kinetic energy error for atom=    0.0208 (will be added to EATOM!!)
  PAW_PBE Mg 13Apr2007                  :
 energy of atom  2       EATOM=  -23.0369
 kinetic energy error for atom=    0.0000 (will be added to EATOM!!)
  PAW_PBE Al 04Jan2001                  :
 energy of atom  3       EATOM=  -53.5387
 kinetic energy error for atom=    0.0002 (will be added to EATOM!!)
 
 
 POSCAR: Layer                                   
  positions in direct lattice
  velocities in cartesian coordinates
 exchange correlation table for  LEXCH =        8
   RHO(1)=    0.500       N(1)  =     2000
   RHO(2)=  100.500       N(2)  =     4000
 


--------------------------------------------------------------------------------------------------------


 ion  position               nearest neighbor table
   1  0.333  0.667  0.229-  12 2.16  12 2.16  12 2.16  23 2.29  23 2.29  23 2.29
   2  0.000  0.000  0.348-  19 2.14  19 2.14  19 2.14  16 2.14  16 2.14  16 2.14
   3  0.333  0.667  0.407-  16 2.14  16 2.14  16 2.14  13 2.14  13 2.14  13 2.14
   4  0.000  0.000  0.525-  17 2.14  17 2.14  17 2.14  20 2.14  20 2.14  20 2.14
   5  0.333  0.667  0.583-  17 2.14  17 2.14  17 2.14  14 2.14  14 2.14  14 2.14
   6  0.000  0.000  0.701-  18 2.14  18 2.14  18 2.14  21 2.14  21 2.14  21 2.14
   7  0.333  0.667  0.760-  15 2.14  15 2.14  15 2.14  18 2.14  18 2.14  18 2.14
   8  0.667  0.333  0.289-  12 2.14  12 2.14  12 2.14  19 2.14  19 2.14  19 2.14
   9  0.667  0.333  0.466-  20 2.14  20 2.14  20 2.14  13 2.14  13 2.14  13 2.14
  10  0.667  0.333  0.642-  21 2.14  21 2.14  21 2.14  14 2.14  14 2.14  14 2.14
  11  0.667  0.333  0.820-  15 2.16  15 2.16  15 2.16  26 2.29  26 2.29  26 2.29
  12  0.000  0.000  0.260-   8 2.14   8 2.14   8 2.14   1 2.16   1 2.16   1 2.16  23 2.82  19 3.07
                            19 3.07  19 3.07
  13  0.000  0.000  0.436-   9 2.14   9 2.14   9 2.14   3 2.14   3 2.14   3 2.14  20 3.07  20 3.07
                            20 3.07  16 3.07  16 3.07  16 3.07
  14  0.000  0.000  0.613-   5 2.14   5 2.14   5 2.14  10 2.14  10 2.14  10 2.14  17 3.07  17 3.07
                            17 3.07  21 3.07  21 3.07  21 3.07
  15  0.000  0.000  0.789-   7 2.14   7 2.14   7 2.14  11 2.16  11 2.16  11 2.16  26 2.82  18 3.07
                            18 3.07  18 3.07
  16  0.667  0.333  0.377-   3 2.14   3 2.14   3 2.14   2 2.14   2 2.14   2 2.14  13 3.07  13 3.07
                            13 3.07  19 3.07  19 3.07  19 3.07
  17  0.667  0.333  0.554-   4 2.14   4 2.14   4 2.14   5 2.14   5 2.14   5 2.14  20 3.07  20 3.07
                            20 3.07  14 3.07  14 3.07  14 3.07
  18  0.667  0.333  0.731-   6 2.14   6 2.14   6 2.14   7 2.14   7 2.14   7 2.14  15 3.07  15 3.07
                            15 3.07  21 3.07  21 3.07  21 3.07
  19  0.333  0.667  0.319-   2 2.14   2 2.14   2 2.14   8 2.14   8 2.14   8 2.14  12 3.07  12 3.07
                            12 3.07  16 3.07  16 3.07  16 3.07
  20  0.333  0.667  0.495-   4 2.14   4 2.14   4 2.14   9 2.14   9 2.14   9 2.14  17 3.07  17 3.07
                            17 3.07  13 3.07  13 3.07  13 3.07
  21  0.333  0.667  0.672-  10 2.14  10 2.14  10 2.14   6 2.14   6 2.14   6 2.14  14 3.07  14 3.07
                            14 3.07  18 3.07  18 3.07  18 3.07
  22  0.000  0.000  0.025-  25 3.01  25 3.01  25 3.01  27 3.01  27 3.01  27 3.01
  23  0.000  0.000  0.194-   1 2.29   1 2.29   1 2.29  12 2.82  24 2.93  24 2.93  24 2.93
  24  0.667  0.333  0.140-  23 2.93  23 2.93  23 2.93  25 3.03  25 3.03  25 3.03
  25  0.333  0.667  0.082-  22 3.01  22 3.01  22 3.01  24 3.03  24 3.03  24 3.03
  26  0.000  0.000  0.855-  11 2.29  11 2.29  11 2.29  15 2.82  28 2.93  28 2.93  28 2.93
  27  0.667  0.333  0.967-  22 3.01  22 3.01  22 3.01  28 3.03  28 3.03  28 3.03
  28  0.333  0.667  0.910-  26 2.93  26 2.93  26 2.93  27 3.03  27 3.03  27 3.03
 
  LATTYP: Found a hexagonal cell.
 ALAT       =     2.9737040142
 C/A-ratio  =    14.5475687019
  
  Lattice vectors:
  
 A1 = (   2.5753034102,  -1.4868516771,   0.0000000000)
 A2 = (   0.0000000000,   2.9737033542,   0.0000000000)
 A3 = (  -0.0000000000,   0.0000000000,  43.2601634456)


Analysis of symmetry for initial positions (statically):
=====================================================================
 Subroutine PRICEL returns:
 Original cell was already a primitive cell.
 

 Routine SETGRP: Setting up the symmetry group for a 
 hexagonal supercell.


 Subroutine GETGRP returns: Found 12 space group operations
 (whereof  6 operations were pure point group operations)
 out of a pool of 24 trial point group operations.


The static configuration has the point symmetry C_3v.
 The point group associated with its full space group is D_3d.


Analysis of symmetry for dynamics (positions and initial velocities):
=====================================================================
 Subroutine PRICEL returns:
 Original cell was already a primitive cell.
 

 Routine SETGRP: Setting up the symmetry group for a 
 hexagonal supercell.


 Subroutine GETGRP returns: Found 12 space group operations
 (whereof  6 operations were pure point group operations)
 out of a pool of 24 trial point group operations.


The dynamic configuration has the point symmetry C_3v.
 The point group associated with its full space group is D_3d.


Analysis of constrained symmetry for selective dynamics:
=====================================================================
 Subroutine PRICEL returns:
 Original cell was already a primitive cell.
 

 Routine SETGRP: Setting up the symmetry group for a 
 hexagonal supercell.


 Subroutine GETGRP returns: Found 12 space group operations
 (whereof  6 operations were pure point group operations)
 out of a pool of 24 trial point group operations.


The constrained configuration has the point symmetry C_3v.
 The point group associated with its full space group is D_3d.
 
 
 KPOINTS: K-Spacing Value to Generate K-Mesh: 0.02

Automatic generation of k-mesh.
Space group operators:
 irot       det(A)        alpha          n_x          n_y          n_z        tau_x        tau_y        tau_z
    1     1.000000     0.000000     1.000000     0.000000     0.000000     0.000000     0.000000     0.000000
    2     1.000000   120.000000     0.000000     0.000000    -1.000000     0.000000     0.000000     0.000000
    3     1.000000   120.000000    -0.000000     0.000000     1.000000     0.000000     0.000000     0.000000
    4    -1.000000   180.000000    -0.866025     0.500000    -0.000000     0.000000     0.000000     0.000000
    5    -1.000000   180.000000     0.000000     1.000000     0.000000     0.000000     0.000000     0.000000
    6    -1.000000   180.000000    -0.866025    -0.500000    -0.000000     0.000000     0.000000     0.000000
    7    -1.000000     0.000000     1.000000     0.000000     0.000000     0.000000     0.000000     0.049083
    8    -1.000000   120.000000     0.000000     0.000000    -1.000000     0.000000     0.000000     0.049083
    9    -1.000000   120.000000    -0.000000     0.000000     1.000000     0.000001     0.000000     0.049083
   10     1.000000   180.000000    -0.866025     0.500000    -0.000000     0.000001     0.000000     0.049083
   11     1.000000   180.000000     0.000000     1.000000     0.000000     0.000000     0.000000     0.049083
   12     1.000000   180.000000    -0.866025    -0.500000    -0.000000     0.000000     0.000000     0.049083
 
 Subroutine IBZKPT returns following result:
 ===========================================
 
 Found     21 irreducible k-points:
 
 Following reciprocal coordinates:
            Coordinates               Weight
  0.000000  0.000000  0.000000      1.000000
  0.076923  0.000000  0.000000      6.000000
  0.153846  0.000000  0.000000      6.000000
  0.230769  0.000000  0.000000      6.000000
  0.307692  0.000000  0.000000      6.000000
  0.384615  0.000000  0.000000      6.000000
  0.461538  0.000000  0.000000      6.000000
  0.076923  0.076923 -0.000000      6.000000
  0.153846  0.076923 -0.000000     12.000000
  0.230769  0.076923  0.000000     12.000000
  0.307692  0.076923  0.000000     12.000000
  0.384615  0.076923  0.000000     12.000000
  0.461538  0.076923  0.000000      6.000000
  0.153846  0.153846  0.000000      6.000000
  0.230769  0.153846 -0.000000     12.000000
  0.307692  0.153846  0.000000     12.000000
  0.384615  0.153846  0.000000     12.000000
  0.230769  0.230769  0.000000      6.000000
  0.307692  0.230769  0.000000     12.000000
  0.384615  0.230769  0.000000      6.000000
  0.307692  0.307692 -0.000000      6.000000
 
 Following cartesian coordinates:
            Coordinates               Weight
  0.000000  0.000000  0.000000      1.000000
  0.029870  0.000000  0.000000      6.000000
  0.059739  0.000000  0.000000      6.000000
  0.089609  0.000000  0.000000      6.000000
  0.119478  0.000000  0.000000      6.000000
  0.149348  0.000000  0.000000      6.000000
  0.179217  0.000000  0.000000      6.000000
  0.044804  0.025868  0.000000      6.000000
  0.074674  0.025868  0.000000     12.000000
  0.104543  0.025868  0.000000     12.000000
  0.134413  0.025868  0.000000     12.000000
  0.164282  0.025868  0.000000     12.000000
  0.194152  0.025868  0.000000      6.000000
  0.089609  0.051736  0.000000      6.000000
  0.119478  0.051736  0.000000     12.000000
  0.149348  0.051736  0.000000     12.000000
  0.179217  0.051736  0.000000     12.000000
  0.134413  0.077603  0.000000      6.000000
  0.164282  0.077603  0.000000     12.000000
  0.194152  0.077603  0.000000      6.000000
  0.179217  0.103471  0.000000      6.000000
 


--------------------------------------------------------------------------------------------------------




 Dimension of arrays:
   k-points           NKPTS =     21   k-points in BZ     NKDIM =     21   number of bands    NBANDS=     68
   number of dos      NEDOS =    301   number of ions     NIONS =     28
   non local maximal  LDIM  =      5   non local SUM 2l+1 LMDIM =     13
   total plane-waves  NPLWV = 186624
   max r-space proj   IRMAX =      1   max aug-charges    IRDMAX= 191614
   dimension x,y,z NGX =    24 NGY =   24 NGZ =  324
   dimension x,y,z NGXF=    48 NGYF=   48 NGZF=  648
   support grid    NGXF=    96 NGYF=   96 NGZF= 1296
   ions per type =              11  10   7
 NGX,Y,Z   is equivalent  to a cutoff of  13.42, 13.42, 12.45 a.u.
 NGXF,Y,Z  is equivalent  to a cutoff of  26.83, 26.83, 24.90 a.u.


 I would recommend the setting:
   dimension x,y,z NGX =    22 NGY =   22 NGZ =  322
 SYSTEM =  unknown system                          
 POSCAR =  Layer                                   

 Startparameter for this run:
   NWRITE =      2    write-flag & timer
   PREC   = accura    normal or accurate (medium, high low for compatibility)
   ISTART =      0    job   : 0-new  1-cont  2-samecut
   ICHARG =      2    charge: 1-file 2-atom 10-const
   ISPIN  =      1    spin polarized calculation?
   LNONCOLLINEAR =      F non collinear calculations
   LSORBIT =      F    spin-orbit coupling
   INIWAV =      1    electr: 0-lowe 1-rand  2-diag
   LASPH  =      F    aspherical Exc in radial PAW
   METAGGA=      F    non-selfconsistent MetaGGA calc.

 Electronic Relaxation 1
   ENCUT  =  520.0 eV  38.22 Ry    6.18 a.u.   5.53  5.53 80.44*2*pi/ulx,y,z
   ENINI  =  520.0     initial cutoff
   ENAUG  =  605.4 eV  augmentation charge cutoff
   NELM   =    100;   NELMIN=  6; NELMDL=  0     # of ELM steps 
   EDIFF  = 0.1E-04   stopping-criterion for ELM
   LREAL  =      F    real-space projection
   NLSPLINE    = F    spline interpolate recip. space projectors
   LCOMPAT=      F    compatible to vasp.4.4
   GGA_COMPAT  = T    GGA compatible to vasp.4.4-vasp.4.6
   LMAXPAW     = -100 max onsite density
   LMAXMIX     =    2 max onsite mixed and CHGCAR
   VOSKOWN=      0    Vosko Wilk Nusair interpolation
   ROPT   =    0.00000   0.00000   0.00000
 Ionic relaxation
   EDIFFG = -.2E-01   stopping-criterion for IOM
   NSW    =    500    number of steps for IOM
   NBLOCK =      1;   KBLOCK =    500    inner block; outer block 
   IBRION =      2    ionic relax: 0-MD 1-quasi-New 2-CG
   NFREE  =      1    steps in history (QN), initial steepest desc. (CG)
   ISIF   =      2    stress and relaxation
   IWAVPR =     11    prediction:  0-non 1-charg 2-wave 3-comb
   ISYM   =      2    0-nonsym 1-usesym 2-fastsym
   LCORR  =      T    Harris-Foulkes like correction to forces

   POTIM  = 0.5000    time-step for ionic-motion
   TEIN   =    0.0    initial temperature
   TEBEG  =    0.0;   TEEND  =   0.0 temperature during run
   SMASS  =  -3.00    Nose mass-parameter (am)
   estimated Nose-frequenzy (Omega)   =  0.10E-29 period in steps =****** mass=  -0.202E-27a.u.
   SCALEE = 1.0000    scale energy and forces
   NPACO  =    256;   APACO  = 16.0  distance and # of slots for P.C.
   PSTRESS=    0.0 pullay stress

  Mass of Ions in am
   POMASS =  16.00 24.30 26.98
  Ionic Valenz
   ZVAL   =   6.00  2.00  3.00
  Atomic Wigner-Seitz radii
   RWIGS  =  -1.00 -1.00 -1.00
  virtual crystal weights 
   VCA    =   1.00  1.00  1.00
   NELECT =     107.0000    total number of electrons
   NUPDOWN=      -1.0000    fix difference up-down

 DOS related values:
   EMIN   =  10.00;   EMAX   =-10.00  energy-range for DOS
   EFERMI =   0.00
   ISMEAR =     0;   SIGMA  =   0.05  broadening in eV -4-tet -1-fermi 0-gaus

 Electronic relaxation 2 (details)
   IALGO  =     38    algorithm
   LDIAG  =      T    sub-space diagonalisation (order eigenvalues)
   LSUBROT=      F    optimize rotation matrix (better conditioning)
   TURBO    =      0    0=normal 1=particle mesh
   IRESTART =      0    0=no restart 2=restart with 2 vectors
   NREBOOT  =      0    no. of reboots
   NMIN     =      0    reboot dimension
   EREF     =   0.00    reference energy to select bands
   IMIX   =      4    mixing-type and parameters
     AMIX     =   0.40;   BMIX     =  1.00
     AMIX_MAG =   1.60;   BMIX_MAG =  1.00
     AMIN     =   0.01
     WC   =   100.;   INIMIX=   1;  MIXPRE=   1;  MAXMIX= -45

 Intra band minimization:
   WEIMIN = 0.0010     energy-eigenvalue tresh-hold
   EBREAK =  0.37E-07  absolut break condition
   DEPER  =   0.30     relativ break condition  

   TIME   =   0.40     timestep for ELM

  volume/ion in A,a.u.               =      11.83        79.85
  Fermi-wavevector in a.u.,A,eV,Ry     =   1.123220  2.122577 17.165414  1.261622
  Thomas-Fermi vector in A             =   2.259884
 
 Write flags
   LWAVE  =      F    write WAVECAR
   LCHARG =      T    write CHGCAR
   LVTOT  =      F    write LOCPOT, total local potential
   LVHAR  =      F    write LOCPOT, Hartree potential only
   LELF   =      F    write electronic localiz. function (ELF)
   LORBIT =      0    0 simple, 1 ext, 2 COOP (PROOUT)


 Dipole corrections
   LMONO  =      F    monopole corrections only (constant potential shift)
   LDIPOL =      F    correct potential (dipole corrections)
   IDIPOL =      0    1-x, 2-y, 3-z, 4-all directions 
   EPSILON=  1.0000000 bulk dielectric constant

 Exchange correlation treatment:
   GGA     =    --    GGA type
   LEXCH   =     8    internal setting for exchange type
   VOSKOWN=      0    Vosko Wilk Nusair interpolation
   LHFCALC =     F    Hartree Fock is set to
   LHFONE  =     F    Hartree Fock one center treatment
   AEXX    =    0.0000 exact exchange contribution

 Linear response parameters
   LEPSILON=     F    determine dielectric tensor
   LRPA    =     F    only Hartree local field effects (RPA)
   LNABLA  =     F    use nabla operator in PAW spheres
   LVEL    =     F    velocity operator in full k-point grid
   LINTERFAST=   F  fast interpolation
   KINTER  =     0    interpolate to denser k-point grid
   CSHIFT  =0.1000    complex shift for real part using Kramers Kronig
   OMEGAMAX=  -1.0    maximum frequency
   DEG_THRESHOLD= 0.2000000E-02 threshold for treating states as degnerate
   RTIME   =    0.100 relaxation time in fs

 Orbital magnetization related:
   ORBITALMAG=     F  switch on orbital magnetization
   LCHIMAG   =     F  perturbation theory with respect to B field
   DQ        =  0.001000  dq finite difference perturbation B field



--------------------------------------------------------------------------------------------------------


 conjugate gradient relaxation of ions
   using selective dynamics as specified on POSCAR
 charge density and potential will be updated during run
 non-spin polarized calculation
 Variant of blocked Davidson
 Davidson routine will perform the subspace rotation
 perform sub-space diagonalisation
    after iterative eigenvector-optimisation
 modified Broyden-mixing scheme, WC =      100.0
 initial mixing is a Kerker type mixing with AMIX =  0.4000 and BMIX =      1.0000
 Hartree-type preconditioning will be used
 using additional bands           14
 reciprocal scheme for non local part
 use partial core corrections
 calculate Harris-corrections to forces 
   (improved forces if not selfconsistent)
 use gradient corrections 
 use of overlap-Matrix (Vanderbilt PP)
 Gauss-broadening in eV      SIGMA  =   0.05


--------------------------------------------------------------------------------------------------------


  energy-cutoff  :      520.00
  volume of cell :      331.29
      direct lattice vectors                 reciprocal lattice vectors
     2.575303410 -1.486851677  0.000000000     0.388303761  0.000000000  0.000000000
     0.000000000  2.973703354  0.000000000     0.194151881  0.336281021  0.000000000
    -0.000000000  0.000000000 43.260163446     0.000000000  0.000000000  0.023115955

  length of vectors
     2.973704014  2.973703354 43.260163446     0.388303761  0.388303847  0.023115955


 
 k-points in units of 2pi/SCALE and weight: K-Spacing Value to Generate K-Mesh: 0.02
   0.00000000  0.00000000  0.00000000       0.006
   0.02986952  0.00000000  0.00000000       0.036
   0.05973904  0.00000000  0.00000000       0.036
   0.08960856  0.00000000  0.00000000       0.036
   0.11947808  0.00000000  0.00000000       0.036
   0.14934760  0.00000000  0.00000000       0.036
   0.17921712  0.00000000  0.00000000       0.036
   0.04480428  0.02586777  0.00000000       0.036
   0.07467380  0.02586777  0.00000000       0.071
   0.10454332  0.02586777  0.00000000       0.071
   0.13441284  0.02586777  0.00000000       0.071
   0.16428236  0.02586777  0.00000000       0.071
   0.19415188  0.02586777  0.00000000       0.036
   0.08960856  0.05173554  0.00000000       0.036
   0.11947808  0.05173554  0.00000000       0.071
   0.14934760  0.05173554  0.00000000       0.071
   0.17921712  0.05173554  0.00000000       0.071
   0.13441284  0.07760331  0.00000000       0.036
   0.16428236  0.07760331  0.00000000       0.071
   0.19415188  0.07760331  0.00000000       0.036
   0.17921712  0.10347108  0.00000000       0.036
 
 k-points in reciprocal lattice and weights: K-Spacing Value to Generate K-Mesh: 0.02
   0.00000000  0.00000000  0.00000000       0.006
   0.07692308  0.00000000  0.00000000       0.036
   0.15384615  0.00000000  0.00000000       0.036
   0.23076923  0.00000000  0.00000000       0.036
   0.30769231  0.00000000  0.00000000       0.036
   0.38461538  0.00000000  0.00000000       0.036
   0.46153846  0.00000000  0.00000000       0.036
   0.07692308  0.07692308 -0.00000000       0.036
   0.15384615  0.07692308 -0.00000000       0.071
   0.23076923  0.07692308  0.00000000       0.071
   0.30769231  0.07692308  0.00000000       0.071
   0.38461538  0.07692308  0.00000000       0.071
   0.46153846  0.07692308  0.00000000       0.036
   0.15384615  0.15384615  0.00000000       0.036
   0.23076923  0.15384615 -0.00000000       0.071
   0.30769231  0.15384615  0.00000000       0.071
   0.38461538  0.15384615  0.00000000       0.071
   0.23076923  0.23076923  0.00000000       0.036
   0.30769231  0.23076923  0.00000000       0.071
   0.38461538  0.23076923  0.00000000       0.036
   0.30769231  0.30769231 -0.00000000       0.036
 
 position of ions in fractional coordinates (direct lattice) 
   0.33333300  0.66666700  0.22939005
   0.00000000  0.00000000  0.34794816
   0.33333300  0.66666700  0.40684867
   0.00000000  0.00000000  0.52454119
   0.33333300  0.66666700  0.58336303
   0.00000000  0.00000000  0.70113011
   0.33333300  0.66666700  0.76007040
   0.66666700  0.33333300  0.28901036
   0.66666700  0.33333300  0.46571929
   0.66666700  0.33333300  0.64223209
   0.66666700  0.33333300  0.81969122
   0.00000000  0.00000000  0.25962336
   0.00000000  0.00000000  0.43629169
   0.00000000  0.00000000  0.61278973
   0.00000000  0.00000000  0.78945796
   0.66666700  0.33333300  0.37741616
   0.66666700  0.33333300  0.55394937
   0.66666700  0.33333300  0.73056873
   0.33333300  0.66666700  0.31851719
   0.33333300  0.66666700  0.49513074
   0.33333300  0.66666700  0.67166935
   0.00000000  0.00000000  0.02454226
   0.00000000  0.00000000  0.19447208
   0.66666700  0.33333300  0.13956245
   0.33333300  0.66666700  0.08178169
   0.00000000  0.00000000  0.85461166
   0.66666700  0.33333300  0.96730103
   0.33333300  0.66666700  0.90952098
 
 position of ions in cartesian coordinates  (Angst):
   0.85843361  1.48685316  9.92345114
  -0.00000000  0.00000000 15.05229417
   0.85843361  1.48685316 17.60034014
  -0.00000000  0.00000000 22.69173748
   0.85843361  1.48685316 25.23638016
  -0.00000000  0.00000000 30.33100296
   0.85843361  1.48685316 32.88076952
   1.71686980 -0.00000149 12.50263558
   1.71686980 -0.00000149 20.14709265
   1.71686980 -0.00000149 27.78306533
   1.71686980 -0.00000149 35.45997604
  -0.00000000  0.00000000 11.23134891
  -0.00000000  0.00000000 18.87404962
  -0.00000000  0.00000000 26.50938400
  -0.00000000  0.00000000 34.15208045
   1.71686980 -0.00000149 16.32708478
   1.71686980 -0.00000149 23.96394019
   1.71686980 -0.00000149 31.60452281
   0.85843361  1.48685316 13.77910590
   0.85843361  1.48685316 21.41943660
   0.85843361  1.48685316 29.05652588
  -0.00000000  0.00000000  1.06170211
  -0.00000000  0.00000000  8.41289416
   1.71686980 -0.00000149  6.03749424
   0.85843361  1.48685316  3.53788922
  -0.00000000  0.00000000 36.97063991
   1.71686980 -0.00000149 41.84560079
   0.85843361  1.48685316 39.34602636
 


--------------------------------------------------------------------------------------------------------


 k-point  1 :   0.0000 0.0000 0.0000  plane waves:    9077
 k-point  2 :   0.0769 0.0000 0.0000  plane waves:    9051
 k-point  3 :   0.1538 0.0000 0.0000  plane waves:    9027
 k-point  4 :   0.2308 0.0000 0.0000  plane waves:    8960
 k-point  5 :   0.3077 0.0000 0.0000  plane waves:    8932
 k-point  6 :   0.3846 0.0000 0.0000  plane waves:    8872
 k-point  7 :   0.4615 0.0000 0.0000  plane waves:    8816
 k-point  8 :   0.0769 0.0769-0.0000  plane waves:    9055
 k-point  9 :   0.1538 0.0769-0.0000  plane waves:    8987
 k-point 10 :   0.2308 0.0769 0.0000  plane waves:    8943
 k-point 11 :   0.3077 0.0769 0.0000  plane waves:    8918
 k-point 12 :   0.3846 0.0769 0.0000  plane waves:    8856
 k-point 13 :   0.4615 0.0769 0.0000  plane waves:    8824
 k-point 14 :   0.1538 0.1538 0.0000  plane waves:    8909
 k-point 15 :   0.2308 0.1538-0.0000  plane waves:    8921
 k-point 16 :   0.3077 0.1538 0.0000  plane waves:    8901
 k-point 17 :   0.3846 0.1538 0.0000  plane waves:    8857
 k-point 18 :   0.2308 0.2308 0.0000  plane waves:    8913
 k-point 19 :   0.3077 0.2308 0.0000  plane waves:    8886
 k-point 20 :   0.3846 0.2308 0.0000  plane waves:    8894
 k-point 21 :   0.3077 0.3077-0.0000  plane waves:    8930

 maximum and minimum number of plane-waves per node :      2279     2190

 maximum number of plane-waves:      9077
 maximum index in each direction: 
   IXMAX=    5   IYMAX=    5   IZMAX=   80
   IXMIN=   -5   IYMIN=   -5   IZMIN=  -80

 NGX is ok and might be reduce to  22
 NGY is ok and might be reduce to  22
 NGZ is ok and might be reduce to 322

 parallel 3D FFT for wavefunctions:
    minimum data exchange during FFTs selected (reduces bandwidth)
 parallel 3D FFT for charge:
    minimum data exchange during FFTs selected (reduces bandwidth)


 total amount of memory used by VASP on root node   151072. kBytes
========================================================================

   base      :      30000. kBytes
   nonl-proj :      15932. kBytes
   fftplans  :      55867. kBytes
   grid      :      22394. kBytes
   one-center:         56. kBytes
   wavefun   :      26823. kBytes
 
     INWAV:  cpu time    0.00: real time    0.00
 Broyden mixing: mesh for mixing (old mesh)
   NGX = 11   NGY = 11   NGZ =161
  (NGX  = 48   NGY  = 48   NGZ  =648)
  gives a total of  19481 points

 initial charge density was supplied:
 charge density of overlapping atoms calculated
 number of electron     107.0000000 magnetization 
 keeping initial charge density in first step


--------------------------------------------------------------------------------------------------------


 Maximum index for augmentation-charges        23017 (set IRDMAX)


--------------------------------------------------------------------------------------------------------


 First call to EWALD:  gamma=   0.256
 Maximum number of real-space cells 7x 7x 1
 Maximum number of reciprocal cells 1x 1x15

 FEWALD executed in parallel
    FEWALD:  cpu time    0.00: real time    0.00


----------------------------------------- Iteration    1(   1)  ---------------------------------------


    POTLOK:  cpu time    0.10: real time    0.10
    SETDIJ:  cpu time    0.10: real time    0.10
     EDDAV:  cpu time    4.81: real time    4.84
       DOS:  cpu time    0.00: real time    0.00
    --------------------------------------------
      LOOP:  cpu time    5.01: real time    5.04

 eigenvalue-minimisations  :  2864
 total energy-change (2. order) : 0.5512595E+03  (-0.4857559E+04)
 number of electron     107.0000000 magnetization 
 augmentation part      107.0000000 magnetization 

 Free energy of the ion-electron system (eV)
  ---------------------------------------------------
  alpha Z        PSCENC =       152.42543195
  Ewald energy   TEWEN  =     10953.23886803
  -Hartree energ DENC   =    -16625.51573937
  -exchange      EXHF   =         0.00000000
  -V(xc)+E(xc)   XCENC  =      -363.09704446
  PAW double counting   =      4928.51229836    -4205.98855578
  entropy T*S    EENTRO =        -0.00655067
  eigenvalues    EBANDS =       350.61510227
  atomic energy  EATOM  =      5361.07568887
  ---------------------------------------------------
  free energy    TOTEN  =       551.25949920 eV

  energy without entropy =      551.26604987  energy(sigma->0) =      551.26277453


--------------------------------------------------------------------------------------------------------




----------------------------------------- Iteration    1(   2)  ---------------------------------------


     EDDAV:  cpu time    5.72: real time    5.73
       DOS:  cpu time    0.00: real time    0.00
    --------------------------------------------
      LOOP:  cpu time    5.72: real time    5.73

 eigenvalue-minimisations  :  3680
 total energy-change (2. order) :-0.6619367E+03  (-0.6314128E+03)
 number of electron     107.0000000 magnetization 
 augmentation part      107.0000000 magnetization 

 Free energy of the ion-electron system (eV)
  ---------------------------------------------------
  alpha Z        PSCENC =       152.42543195
  Ewald energy   TEWEN  =     10953.23886803
  -Hartree energ DENC   =    -16625.51573937
  -exchange      EXHF   =         0.00000000
  -V(xc)+E(xc)   XCENC  =      -363.09704446
  PAW double counting   =      4928.51229836    -4205.98855578
  entropy T*S    EENTRO =        -0.00542892
  eigenvalues    EBANDS =      -311.32271949
  atomic energy  EATOM  =      5361.07568887
  ---------------------------------------------------
  free energy    TOTEN  =      -110.67720082 eV

  energy without entropy =     -110.67177189  energy(sigma->0) =     -110.67448635


--------------------------------------------------------------------------------------------------------




----------------------------------------- Iteration    1(   3)  ---------------------------------------


     EDDAV:  cpu time    5.30: real time    5.31
       DOS:  cpu time    0.00: real time    0.00
    --------------------------------------------
      LOOP:  cpu time    5.31: real time    5.32

 eigenvalue-minimisations  :  3292
 total energy-change (2. order) :-0.5755992E+02  (-0.5721847E+02)
 number of electron     107.0000000 magnetization 
 augmentation part      107.0000000 magnetization 

 Free energy of the ion-electron system (eV)
  ---------------------------------------------------
  alpha Z        PSCENC =       152.42543195
  Ewald energy   TEWEN  =     10953.23886803
  -Hartree energ DENC   =    -16625.51573937
  -exchange      EXHF   =         0.00000000
  -V(xc)+E(xc)   XCENC  =      -363.09704446
  PAW double counting   =      4928.51229836    -4205.98855578
  entropy T*S    EENTRO =        -0.00787033
  eigenvalues    EBANDS =      -368.88019583
  atomic energy  EATOM  =      5361.07568887
  ---------------------------------------------------
  free energy    TOTEN  =      -168.23711855 eV

  energy without entropy =     -168.22924823  energy(sigma->0) =     -168.23318339


--------------------------------------------------------------------------------------------------------




----------------------------------------- Iteration    1(   4)  ---------------------------------------


     EDDAV:  cpu time    5.40: real time    5.40
       DOS:  cpu time    0.00: real time    0.00
    --------------------------------------------
      LOOP:  cpu time    5.40: real time    5.41

 eigenvalue-minimisations  :  3312
 total energy-change (2. order) :-0.7360260E+00  (-0.7345972E+00)
 number of electron     107.0000000 magnetization 
 augmentation part      107.0000000 magnetization 

 Free energy of the ion-electron system (eV)
  ---------------------------------------------------
  alpha Z        PSCENC =       152.42543195
  Ewald energy   TEWEN  =     10953.23886803
  -Hartree energ DENC   =    -16625.51573937
  -exchange      EXHF   =         0.00000000
  -V(xc)+E(xc)   XCENC  =      -363.09704446
  PAW double counting   =      4928.51229836    -4205.98855578
  entropy T*S    EENTRO =        -0.00818241
  eigenvalues    EBANDS =      -369.61590977
  atomic energy  EATOM  =      5361.07568887
  ---------------------------------------------------
  free energy    TOTEN  =      -168.97314457 eV

  energy without entropy =     -168.96496216  energy(sigma->0) =     -168.96905337


--------------------------------------------------------------------------------------------------------




----------------------------------------- Iteration    1(   5)  ---------------------------------------


     EDDAV:  cpu time    5.50: real time    5.51
       DOS:  cpu time    0.00: real time    0.00
    CHARGE:  cpu time    0.42: real time    0.42
    MIXING:  cpu time    0.00: real time    0.00
    --------------------------------------------
      LOOP:  cpu time    5.93: real time    5.94

 eigenvalue-minimisations  :  3408
 total energy-change (2. order) :-0.1140153E-01  (-0.1139339E-01)
 number of electron     107.0000001 magnetization 
 augmentation part        8.4822675 magnetization 

 Broyden mixing:
  rms(total) = 0.23900E+01    rms(broyden)= 0.23895E+01
  rms(prec ) = 0.24439E+01
  weight for this iteration     100.00

 Free energy of the ion-electron system (eV)
  ---------------------------------------------------
  alpha Z        PSCENC =       152.42543195
  Ewald energy   TEWEN  =     10953.23886803
  -Hartree energ DENC   =    -16625.51573937
  -exchange      EXHF   =         0.00000000
  -V(xc)+E(xc)   XCENC  =      -363.09704446
  PAW double counting   =      4928.51229836    -4205.98855578
  entropy T*S    EENTRO =        -0.00818459
  eigenvalues    EBANDS =      -369.62730912
  atomic energy  EATOM  =      5361.07568887
  ---------------------------------------------------
  free energy    TOTEN  =      -168.98454610 eV

  energy without entropy =     -168.97636151  energy(sigma->0) =     -168.98045381


--------------------------------------------------------------------------------------------------------




----------------------------------------- Iteration    1(   6)  ---------------------------------------


    POTLOK:  cpu time    0.11: real time    0.11
    SETDIJ:  cpu time    0.11: real time    0.11
     EDDAV:  cpu time    5.43: real time    5.44
       DOS:  cpu time    0.00: real time    0.00
    CHARGE:  cpu time    0.41: real time    0.41
    MIXING:  cpu time    0.00: real time    0.00
    --------------------------------------------
      LOOP:  cpu time    6.05: real time    6.06

 eigenvalue-minimisations  :  3344
 total energy-change (2. order) : 0.1672581E+02  (-0.9728972E+01)
 number of electron     107.0000002 magnetization 
 augmentation part        6.8425385 magnetization 

 Broyden mixing:
  rms(total) = 0.82824E+00    rms(broyden)= 0.82731E+00
  rms(prec ) = 0.83875E+00
  weight for this iteration     100.00

 eigenvalues of (default mixing * dielectric matrix)
  average eigenvalue GAMMA=   0.8315
  0.8315

 Free energy of the ion-electron system (eV)
  ---------------------------------------------------
  alpha Z        PSCENC =       152.42543195
  Ewald energy   TEWEN  =     10953.23886803
  -Hartree energ DENC   =    -16833.12529527
  -exchange      EXHF   =         0.00000000
  -V(xc)+E(xc)   XCENC  =      -348.65304713
  PAW double counting   =      5827.20604214    -5108.37655498
  entropy T*S    EENTRO =        -0.00412690
  eigenvalues    EBANDS =      -156.04574538
  atomic energy  EATOM  =      5361.07568887
  ---------------------------------------------------
  free energy    TOTEN  =      -152.25873866 eV

  energy without entropy =     -152.25461176  energy(sigma->0) =     -152.25667521


--------------------------------------------------------------------------------------------------------




----------------------------------------- Iteration    1(   7)  ---------------------------------------


    POTLOK:  cpu time    0.10: real time    0.10
    SETDIJ:  cpu time    0.10: real time    0.10
     EDDAV:  cpu time    5.33: real time    5.34
       DOS:  cpu time    0.00: real time    0.00
    CHARGE:  cpu time    0.44: real time    0.44
    MIXING:  cpu time    0.00: real time    0.00
    --------------------------------------------
      LOOP:  cpu time    5.98: real time    5.99

 eigenvalue-minimisations  :  3216
 total energy-change (2. order) : 0.1649388E+00  (-0.2416708E+00)
 number of electron     107.0000002 magnetization 
 augmentation part        6.8930062 magnetization 

 Broyden mixing:
  rms(total) = 0.49725E+00    rms(broyden)= 0.49724E+00
  rms(prec ) = 0.50239E+00
  weight for this iteration     100.00

 eigenvalues of (default mixing * dielectric matrix)
  average eigenvalue GAMMA=   1.5451
  0.9762  2.1141

 Free energy of the ion-electron system (eV)
  ---------------------------------------------------
  alpha Z        PSCENC =       152.42543195
  Ewald energy   TEWEN  =     10953.23886803
  -Hartree energ DENC   =    -16825.80038893
  -exchange      EXHF   =         0.00000000
  -V(xc)+E(xc)   XCENC  =      -348.46985549
  PAW double counting   =      6147.86142033    -5428.48566527
  entropy T*S    EENTRO =        -0.00724230
  eigenvalues    EBANDS =      -163.93205710
  atomic energy  EATOM  =      5361.07568887
  ---------------------------------------------------
  free energy    TOTEN  =      -152.09379991 eV

  energy without entropy =     -152.08655761  energy(sigma->0) =     -152.09017876


--------------------------------------------------------------------------------------------------------




----------------------------------------- Iteration    1(   8)  ---------------------------------------


    POTLOK:  cpu time    0.11: real time    0.11
    SETDIJ:  cpu time    0.11: real time    0.11
     EDDAV:  cpu time    5.32: real time    5.33
       DOS:  cpu time    0.00: real time    0.00
    CHARGE:  cpu time    0.43: real time    0.43
    MIXING:  cpu time    0.00: real time    0.00
    --------------------------------------------
      LOOP:  cpu time    5.97: real time    5.98

 eigenvalue-minimisations  :  3256
 total energy-change (2. order) : 0.8164728E-01  (-0.8228694E-01)
 number of electron     107.0000002 magnetization 
 augmentation part        6.9627282 magnetization 

 Broyden mixing:
  rms(total) = 0.12340E+00    rms(broyden)= 0.12334E+00
  rms(prec ) = 0.13533E+00
  weight for this iteration     100.00

 eigenvalues of (default mixing * dielectric matrix)
  average eigenvalue GAMMA=   1.3951
  2.3179  0.9337  0.9337

 Free energy of the ion-electron system (eV)
  ---------------------------------------------------
  alpha Z        PSCENC =       152.42543195
  Ewald energy   TEWEN  =     10953.23886803
  -Hartree energ DENC   =    -16829.31061005
  -exchange      EXHF   =         0.00000000
  -V(xc)+E(xc)   XCENC  =      -347.17425304
  PAW double counting   =      6623.90342616    -5904.11254545
  entropy T*S    EENTRO =        -0.00744000
  eigenvalues    EBANDS =      -162.05071912
  atomic energy  EATOM  =      5361.07568887
  ---------------------------------------------------
  free energy    TOTEN  =      -152.01215263 eV

  energy without entropy =     -152.00471263  energy(sigma->0) =     -152.00843263


--------------------------------------------------------------------------------------------------------




----------------------------------------- Iteration    1(   9)  ---------------------------------------


    POTLOK:  cpu time    0.11: real time    0.11
    SETDIJ:  cpu time    0.12: real time    0.12
     EDDAV:  cpu time    5.20: real time    5.21
       DOS:  cpu time    0.00: real time    0.00
    CHARGE:  cpu time    0.42: real time    0.42
    MIXING:  cpu time    0.00: real time    0.00
    --------------------------------------------
      LOOP:  cpu time    5.86: real time    5.87

 eigenvalue-minimisations  :  3152
 total energy-change (2. order) : 0.3923732E-01  (-0.1844931E-01)
 number of electron     107.0000002 magnetization 
 augmentation part        6.9295736 magnetization 

 Broyden mixing:
  rms(total) = 0.55723E-01    rms(broyden)= 0.55717E-01
  rms(prec ) = 0.57366E-01
  weight for this iteration     100.00

 eigenvalues of (default mixing * dielectric matrix)
  average eigenvalue GAMMA=   1.4303
  2.4801  1.4562  0.8924  0.8924

 Free energy of the ion-electron system (eV)
  ---------------------------------------------------
  alpha Z        PSCENC =       152.42543195
  Ewald energy   TEWEN  =     10953.23886803
  -Hartree energ DENC   =    -16834.46690956
  -exchange      EXHF   =         0.00000000
  -V(xc)+E(xc)   XCENC  =      -346.59000783
  PAW double counting   =      6674.92267776    -5955.18650604
  entropy T*S    EENTRO =        -0.00716754
  eigenvalues    EBANDS =      -157.38499096
  atomic energy  EATOM  =      5361.07568887
  ---------------------------------------------------
  free energy    TOTEN  =      -151.97291532 eV

  energy without entropy =     -151.96574778  energy(sigma->0) =     -151.96933155


--------------------------------------------------------------------------------------------------------




----------------------------------------- Iteration    1(  10)  ---------------------------------------


    POTLOK:  cpu time    0.11: real time    0.11
    SETDIJ:  cpu time    0.11: real time    0.11
     EDDAV:  cpu time    5.18: real time    5.19
       DOS:  cpu time    0.00: real time    0.00
    CHARGE:  cpu time    0.41: real time    0.41
    MIXING:  cpu time    0.00: real time    0.00
    --------------------------------------------
      LOOP:  cpu time    5.80: real time    5.81

 eigenvalue-minimisations  :  3192
 total energy-change (2. order) :-0.3559521E-02  (-0.9180176E-02)
 number of electron     107.0000002 magnetization 
 augmentation part        6.9046668 magnetization 

 Broyden mixing:
  rms(total) = 0.42753E-01    rms(broyden)= 0.42726E-01
  rms(prec ) = 0.46827E-01
  weight for this iteration     100.00

 eigenvalues of (default mixing * dielectric matrix)
  average eigenvalue GAMMA=   1.2425
  2.4913  1.3842  0.9443  0.6965  0.6965

 Free energy of the ion-electron system (eV)
  ---------------------------------------------------
  alpha Z        PSCENC =       152.42543195
  Ewald energy   TEWEN  =     10953.23886803
  -Hartree energ DENC   =    -16837.00179193
  -exchange      EXHF   =         0.00000000
  -V(xc)+E(xc)   XCENC  =      -346.27956014
  PAW double counting   =      6664.29063010    -5944.59281498
  entropy T*S    EENTRO =        -0.00763994
  eigenvalues    EBANDS =      -155.12528681
  atomic energy  EATOM  =      5361.07568887
  ---------------------------------------------------
  free energy    TOTEN  =      -151.97647484 eV

  energy without entropy =     -151.96883490  energy(sigma->0) =     -151.97265487


--------------------------------------------------------------------------------------------------------




----------------------------------------- Iteration    1(  11)  ---------------------------------------


    POTLOK:  cpu time    0.10: real time    0.10
    SETDIJ:  cpu time    0.10: real time    0.10
     EDDAV:  cpu time    5.59: real time    5.59
       DOS:  cpu time    0.00: real time    0.00
    CHARGE:  cpu time    0.41: real time    0.41
    MIXING:  cpu time    0.00: real time    0.00
    --------------------------------------------
      LOOP:  cpu time    6.21: real time    6.22

 eigenvalue-minimisations  :  3512
 total energy-change (2. order) : 0.3214079E-02  (-0.1310043E-02)
 number of electron     107.0000002 magnetization 
 augmentation part        6.9137629 magnetization 

 Broyden mixing:
  rms(total) = 0.24236E-01    rms(broyden)= 0.24236E-01
  rms(prec ) = 0.25663E-01
  weight for this iteration     100.00

 eigenvalues of (default mixing * dielectric matrix)
  average eigenvalue GAMMA=   1.3324
  2.5489  1.7080  1.0619  1.0055  1.0055  0.6647

 Free energy of the ion-electron system (eV)
  ---------------------------------------------------
  alpha Z        PSCENC =       152.42543195
  Ewald energy   TEWEN  =     10953.23886803
  -Hartree energ DENC   =    -16835.87215595
  -exchange      EXHF   =         0.00000000
  -V(xc)+E(xc)   XCENC  =      -346.31954041
  PAW double counting   =      6654.74542673    -5935.03456952
  entropy T*S    EENTRO =        -0.00732998
  eigenvalues    EBANDS =      -156.22508049
  atomic energy  EATOM  =      5361.07568887
  ---------------------------------------------------
  free energy    TOTEN  =      -151.97326076 eV

  energy without entropy =     -151.96593078  energy(sigma->0) =     -151.96959577


--------------------------------------------------------------------------------------------------------




----------------------------------------- Iteration    1(  12)  ---------------------------------------


    POTLOK:  cpu time    0.10: real time    0.10
    SETDIJ:  cpu time    0.10: real time    0.10
     EDDAV:  cpu time    5.44: real time    5.45
       DOS:  cpu time    0.00: real time    0.00
    CHARGE:  cpu time    0.41: real time    0.41
    MIXING:  cpu time    0.00: real time    0.00
    --------------------------------------------
      LOOP:  cpu time    6.06: real time    6.07

 eigenvalue-minimisations  :  3276
 total energy-change (2. order) :-0.1289932E-03  (-0.1295205E-02)
 number of electron     107.0000002 magnetization 
 augmentation part        6.9155413 magnetization 

 Broyden mixing:
  rms(total) = 0.15509E-01    rms(broyden)= 0.15496E-01
  rms(prec ) = 0.16741E-01
  weight for this iteration     100.00

 eigenvalues of (default mixing * dielectric matrix)
  average eigenvalue GAMMA=   1.3705
  2.8045  2.4958  0.8944  0.8944  0.9443  0.9443  0.6153

 Free energy of the ion-electron system (eV)
  ---------------------------------------------------
  alpha Z        PSCENC =       152.42543195
  Ewald energy   TEWEN  =     10953.23886803
  -Hartree energ DENC   =    -16835.55300911
  -exchange      EXHF   =         0.00000000
  -V(xc)+E(xc)   XCENC  =      -346.27778030
  PAW double counting   =      6630.34402809    -5910.64291953
  entropy T*S    EENTRO =        -0.00718604
  eigenvalues    EBANDS =      -156.57651171
  atomic energy  EATOM  =      5361.07568887
  ---------------------------------------------------
  free energy    TOTEN  =      -151.97338975 eV

  energy without entropy =     -151.96620371  energy(sigma->0) =     -151.96979673


--------------------------------------------------------------------------------------------------------




----------------------------------------- Iteration    1(  13)  ---------------------------------------


    POTLOK:  cpu time    0.10: real time    0.10
    SETDIJ:  cpu time    0.10: real time    0.11
     EDDAV:  cpu time    6.51: real time    6.53
       DOS:  cpu time    0.00: real time    0.00
    CHARGE:  cpu time    0.41: real time    0.41
    MIXING:  cpu time    0.00: real time    0.00
    --------------------------------------------
      LOOP:  cpu time    7.14: real time    7.15

 eigenvalue-minimisations  :  4260
 total energy-change (2. order) : 0.5776050E-03  (-0.1458580E-03)
 number of electron     107.0000002 magnetization 
 augmentation part        6.9179178 magnetization 

 Broyden mixing:
  rms(total) = 0.75113E-02    rms(broyden)= 0.75107E-02
  rms(prec ) = 0.90496E-02
  weight for this iteration     100.00

 eigenvalues of (default mixing * dielectric matrix)
  average eigenvalue GAMMA=   1.3451
  2.8936  2.4670  0.9524  0.9524  1.0036  0.9306  0.9306  0.6310

 Free energy of the ion-electron system (eV)
  ---------------------------------------------------
  alpha Z        PSCENC =       152.42543195
  Ewald energy   TEWEN  =     10953.23886803
  -Hartree energ DENC   =    -16834.98884751
  -exchange      EXHF   =         0.00000000
  -V(xc)+E(xc)   XCENC  =      -346.27777399
  PAW double counting   =      6613.37454088    -5893.67416173
  entropy T*S    EENTRO =        -0.00714995
  eigenvalues    EBANDS =      -157.13940871
  atomic energy  EATOM  =      5361.07568887
  ---------------------------------------------------
  free energy    TOTEN  =      -151.97281215 eV

  energy without entropy =     -151.96566220  energy(sigma->0) =     -151.96923717


--------------------------------------------------------------------------------------------------------




----------------------------------------- Iteration    1(  14)  ---------------------------------------


    POTLOK:  cpu time    0.10: real time    0.10
    SETDIJ:  cpu time    0.10: real time    0.10
     EDDAV:  cpu time    5.65: real time    5.65
       DOS:  cpu time    0.00: real time    0.00
    CHARGE:  cpu time    0.42: real time    0.42
    MIXING:  cpu time    0.01: real time    0.01
    --------------------------------------------
      LOOP:  cpu time    6.28: real time    6.29

 eigenvalue-minimisations  :  3416
 total energy-change (2. order) : 0.1723072E-03  (-0.1094384E-03)
 number of electron     107.0000002 magnetization 
 augmentation part        6.9172158 magnetization 

 Broyden mixing:
  rms(total) = 0.21126E-02    rms(broyden)= 0.21062E-02
  rms(prec ) = 0.49614E-02
  weight for this iteration     100.00

 eigenvalues of (default mixing * dielectric matrix)
  average eigenvalue GAMMA=   1.3414
  2.9420  2.5398  0.9079  0.9079  1.1474  1.1474  0.9215  0.9215  0.6376

 Free energy of the ion-electron system (eV)
  ---------------------------------------------------
  alpha Z        PSCENC =       152.42543195
  Ewald energy   TEWEN  =     10953.23886803
  -Hartree energ DENC   =    -16834.80822071
  -exchange      EXHF   =         0.00000000
  -V(xc)+E(xc)   XCENC  =      -346.27430315
  PAW double counting   =      6612.79439525    -5893.09430943
  entropy T*S    EENTRO =        -0.00713155
  eigenvalues    EBANDS =      -157.32305911
  atomic energy  EATOM  =      5361.07568887
  ---------------------------------------------------
  free energy    TOTEN  =      -151.97263984 eV

  energy without entropy =     -151.96550829  energy(sigma->0) =     -151.96907407


--------------------------------------------------------------------------------------------------------




----------------------------------------- Iteration    1(  15)  ---------------------------------------


    POTLOK:  cpu time    0.11: real time    0.11
    SETDIJ:  cpu time    0.11: real time    0.11
     EDDAV:  cpu time    6.13: real time    6.14
       DOS:  cpu time    0.00: real time    0.00
    CHARGE:  cpu time    0.42: real time    0.42
    MIXING:  cpu time    0.00: real time    0.00
    --------------------------------------------
      LOOP:  cpu time    6.77: real time    6.78

 eigenvalue-minimisations  :  3916
 total energy-change (2. order) : 0.2658616E-03  (-0.1901488E-04)
 number of electron     107.0000002 magnetization 
 augmentation part        6.9178236 magnetization 

 Broyden mixing:
  rms(total) = 0.26372E-02    rms(broyden)= 0.26370E-02
  rms(prec ) = 0.43913E-02
  weight for this iteration     100.00

 eigenvalues of (default mixing * dielectric matrix)
  average eigenvalue GAMMA=   1.4382
  2.9743  2.5959  2.5959  0.9192  0.9192  0.9886  0.9886  0.8815  0.8815  0.6374

 Free energy of the ion-electron system (eV)
  ---------------------------------------------------
  alpha Z        PSCENC =       152.42543195
  Ewald energy   TEWEN  =     10953.23886803
  -Hartree energ DENC   =    -16834.23793302
  -exchange      EXHF   =         0.00000000
  -V(xc)+E(xc)   XCENC  =      -346.28021824
  PAW double counting   =      6611.75623703    -5892.05357158
  entropy T*S    EENTRO =        -0.00707868
  eigenvalues    EBANDS =      -157.88979836
  atomic energy  EATOM  =      5361.07568887
  ---------------------------------------------------
  free energy    TOTEN  =      -151.97237398 eV

  energy without entropy =     -151.96529530  energy(sigma->0) =     -151.96883464


--------------------------------------------------------------------------------------------------------




----------------------------------------- Iteration    1(  16)  ---------------------------------------


    POTLOK:  cpu time    0.10: real time    0.10
    SETDIJ:  cpu time    0.10: real time    0.10
     EDDAV:  cpu time    6.31: real time    6.32
       DOS:  cpu time    0.00: real time    0.00
    CHARGE:  cpu time    0.42: real time    0.42
    MIXING:  cpu time    0.00: real time    0.00
    --------------------------------------------
      LOOP:  cpu time    6.94: real time    6.95

 eigenvalue-minimisations  :  4032
 total energy-change (2. order) : 0.2236303E-03  (-0.2209239E-04)
 number of electron     107.0000002 magnetization 
 augmentation part        6.9174635 magnetization 

 Broyden mixing:
  rms(total) = 0.24101E-02    rms(broyden)= 0.24097E-02
  rms(prec ) = 0.36595E-02
  weight for this iteration     100.00

 eigenvalues of (default mixing * dielectric matrix)
  average eigenvalue GAMMA=   1.4739
  3.4427  2.8398  2.4681  0.9262  0.9262  1.0485  1.0485  0.9963  0.9401  0.9401
  0.6368

 Free energy of the ion-electron system (eV)
  ---------------------------------------------------
  alpha Z        PSCENC =       152.42543195
  Ewald energy   TEWEN  =     10953.23886803
  -Hartree energ DENC   =    -16833.82460391
  -exchange      EXHF   =         0.00000000
  -V(xc)+E(xc)   XCENC  =      -346.27401753
  PAW double counting   =      6614.39174693    -5894.68837571
  entropy T*S    EENTRO =        -0.00704043
  eigenvalues    EBANDS =      -158.30984855
  atomic energy  EATOM  =      5361.07568887
  ---------------------------------------------------
  free energy    TOTEN  =      -151.97215035 eV

  energy without entropy =     -151.96510992  energy(sigma->0) =     -151.96863014


--------------------------------------------------------------------------------------------------------




----------------------------------------- Iteration    1(  17)  ---------------------------------------


    POTLOK:  cpu time    0.11: real time    0.11
    SETDIJ:  cpu time    0.10: real time    0.11
     EDDAV:  cpu time    6.33: real time    6.34
       DOS:  cpu time    0.00: real time    0.00
    CHARGE:  cpu time    0.41: real time    0.42
    MIXING:  cpu time    0.00: real time    0.01
    --------------------------------------------
      LOOP:  cpu time    6.97: real time    6.98

 eigenvalue-minimisations  :  4060
 total energy-change (2. order) : 0.1292390E-03  (-0.2748485E-04)
 number of electron     107.0000002 magnetization 
 augmentation part        6.9169499 magnetization 

 Broyden mixing:
  rms(total) = 0.11378E-02    rms(broyden)= 0.11366E-02
  rms(prec ) = 0.24267E-02
  weight for this iteration     100.00

 eigenvalues of (default mixing * dielectric matrix)
  average eigenvalue GAMMA=   1.5338
  4.1150  2.9296  2.4691  1.6967  0.9173  0.9173  1.0228  1.0228  0.6379  0.9183
  0.9183  0.8403

 Free energy of the ion-electron system (eV)
  ---------------------------------------------------
  alpha Z        PSCENC =       152.42543195
  Ewald energy   TEWEN  =     10953.23886803
  -Hartree energ DENC   =    -16833.47461673
  -exchange      EXHF   =         0.00000000
  -V(xc)+E(xc)   XCENC  =      -346.26863995
  PAW double counting   =      6614.43589108    -5894.73388283
  entropy T*S    EENTRO =        -0.00701807
  eigenvalues    EBANDS =      -158.66374348
  atomic energy  EATOM  =      5361.07568887
  ---------------------------------------------------
  free energy    TOTEN  =      -151.97202111 eV

  energy without entropy =     -151.96500305  energy(sigma->0) =     -151.96851208


--------------------------------------------------------------------------------------------------------




----------------------------------------- Iteration    1(  18)  ---------------------------------------


    POTLOK:  cpu time    0.10: real time    0.10
    SETDIJ:  cpu time    0.10: real time    0.10
     EDDAV:  cpu time    6.42: real time    6.43
       DOS:  cpu time    0.00: real time    0.00
    CHARGE:  cpu time    0.41: real time    0.41
    MIXING:  cpu time    0.01: real time    0.01
    --------------------------------------------
      LOOP:  cpu time    7.04: real time    7.05

 eigenvalue-minimisations  :  4156
 total energy-change (2. order) : 0.1039503E-03  (-0.1460570E-04)
 number of electron     107.0000002 magnetization 
 augmentation part        6.9170350 magnetization 

 Broyden mixing:
  rms(total) = 0.10083E-02    rms(broyden)= 0.10075E-02
  rms(prec ) = 0.18641E-02
  weight for this iteration     100.00

 eigenvalues of (default mixing * dielectric matrix)
  average eigenvalue GAMMA=   1.7218
  5.9579  2.7610  2.6742  2.4196  0.9166  0.9166  1.1930  1.1930  0.6373  0.8973
  0.8973  1.0228  0.8967

 Free energy of the ion-electron system (eV)
  ---------------------------------------------------
  alpha Z        PSCENC =       152.42543195
  Ewald energy   TEWEN  =     10953.23886803
  -Hartree energ DENC   =    -16832.98044378
  -exchange      EXHF   =         0.00000000
  -V(xc)+E(xc)   XCENC  =      -346.26896047
  PAW double counting   =      6614.57037274    -5894.86819013
  entropy T*S    EENTRO =        -0.00699218
  eigenvalues    EBANDS =      -159.15769219
  atomic energy  EATOM  =      5361.07568887
  ---------------------------------------------------
  free energy    TOTEN  =      -151.97191716 eV

  energy without entropy =     -151.96492498  energy(sigma->0) =     -151.96842107


--------------------------------------------------------------------------------------------------------




----------------------------------------- Iteration    1(  19)  ---------------------------------------


    POTLOK:  cpu time    0.10: real time    0.10
    SETDIJ:  cpu time    0.10: real time    0.10
     EDDAV:  cpu time    6.24: real time    6.25
       DOS:  cpu time    0.00: real time    0.00
    CHARGE:  cpu time    0.42: real time    0.42
    MIXING:  cpu time    0.01: real time    0.01
    --------------------------------------------
      LOOP:  cpu time    6.87: real time    6.88

 eigenvalue-minimisations  :  3908
 total energy-change (2. order) : 0.5679063E-04  (-0.1574125E-04)
 number of electron     107.0000002 magnetization 
 augmentation part        6.9171271 magnetization 

 Broyden mixing:
  rms(total) = 0.97432E-03    rms(broyden)= 0.97406E-03
  rms(prec ) = 0.15134E-02
  weight for this iteration     100.00

 eigenvalues of (default mixing * dielectric matrix)
  average eigenvalue GAMMA=   1.7032
  6.6913  2.9033  2.6369  2.5036  0.9193  0.9193  1.1910  1.1910  1.0253  0.8909
  0.8909  0.8923  0.6371  0.5532

 Free energy of the ion-electron system (eV)
  ---------------------------------------------------
  alpha Z        PSCENC =       152.42543195
  Ewald energy   TEWEN  =     10953.23886803
  -Hartree energ DENC   =    -16832.61692933
  -exchange      EXHF   =         0.00000000
  -V(xc)+E(xc)   XCENC  =      -346.26834754
  PAW double counting   =      6614.16088374    -5894.45874927
  entropy T*S    EENTRO =        -0.00697786
  eigenvalues    EBANDS =      -159.52172896
  atomic energy  EATOM  =      5361.07568887
  ---------------------------------------------------
  free energy    TOTEN  =      -151.97186037 eV

  energy without entropy =     -151.96488251  energy(sigma->0) =     -151.96837144


--------------------------------------------------------------------------------------------------------




----------------------------------------- Iteration    1(  20)  ---------------------------------------


    POTLOK:  cpu time    0.11: real time    0.11
    SETDIJ:  cpu time    0.11: real time    0.11
     EDDAV:  cpu time    5.65: real time    5.66
       DOS:  cpu time    0.00: real time    0.00
    CHARGE:  cpu time    0.41: real time    0.41
    MIXING:  cpu time    0.01: real time    0.01
    --------------------------------------------
      LOOP:  cpu time    6.28: real time    6.29

 eigenvalue-minimisations  :  3524
 total energy-change (2. order) : 0.3126775E-04  (-0.1439018E-04)
 number of electron     107.0000002 magnetization 
 augmentation part        6.9173654 magnetization 

 Broyden mixing:
  rms(total) = 0.73301E-03    rms(broyden)= 0.73255E-03
  rms(prec ) = 0.11115E-02
  weight for this iteration     100.00

 eigenvalues of (default mixing * dielectric matrix)
  average eigenvalue GAMMA=   1.6840
  6.5110  3.2212  2.6823  2.3705  1.1704  1.1704  1.0643  0.6373  0.8719  0.9038
  0.9038  0.9782  0.9782  0.8986  0.8986

 Free energy of the ion-electron system (eV)
  ---------------------------------------------------
  alpha Z        PSCENC =       152.42543195
  Ewald energy   TEWEN  =     10953.23886803
  -Hartree energ DENC   =    -16832.47566503
  -exchange      EXHF   =         0.00000000
  -V(xc)+E(xc)   XCENC  =      -346.26960517
  PAW double counting   =      6614.15101715    -5894.44878337
  entropy T*S    EENTRO =        -0.00697483
  eigenvalues    EBANDS =      -159.66180671
  atomic energy  EATOM  =      5361.07568887
  ---------------------------------------------------
  free energy    TOTEN  =      -151.97182910 eV

  energy without entropy =     -151.96485427  energy(sigma->0) =     -151.96834169


--------------------------------------------------------------------------------------------------------




----------------------------------------- Iteration    1(  21)  ---------------------------------------


    POTLOK:  cpu time    0.11: real time    0.11
    SETDIJ:  cpu time    0.11: real time    0.11
     EDDAV:  cpu time    5.03: real time    5.03
       DOS:  cpu time    0.00: real time    0.00
    CHARGE:  cpu time    0.41: real time    0.41
    MIXING:  cpu time    0.01: real time    0.01
    --------------------------------------------
      LOOP:  cpu time    5.66: real time    5.67

 eigenvalue-minimisations  :  3072
 total energy-change (2. order) : 0.2546026E-04  (-0.4663293E-05)
 number of electron     107.0000002 magnetization 
 augmentation part        6.9172590 magnetization 

 Broyden mixing:
  rms(total) = 0.94767E-03    rms(broyden)= 0.94743E-03
  rms(prec ) = 0.11031E-02
  weight for this iteration     100.00

 eigenvalues of (default mixing * dielectric matrix)
  average eigenvalue GAMMA=   2.0093
  9.0098  5.2045  2.8804  2.3273  2.3273  0.9190  0.9190  1.2379  1.2379  0.9527
  0.9527  0.9651  0.9651  0.6373  0.8254  0.7870

 Free energy of the ion-electron system (eV)
  ---------------------------------------------------
  alpha Z        PSCENC =       152.42543195
  Ewald energy   TEWEN  =     10953.23886803
  -Hartree energ DENC   =    -16832.36397999
  -exchange      EXHF   =         0.00000000
  -V(xc)+E(xc)   XCENC  =      -346.26869887
  PAW double counting   =      6615.05065124    -5895.34845937
  entropy T*S    EENTRO =        -0.00697653
  eigenvalues    EBANDS =      -159.77432897
  atomic energy  EATOM  =      5361.07568887
  ---------------------------------------------------
  free energy    TOTEN  =      -151.97180364 eV

  energy without entropy =     -151.96482711  energy(sigma->0) =     -151.96831538


--------------------------------------------------------------------------------------------------------




----------------------------------------- Iteration    1(  22)  ---------------------------------------


    POTLOK:  cpu time    0.10: real time    0.10
    SETDIJ:  cpu time    0.11: real time    0.11
     EDDAV:  cpu time    4.66: real time    4.67
       DOS:  cpu time    0.00: real time    0.00
    CHARGE:  cpu time    0.41: real time    0.41
    MIXING:  cpu time    0.01: real time    0.01
    --------------------------------------------
      LOOP:  cpu time    5.29: real time    5.30

 eigenvalue-minimisations  :  2696
 total energy-change (2. order) : 0.1515307E-04  (-0.3409585E-05)
 number of electron     107.0000002 magnetization 
 augmentation part        6.9171151 magnetization 

 Broyden mixing:
  rms(total) = 0.78065E-03    rms(broyden)= 0.78049E-03
  rms(prec ) = 0.82498E-03
  weight for this iteration     100.00

 eigenvalues of (default mixing * dielectric matrix)
  average eigenvalue GAMMA=   2.2512
 13.0418  5.8599  2.7895  2.2520  2.1619  0.9183  0.9183  1.3873  1.2250  1.2250
  1.1826  1.1826  0.6373  0.8991  0.8991  0.8812  0.8091

 Free energy of the ion-electron system (eV)
  ---------------------------------------------------
  alpha Z        PSCENC =       152.42543195
  Ewald energy   TEWEN  =     10953.23886803
  -Hartree energ DENC   =    -16832.15471506
  -exchange      EXHF   =         0.00000000
  -V(xc)+E(xc)   XCENC  =      -346.26697235
  PAW double counting   =      6614.92568016    -5895.22369302
  entropy T*S    EENTRO =        -0.00697305
  eigenvalues    EBANDS =      -159.98510403
  atomic energy  EATOM  =      5361.07568887
  ---------------------------------------------------
  free energy    TOTEN  =      -151.97178849 eV

  energy without entropy =     -151.96481544  energy(sigma->0) =     -151.96830197


--------------------------------------------------------------------------------------------------------




----------------------------------------- Iteration    1(  23)  ---------------------------------------


    POTLOK:  cpu time    0.10: real time    0.10
    SETDIJ:  cpu time    0.10: real time    0.10
     EDDAV:  cpu time    5.23: real time    5.24
       DOS:  cpu time    0.00: real time    0.00
    CHARGE:  cpu time    0.42: real time    0.42
    MIXING:  cpu time    0.01: real time    0.01
    --------------------------------------------
      LOOP:  cpu time    5.86: real time    5.87

 eigenvalue-minimisations  :  3088
 total energy-change (2. order) :-0.9194734E-05  (-0.1209354E-04)
 number of electron     107.0000002 magnetization 
 augmentation part        6.9170847 magnetization 

 Broyden mixing:
  rms(total) = 0.70248E-03    rms(broyden)= 0.70220E-03
  rms(prec ) = 0.72022E-03
  weight for this iteration     100.00

 eigenvalues of (default mixing * dielectric matrix)
  average eigenvalue GAMMA=   2.2302
 14.4873  5.9021  2.7882  2.2792  2.0235  1.5706  1.5706  0.9184  0.9184  1.1518
  1.1518  0.6373  1.0652  0.8984  0.8984  0.9010  0.7977  0.1840

 Free energy of the ion-electron system (eV)
  ---------------------------------------------------
  alpha Z        PSCENC =       152.42543195
  Ewald energy   TEWEN  =     10953.23886803
  -Hartree energ DENC   =    -16832.02613410
  -exchange      EXHF   =         0.00000000
  -V(xc)+E(xc)   XCENC  =      -346.26844905
  PAW double counting   =      6614.91570356    -5895.21328902
  entropy T*S    EENTRO =        -0.00697152
  eigenvalues    EBANDS =      -160.11264640
  atomic energy  EATOM  =      5361.07568887
  ---------------------------------------------------
  free energy    TOTEN  =      -151.97179768 eV

  energy without entropy =     -151.96482616  energy(sigma->0) =     -151.96831192


--------------------------------------------------------------------------------------------------------




----------------------------------------- Iteration    1(  24)  ---------------------------------------


    POTLOK:  cpu time    0.11: real time    0.11
    SETDIJ:  cpu time    0.11: real time    0.11
     EDDAV:  cpu time    4.82: real time    4.83
       DOS:  cpu time    0.00: real time    0.00
    --------------------------------------------
      LOOP:  cpu time    5.04: real time    5.05

 eigenvalue-minimisations  :  2824
 total energy-change (2. order) :-0.5810161E-05  (-0.6398832E-05)
 number of electron     107.0000002 magnetization 
 augmentation part        6.9170847 magnetization 

 Free energy of the ion-electron system (eV)
  ---------------------------------------------------
  alpha Z        PSCENC =       152.42543195
  Ewald energy   TEWEN  =     10953.23886803
  -Hartree energ DENC   =    -16832.01227612
  -exchange      EXHF   =         0.00000000
  -V(xc)+E(xc)   XCENC  =      -346.26921886
  PAW double counting   =      6614.77449282    -5895.07189163
  entropy T*S    EENTRO =        -0.00697114
  eigenvalues    EBANDS =      -160.12592744
  atomic energy  EATOM  =      5361.07568887
  ---------------------------------------------------
  free energy    TOTEN  =      -151.97180349 eV

  energy without entropy =     -151.96483236  energy(sigma->0) =     -151.96831792


--------------------------------------------------------------------------------------------------------




 average (electrostatic) potential at core
  the test charge radii are     0.7215  1.0714  1.0406
  (the norm of the test charge is              1.0000)
[...]
     23       0.2117      2.00000
     24       0.3388      2.00000
     25       0.4921      2.00000
     26       0.6343      2.00000
     27       0.7823      2.00000
     28       0.8429      2.00000
     29       0.8972      2.00000
     30       0.9486      2.00000
     31       1.0129      2.00000
     32       1.0711      2.00000
     33       1.0865      2.00000
     34       1.1793      2.00000
     35       1.2543      2.00000
     36       1.3269      2.00000
     37       1.4852      2.00000
     38       1.6203      2.00000
     39       1.6906      2.00000
     40       1.7461      2.00000
     41       1.7529      2.00000
     42       1.8457      2.00000
     43       1.9004      2.00000
     44       1.9958      2.00000
     45       2.0740      2.00000
     46       2.1192      2.00000
     47       2.6505      2.00000
     48       3.4783      2.00000
     49       4.5500      2.00000
     50       4.9664      2.00000
     51       5.2020      2.00000
     52       5.5234      2.00000
     53       6.0541      2.00000
     54       6.5484      2.00000
     55       6.6406      1.99999
     56       6.7810      1.32945
     57       7.2361      0.00000
     58       7.6067      0.00000
     59       7.7394      0.00000
     60       8.3390      0.00000
     61       9.0490      0.00000
     62       9.1591      0.00000
     63       9.3888      0.00000
     64      10.2031      0.00000
     65      10.4560      0.00000
     66      10.8175      0.00000
     67      11.5617      0.00000
     68      11.7624      0.00000

 k-point    20 :       0.3846    0.2308    0.0000
  band No.  band energies     occupation 
      1     -12.8208      2.00000
      2     -12.8042      2.00000
      3     -12.7911      2.00000
      4     -12.7769      2.00000
      5     -12.7602      2.00000
      6     -12.7407      2.00000
      7     -12.7227      2.00000
      8     -12.7047      2.00000
      9     -12.6959      2.00000
     10     -12.5470      2.00000
     11     -12.5241      2.00000
     12      -0.9453      2.00000
     13      -0.8693      2.00000
     14      -0.7747      2.00000
     15      -0.6555      2.00000
     16      -0.5362      2.00000
     17      -0.5170      2.00000
     18      -0.4842      2.00000
     19      -0.4452      2.00000
     20      -0.4411      2.00000
     21      -0.3966      2.00000
     22      -0.3896      2.00000
     23       0.4273      2.00000
     24       0.4517      2.00000
     25       0.4948      2.00000
     26       0.5477      2.00000
     27       0.5621      2.00000
     28       0.5923      2.00000
     29       0.6120      2.00000
     30       0.7125      2.00000
     31       0.8725      2.00000
     32       1.0133      2.00000
     33       1.1134      2.00000
     34       1.1974      2.00000
     35       1.2176      2.00000
     36       1.4825      2.00000
     37       1.5140      2.00000
     38       1.5843      2.00000
     39       1.6067      2.00000
     40       1.7128      2.00000
     41       1.8329      2.00000
     42       1.9008      2.00000
     43       1.9292      2.00000
     44       1.9431      2.00000
     45       3.2069      2.00000
     46       3.2402      2.00000
     47       3.4677      2.00000
     48       3.5534      2.00000
     49       3.9457      2.00000
     50       4.1087      2.00000
     51       4.7078      2.00000
     52       4.9482      2.00000
     53       5.8510      2.00000
     54       6.2708      2.00000
     55       6.4458      2.00000
     56       6.6591      1.99989
     57       6.8675      0.04337
     58       7.4173      0.00000
     59       7.8223      0.00000
     60       8.2510      0.00000
     61       8.7041      0.00000
     62       8.8133      0.00000
     63       9.2034      0.00000
     64      10.2659      0.00000
     65      10.4479      0.00000
     66      10.4593      0.00000
     67      11.5059      0.00000
     68      11.8024      0.00000

 k-point    21 :       0.3077    0.3077   -0.0000
  band No.  band energies     occupation 
      1     -12.7875      2.00000
      2     -12.7728      2.00000
      3     -12.7624      2.00000
      4     -12.7515      2.00000
      5     -12.7400      2.00000
      6     -12.7270      2.00000
      7     -12.7162      2.00000
      8     -12.7036      2.00000
      9     -12.6941      2.00000
     10     -12.5300      2.00000
     11     -12.5070      2.00000
     12      -0.5919      2.00000
     13      -0.5853      2.00000
     14      -0.5350      2.00000
     15      -0.5060      2.00000
     16      -0.4636      2.00000
     17      -0.4114      2.00000
     18      -0.3890      2.00000
     19      -0.2777      2.00000
     20      -0.1832      2.00000
     21      -0.1288      2.00000
     22      -0.0952      2.00000
     23      -0.0151      2.00000
     24       0.1048      2.00000
     25       0.1800      2.00000
     26       0.2331      2.00000
     27       0.3156      2.00000
     28       0.3710      2.00000
     29       0.4137      2.00000
     30       0.5356      2.00000
     31       0.5468      2.00000
     32       0.6619      2.00000
     33       0.6663      2.00000
     34       1.1982      2.00000
     35       1.2190      2.00000
     36       1.4838      2.00000
     37       1.5992      2.00000
     38       1.6826      2.00000
     39       1.6989      2.00000
     40       1.7238      2.00000
     41       1.7573      2.00000
     42       1.7602      2.00000
     43       1.8238      2.00000
     44       1.9021      2.00000
     45       3.1040      2.00000
     46       3.4014      2.00000
     47       3.8980      2.00000
     48       4.6481      2.00000
     49       4.7047      2.00000
     50       4.7649      2.00000
     51       4.9557      2.00000
     52       4.9909      2.00000
     53       5.3769      2.00000
     54       5.4658      2.00000
     55       5.6640      2.00000
     56       6.1488      2.00000
     57       6.7865      1.21440
     58       7.4078      0.00000
     59       7.5531      0.00000
     60       7.7992      0.00000
     61       8.5454      0.00000
     62       8.8576      0.00000
     63       8.9310      0.00000
     64       9.9752      0.00000
     65      10.0011      0.00000
     66      10.4133      0.00000
     67      11.5849      0.00000
     68      11.5922      0.00000


--------------------------------------------------------------------------------------------------------


 soft charge-density along one line, spin component           1
         0         1         2         3         4         5         6         7         8         9
 total charge-density along one line
 
 pseudopotential strength for first ion, spin component:           1
 12.134   0.000 -14.761   0.000  -0.000   0.000  -0.007   0.000   0.000   0.000   0.000   0.000   0.008   0.000  -0.000   0.000
-14.761   0.000  17.975   0.000   0.000   0.000   0.008   0.000  -0.000   0.000  -0.000   0.000  -0.011   0.000   0.000   0.000
 -0.000   0.000   0.000   0.000  -8.276   0.000  -0.000   0.000   0.000   0.000   9.902   0.000   0.000   0.000  -0.000   0.000
 -0.007   0.000   0.008   0.000  -0.000   0.000  -8.288   0.000   0.000   0.000   0.000   0.000   9.919   0.000  -0.000   0.000
  0.000   0.000  -0.000   0.000   0.000   0.000   0.000   0.000  -8.276   0.000  -0.000   0.000  -0.000   0.000   9.902   0.000
  0.000   0.000  -0.000   0.000   9.902   0.000   0.000   0.000  -0.000   0.000 -11.685   0.000  -0.000   0.000   0.000   0.000
  0.008   0.000  -0.011   0.000   0.000   0.000   9.919   0.000  -0.000   0.000  -0.000   0.000 -11.708   0.000   0.000   0.000
 -0.000   0.000   0.000   0.000  -0.000   0.000  -0.000   0.000   9.902   0.000   0.000   0.000   0.000   0.000 -11.685   0.000
 total augmentation occupancy for first ion, spin component:           1
  2.514   0.320   0.000   0.038  -0.000   0.000   0.005  -0.000
  0.320   0.083  -0.000   0.021  -0.000   0.000  -0.008   0.000
  0.000  -0.000   2.062  -0.000  -0.000   0.230   0.000  -0.000
  0.038   0.021  -0.000   2.055  -0.000   0.000   0.240  -0.000
 -0.000  -0.000  -0.000  -0.000   2.062  -0.000  -0.000   0.230
 -0.000   0.000   0.230   0.000  -0.000   0.030   0.000  -0.000
  0.005  -0.008   0.000   0.240  -0.000   0.000   0.035  -0.000
 -0.000   0.000  -0.000  -0.000   0.230  -0.000  -0.000   0.030


------------------------ aborting loop because EDIFF is reached ----------------------------------------


    CHARGE:  cpu time    0.40: real time    0.40
    FORLOC:  cpu time    0.03: real time    0.03
    FORNL :  cpu time    3.41: real time    3.42
    STRESS:  cpu time    4.30: real time    4.30
    FORCOR:  cpu time    0.13: real time    0.13
    FORHAR:  cpu time    0.06: real time    0.06
    MIXING:  cpu time    0.00: real time    0.00
    OFIELD:  cpu time    0.00: real time    0.00

  FORCE on cell =-STRESS in cart. coord.  units (eV):
  Direction    XX          YY          ZZ          XY          YZ          ZX
  --------------------------------------------------------------------------------------
  Alpha Z   152.42543   152.42543   152.42543
  Ewald   14680.09354 14680.09404-17576.32914    -0.00017     0.00001    -0.00014
  Hartree 16628.62337 16628.62328-15596.72071    -0.00000     0.00000     0.00004
  E(xc)    -449.97754  -449.97755  -449.64538    -0.00000     0.00000    -0.00000
  Local  -32647.70700-32647.70643 31840.86618    -0.00019    -0.00001     0.00004
  n-local   -75.51934   -91.58251   -83.55502     3.46081    -1.59785     4.60828
  augment    66.90729    66.90703    65.86061     0.00019    -0.00000     0.00000
  Kinetic  1653.31478  1642.40258  1627.61564    -2.16127     0.05689     0.19448
  Fock        0.00000     0.00000     0.00000     0.00000     0.00000     0.00000
  -------------------------------------------------------------------------------------
  Total      -5.32680    -5.32680   -19.48240     0.00000     0.00000     0.00000
  in kB     -25.76102   -25.76101   -94.21907     0.00000     0.00000     0.00000
  external pressure =      -48.58 kB  Pullay stress =        0.00 kB


 VOLUME and BASIS-vectors are now :
 -----------------------------------------------------------------------------
  energy-cutoff  :      520.00
  volume of cell :      331.29
      direct lattice vectors                 reciprocal lattice vectors
     2.575303410 -1.486851677  0.000000000     0.388303761  0.000000000  0.000000000
     0.000000000  2.973703354  0.000000000     0.194151881  0.336281021  0.000000000
    -0.000000000  0.000000000 43.260163446     0.000000000  0.000000000  0.023115955

  length of vectors
     2.973704014  2.973703354 43.260163446     0.388303761  0.388303847  0.023115955


 FORCES acting on ions
    electron-ion (+dipol)            ewald-force                    non-local-force                 convergence-correction
 -----------------------------------------------------------------------------------------------
   0.587E-03 -.102E-02 0.122E+04   0.497E-04 -.582E-04 -.122E+04   -.427E-16 0.416E-16 0.265E+01   0.916E-08 -.174E-07 -.898E-01
   -.471E-03 0.815E-03 0.741E+03   -.812E-07 0.946E-07 -.741E+03   -.955E-18 -.678E-19 0.466E-01   -.988E-08 0.167E-07 -.633E-01
   0.583E-03 -.101E-02 0.495E+03   0.538E-04 -.932E-04 -.495E+03   -.422E-18 -.271E-19 0.193E-01   0.853E-10 -.453E-09 -.556E-01
   -.471E-03 0.815E-03 0.107E-01   0.450E-08 -.507E-08 -.140E-02   0.963E-21 0.169E-20 0.000E+00   -.109E-07 0.190E-07 -.188E-03
   0.583E-03 -.101E-02 -.248E+03   0.539E-04 -.934E-04 0.248E+03   -.135E-18 0.000E+00 0.624E-02   -.468E-08 0.697E-08 0.323E-01
   -.471E-03 0.815E-03 -.741E+03   0.540E-07 -.636E-07 0.741E+03   0.947E-18 0.678E-19 -.466E-01   0.860E-09 -.109E-08 0.632E-01
   0.583E-03 -.101E-02 -.988E+03   0.539E-04 -.929E-04 0.988E+03   0.234E-17 0.000E+00 -.115E+00   -.746E-09 0.201E-09 0.778E-01
   -.152E-02 0.264E-02 0.988E+03   -.539E-04 0.928E-04 -.988E+03   -.239E-17 0.000E+00 0.115E+00   -.102E-07 0.187E-07 -.778E-01
   -.152E-02 0.264E-02 0.248E+03   -.539E-04 0.934E-04 -.248E+03   0.132E-18 0.000E+00 -.624E-02   0.402E-08 -.583E-08 -.327E-01
   -.152E-02 0.264E-02 -.495E+03   -.538E-04 0.931E-04 0.495E+03   0.424E-18 0.271E-19 -.193E-01   0.983E-08 -.167E-07 0.554E-01
   -.153E-02 0.265E-02 -.122E+04   -.497E-04 0.582E-04 0.122E+04   0.220E-16 -.416E-16 -.265E+01   -.128E-07 0.237E-07 0.899E-01
   0.199E-04 -.353E-04 0.369E+03   0.104E-05 -.129E-05 -.369E+03   0.109E-18 0.173E-17 -.622E-01   -.244E-08 0.409E-08 -.302E-01
   0.214E-04 -.370E-04 0.124E+03   0.152E-07 -.174E-07 -.124E+03   0.597E-19 0.000E+00 -.155E-02   0.348E-09 -.700E-09 -.164E-01
   0.214E-04 -.371E-04 -.124E+03   -.155E-07 0.179E-07 0.124E+03   -.648E-19 0.000E+00 0.155E-02   -.426E-09 0.834E-09 0.163E-01
   0.212E-04 -.359E-04 -.369E+03   -.104E-05 0.129E-05 0.369E+03   0.327E-18 0.000E+00 0.622E-01   0.238E-08 -.399E-08 0.302E-01
   0.630E-04 -.109E-03 0.206E+03   -.465E-04 0.806E-04 -.206E+03   0.869E-19 -.407E-19 -.472E-02   -.581E-08 0.100E-07 -.194E-01
   0.634E-04 -.110E-03 -.413E+02   -.467E-04 0.810E-04 0.413E+02   -.320E-19 -.136E-19 0.150E-02   -.631E-08 0.110E-07 0.557E-02
   0.632E-04 -.109E-03 -.288E+03   -.466E-04 0.807E-04 0.288E+03   -.161E-19 0.542E-19 0.242E-04   -.522E-08 0.905E-08 0.223E-01
   -.204E-04 0.353E-04 0.288E+03   0.466E-04 -.807E-04 -.288E+03   0.885E-21 -.542E-19 -.242E-04   0.537E-08 -.931E-08 -.224E-01
   -.204E-04 0.353E-04 0.413E+02   0.467E-04 -.810E-04 -.413E+02   0.295E-19 0.136E-19 -.150E-02   0.653E-08 -.114E-07 -.569E-02
   -.203E-04 0.352E-04 -.206E+03   0.465E-04 -.806E-04 0.206E+03   -.683E-19 0.542E-19 0.472E-02   0.581E-08 -.100E-07 0.193E-01
   0.488E-05 -.846E-05 0.451E-02   -.224E-09 0.217E-09 -.105E-01   -.678E-20 0.000E+00 -.108E-18   0.112E-12 -.186E-12 0.745E-04
   0.207E-04 -.231E-04 0.650E+03   -.217E-04 0.227E-04 -.655E+03   -.147E-15 0.416E-16 0.562E+01   -.127E-09 0.183E-09 -.351E-01
   0.215E-04 -.371E-04 0.464E+03   -.255E-05 0.410E-05 -.464E+03   0.135E-16 0.607E-17 0.220E+00   -.907E-10 0.143E-09 -.133E-01
   -.997E-05 0.173E-04 0.231E+03   0.200E-05 -.342E-05 -.231E+03   -.356E-17 0.173E-17 0.457E-01   0.235E-11 -.240E-10 0.303E-03
   0.301E-05 -.179E-04 -.650E+03   0.216E-04 -.227E-04 0.655E+03   0.145E-15 -.347E-16 -.562E+01   0.949E-09 -.161E-08 0.352E-01
   0.206E-04 -.356E-04 -.231E+03   -.200E-05 0.342E-05 0.231E+03   0.267E-17 -.347E-17 -.457E-01   -.863E-11 0.349E-10 -.161E-03
   -.101E-04 0.174E-04 -.464E+03   0.255E-05 -.410E-05 0.464E+03   -.135E-16 -.607E-17 -.220E+00   0.101E-09 -.162E-09 0.134E-01
 -----------------------------------------------------------------------------------------------
   -.491E-02 0.851E-02 0.609E+00   -.368E-13 0.155E-13 0.682E-12   -.230E-16 0.695E-17 -.108E-14   -.242E-07 0.420E-07 -.654E-03
 
 
 POSITION                                       TOTAL-FORCE (eV/Angst)
 -----------------------------------------------------------------------------------
      0.85843      1.48685     10.01487        -0.000000      0.000000      0.010524
     -0.00000     -0.00000     15.10199        -0.000000     -0.000000      0.017336
      0.85843      1.48685     17.63397         0.000000     -0.000000      0.004120
     -0.00000      0.00000     22.69174         0.000000      0.000000      0.000000
      0.85843      1.48685     25.21916        -0.000000     -0.000000      0.008928
     -0.00000      0.00000     30.28131         0.000000      0.000000     -0.017336
      0.85843      1.48685     32.81184         0.000000      0.000000     -0.017903
      1.71687     -0.00000     12.57157        -0.000000     -0.000000      0.017903
      1.71687     -0.00000     20.16431         0.000000      0.000000     -0.008928
      1.71687     -0.00000     27.74944        -0.000000      0.000000     -0.004120
      1.71687     -0.00000     35.36856         0.000000     -0.000000     -0.010524
     -0.00000      0.00000     11.31108         0.000000      0.000000     -0.014546
     -0.00000      0.00000     18.89933         0.000000     -0.000000     -0.011333
     -0.00000      0.00000     26.48410        -0.000000     -0.000000      0.011333
     -0.00000      0.00000     34.07235        -0.000000     -0.000000      0.014546
      1.71687     -0.00000     16.36881         0.000000     -0.000000     -0.014703
      1.71687     -0.00000     23.95531        -0.000000      0.000000      0.006322
      1.71687     -0.00000     31.54630         0.000000      0.000000     -0.011980
      0.85843      1.48685     13.83733        -0.000000      0.000000      0.011980
      0.85843      1.48685     21.42807         0.000000      0.000000     -0.006322
      0.85843      1.48685     29.01480        -0.000000      0.000000      0.014703
     -0.00000      0.00000      1.06170         0.000000     -0.000000     -0.000000
     -0.00000      0.00000      8.51439        -0.000000     -0.000000      0.016259
      1.71687     -0.00000      6.13764        -0.000000      0.000000      0.004293
      0.85843      1.48685      3.59021         0.000000      0.000000     -0.002286
     -0.00000      0.00000     36.86915         0.000000      0.000000     -0.016259
      1.71687     -0.00000     41.79328        -0.000000     -0.000000      0.002286
      0.85843      1.48685     39.24588         0.000000     -0.000000     -0.004293
 -----------------------------------------------------------------------------------
    total drift:                               -0.004915      0.008513      0.608050


--------------------------------------------------------------------------------------------------------



  FREE ENERGIE OF THE ION-ELECTRON SYSTEM (eV)
  ---------------------------------------------------
  free  energy   TOTEN  =      -151.99774848 eV

  energy  without entropy=     -151.99330076  energy(sigma->0) =     -151.99552462
 
 d Force = 0.9023017E-03[ 0.319E-03, 0.149E-02]  d Energy = 0.9072974E-03-0.500E-05
 d Force =-0.3645861E+02[-0.365E+02,-0.364E+02]  d Ewald  =-0.3645861E+02 0.169E-06


--------------------------------------------------------------------------------------------------------


    POTLOK:  cpu time    0.20: real time    0.20


--------------------------------------------------------------------------------------------------------


 Conjugate gradient step on ions:
 trial-energy change:   -0.000907  1 .order   -0.000902   -0.001485   -0.000319
  (g-gl).g = 0.124E-02      g.g   = 0.126E-02  gl.gl    = 0.201E-02
 g(Force)  = 0.126E-02   g(Stress)= 0.000E+00 ortho     =-0.492E-05
 gamma     =   0.61989
 trial     =   1.18079
 opt step  =   1.50385  (harmonic =   1.50385) maximal distance =0.00685053
 next E    =  -151.997787   (d E  =  -0.00095)


--------------------------------------------------------------------------------------------------------


  
 reached required accuracy - stopping structural energy minimisation
     LOOP+:  cpu time   39.98: real time   40.01
    4ORBIT:  cpu time    0.00: real time    0.00

 total amount of memory used by VASP on root node   151072. kBytes
========================================================================

   base      :      30000. kBytes
   nonl-proj :      15932. kBytes
   fftplans  :      55867. kBytes
   grid      :      22394. kBytes
   one-center:         56. kBytes
   wavefun   :      26823. kBytes
 
  
  
 General timing and accounting informations for this job:
 ========================================================
  
                  Total CPU time used (sec):     1350.156
                            User time (sec):     1336.505
                          System time (sec):       13.652
                         Elapsed time (sec):     1351.737
  
                   Maximum memory used (kb):      255640.
                   Average memory used (kb):           0.
  
                          Minor page faults:       347409
                          Major page faults:            0
                 Voluntary context switches:           94
