       N       E                     dE             d eps       ncg     rms          rms(c)
DAV:   1     0.519041507511E+03    0.51904E+03   -0.45487E+04  2796   0.135E+03
DAV:   2    -0.101816785424E+03   -0.62086E+03   -0.59001E+03  3584   0.256E+02
DAV:   3    -0.160840865488E+03   -0.59024E+02   -0.58708E+02  3230   0.856E+01
DAV:   4    -0.161604921609E+03   -0.76406E+00   -0.76301E+00  3224   0.106E+01
DAV:   5    -0.161616671922E+03   -0.11750E-01   -0.11745E-01  3256   0.129E+00    0.231E+01
DAV:   6    -0.145613365293E+03    0.16003E+02   -0.93532E+01  3114   0.303E+01    0.787E+00
DAV:   7    -0.145467817741E+03    0.14555E+00   -0.17593E+00  3070   0.525E+00    0.477E+00
DAV:   8    -0.145352972709E+03    0.11485E+00   -0.53021E-01  3188   0.404E+00    0.803E-01
DAV:   9    -0.145339671516E+03    0.13301E-01   -0.96012E-02  3140   0.121E+00    0.487E-01
DAV:  10    -0.145339253518E+03    0.41800E-03   -0.40830E-02  3134   0.816E-01    0.245E-01
DAV:  11    -0.145339829678E+03   -0.57616E-03   -0.37875E-03  3092   0.265E-01    0.173E-01
DAV:  12    -0.145339718567E+03    0.11111E-03   -0.25282E-03  3912   0.272E-01    0.734E-02
DAV:  13    -0.145339677863E+03    0.40705E-04   -0.13233E-03  3170   0.149E-01    0.460E-02
DAV:  14    -0.145339622550E+03    0.55313E-04   -0.17321E-04  3496   0.738E-02    0.228E-02
DAV:  15    -0.145339593487E+03    0.29063E-04   -0.64888E-05  3102   0.473E-02    0.109E-02
DAV:  16    -0.145339572474E+03    0.21012E-04   -0.24579E-05  2324   0.371E-02    0.548E-03
DAV:  17    -0.145339560333E+03    0.12141E-04   -0.16102E-05  1992   0.295E-02    0.421E-03
DAV:  18    -0.145339537209E+03    0.23124E-04   -0.21476E-05  2298   0.536E-02    0.709E-03
DAV:  19    -0.145339525733E+03    0.11477E-04   -0.24745E-05  2580   0.506E-02    0.702E-03
DAV:  20    -0.145339516833E+03    0.88991E-05   -0.25728E-05  2386   0.629E-02
   1 F= -.14533952E+03 E0= -.14533584E+03  d E =-.145340E+03
       N       E                     dE             d eps       ncg     rms          rms(c)
DAV:   1    -0.145340726397E+03   -0.12007E-02   -0.67178E-03  2830   0.349E-01    0.253E-02
DAV:   2    -0.145340718012E+03    0.83850E-05   -0.46955E-04  3168   0.901E-02    0.205E-02
DAV:   3    -0.145340705266E+03    0.12746E-04   -0.45465E-05  2910   0.323E-02    0.145E-02
DAV:   4    -0.145340692761E+03    0.12506E-04   -0.30490E-05  2580   0.270E-02    0.681E-03
DAV:   5    -0.145340679445E+03    0.13315E-04   -0.13291E-05  2124   0.230E-02    0.556E-03
DAV:   6    -0.145340670452E+03    0.89937E-05   -0.10618E-05  2060   0.211E-02
   2 F= -.14534067E+03 E0= -.14533697E+03  d E =-.115362E-02
       N       E                     dE             d eps       ncg     rms          rms(c)
DAV:   1    -0.145341621676E+03   -0.94223E-03   -0.21764E-02  2816   0.634E-01    0.406E-02
DAV:   2    -0.145341601362E+03    0.20315E-04   -0.15668E-03  3172   0.157E-01    0.397E-02
DAV:   3    -0.145341548511E+03    0.52851E-04   -0.11901E-04  3142   0.551E-02    0.263E-02
DAV:   4    -0.145341469356E+03    0.79155E-04   -0.25476E-04  3194   0.872E-02    0.188E-02
DAV:   5    -0.145341441886E+03    0.27470E-04   -0.73538E-05  3116   0.443E-02    0.216E-02
DAV:   6    -0.145341421565E+03    0.20321E-04   -0.34671E-05  2806   0.253E-02    0.870E-03
DAV:   7    -0.145341394862E+03    0.26703E-04   -0.23716E-05  2260   0.389E-02    0.627E-03
DAV:   8    -0.145341382041E+03    0.12821E-04   -0.10745E-05  2100   0.322E-02    0.650E-03
DAV:   9    -0.145341362411E+03    0.19630E-04   -0.22973E-05  2434   0.659E-02    0.458E-03
DAV:  10    -0.145341349360E+03    0.13051E-04   -0.24528E-05  2506   0.650E-02    0.507E-03
DAV:  11    -0.145341345131E+03    0.42287E-05   -0.26912E-05  2382   0.405E-02
   3 F= -.14534135E+03 E0= -.14533758E+03  d E =-.182830E-02
       N       E                     dE             d eps       ncg     rms          rms(c)
DAV:   1    -0.145341910986E+03   -0.56163E-03   -0.12156E-01  2824   0.148E+00    0.464E-02
DAV:   2    -0.145342152790E+03   -0.24180E-03   -0.27728E-03  3100   0.202E-01    0.251E-02
DAV:   3    -0.145342137191E+03    0.15599E-04   -0.34475E-05  2878   0.287E-02    0.168E-02
DAV:   4    -0.145342125196E+03    0.11995E-04   -0.19554E-05  2346   0.299E-02    0.665E-03
DAV:   5    -0.145342122649E+03    0.25476E-05   -0.17812E-05  2074   0.247E-02    0.417E-03
DAV:   6    -0.145342122250E+03    0.39905E-06   -0.56348E-06  1628   0.124E-02
   4 F= -.14534212E+03 E0= -.14533837E+03  d E =-.777118E-03
       N       E                     dE             d eps       ncg     rms          rms(c)
DAV:   1    -0.145341881517E+03    0.24113E-03   -0.10935E+00  2792   0.443E+00    0.139E-01
DAV:   2    -0.145344094283E+03   -0.22128E-02   -0.25067E-02  3064   0.601E-01    0.771E-02
DAV:   3    -0.145343952306E+03    0.14198E-03   -0.26801E-04  3256   0.820E-02    0.503E-02
DAV:   4    -0.145343852955E+03    0.99351E-04   -0.21423E-04  3274   0.881E-02    0.175E-02
DAV:   5    -0.145343845741E+03    0.72133E-05   -0.14123E-04  3146   0.540E-02    0.115E-02
DAV:   6    -0.145343839870E+03    0.58710E-05   -0.16000E-05  2050   0.207E-02
   5 F= -.14534384E+03 E0= -.14534013E+03  d E =-.249474E-02
       N       E                     dE             d eps       ncg     rms          rms(c)
DAV:   1    -0.145336496341E+03    0.73494E-02   -0.43741E+00  2796   0.885E+00    0.276E-01
DAV:   2    -0.145345436758E+03   -0.89404E-02   -0.10099E-01  3066   0.119E+00    0.158E-01
DAV:   3    -0.145344842321E+03    0.59444E-03   -0.10525E-03  3264   0.163E-01    0.103E-01
DAV:   4    -0.145344421176E+03    0.42114E-03   -0.89667E-04  3248   0.172E-01    0.350E-02
DAV:   5    -0.145344384953E+03    0.36223E-04   -0.53390E-04  3146   0.106E-01    0.213E-02
DAV:   6    -0.145344350803E+03    0.34150E-04   -0.67272E-05  3178   0.475E-02    0.121E-02
DAV:   7    -0.145344313335E+03    0.37468E-04   -0.12723E-05  2060   0.382E-02    0.712E-03
DAV:   8    -0.145344269290E+03    0.44045E-04   -0.27791E-05  2498   0.636E-02    0.785E-03
DAV:   9    -0.145344233807E+03    0.35483E-04   -0.55270E-05  3130   0.796E-02    0.837E-03
DAV:  10    -0.145344201319E+03    0.32488E-04   -0.41607E-05  2848   0.948E-02    0.561E-03
DAV:  11    -0.145344194075E+03    0.72441E-05   -0.55191E-05  2922   0.601E-02
   6 F= -.14534419E+03 E0= -.14534064E+03  d E =-.284894E-02
       N       E                     dE             d eps       ncg     rms          rms(c)
DAV:   1    -0.145343263523E+03    0.93780E-03   -0.68854E-01  2772   0.349E+00    0.111E-01
DAV:   2    -0.145344678201E+03   -0.14147E-02   -0.16045E-02  3068   0.472E-01    0.595E-02
DAV:   3    -0.145344592224E+03    0.85978E-04   -0.17645E-04  3240   0.664E-02    0.400E-02
DAV:   4    -0.145344529891E+03    0.62332E-04   -0.13160E-04  3208   0.717E-02    0.141E-02
DAV:   5    -0.145344524564E+03    0.53276E-05   -0.90900E-05  3146   0.478E-02    0.101E-02
DAV:   6    -0.145344521810E+03    0.27538E-05   -0.18026E-05  1964   0.211E-02
   7 F= -.14534452E+03 E0= -.14534091E+03  d E =-.317668E-02
       N       E                     dE             d eps       ncg     rms          rms(c)
DAV:   1    -0.145345223161E+03   -0.69860E-03   -0.14075E-01  2792   0.162E+00    0.562E-02
DAV:   2    -0.145345518792E+03   -0.29563E-03   -0.36384E-03  3098   0.244E-01    0.299E-02
DAV:   3    -0.145345503634E+03    0.15158E-04   -0.10106E-04  3132   0.455E-02    0.243E-02
DAV:   4    -0.145345490078E+03    0.13555E-04   -0.29178E-05  2456   0.258E-02    0.124E-02
DAV:   5    -0.145345478209E+03    0.11869E-04   -0.25331E-05  2390   0.360E-02    0.915E-03
DAV:   6    -0.145345474452E+03    0.37572E-05   -0.12498E-05  1946   0.264E-02
   8 F= -.14534547E+03 E0= -.14534189E+03  d E =-.952642E-03
       N       E                     dE             d eps       ncg     rms          rms(c)
DAV:   1    -0.145344553744E+03    0.92447E-03   -0.12659E+00  2792   0.486E+00    0.166E-01
DAV:   2    -0.145347326335E+03   -0.27726E-02   -0.32680E-02  3098   0.722E-01    0.908E-02
DAV:   3    -0.145347190127E+03    0.13621E-03   -0.69393E-04  3174   0.122E-01    0.704E-02
DAV:   4    -0.145347081821E+03    0.10831E-03   -0.33879E-04  3210   0.874E-02    0.324E-02
DAV:   5    -0.145347030124E+03    0.51696E-04   -0.13456E-04  3124   0.801E-02    0.249E-02
DAV:   6    -0.145347007033E+03    0.23091E-04   -0.86461E-05  3298   0.708E-02    0.170E-02
DAV:   7    -0.145347000484E+03    0.65493E-05   -0.83629E-05  3010   0.516E-02
   9 F= -.14534700E+03 E0= -.14534350E+03  d E =-.247867E-02
       N       E                     dE             d eps       ncg     rms          rms(c)
DAV:   1    -0.145346737251E+03    0.26978E-03   -0.16116E-01  2792   0.174E+00    0.601E-02
DAV:   2    -0.145347086204E+03   -0.34895E-03   -0.41895E-03  3098   0.262E-01    0.321E-02
DAV:   3    -0.145347065656E+03    0.20548E-04   -0.10386E-04  3140   0.496E-02    0.253E-02
DAV:   4    -0.145347047659E+03    0.17996E-04   -0.35409E-05  2646   0.307E-02    0.126E-02
DAV:   5    -0.145347030523E+03    0.17137E-04   -0.19622E-05  1992   0.434E-02    0.832E-03
DAV:   6    -0.145347022269E+03    0.82533E-05   -0.16698E-05  2128   0.396E-02
  10 F= -.14534702E+03 E0= -.14534355E+03  d E =-.250046E-02
       N       E                     dE             d eps       ncg     rms          rms(c)
DAV:   1    -0.145347308166E+03   -0.27764E-03   -0.63776E-01  2800   0.339E+00    0.102E-01
DAV:   2    -0.145348559730E+03   -0.12516E-02   -0.13775E-02  3108   0.456E-01    0.570E-02
DAV:   3    -0.145348482865E+03    0.76865E-04   -0.13411E-04  3238   0.647E-02    0.390E-02
DAV:   4    -0.145348430752E+03    0.52113E-04   -0.28112E-04  3282   0.104E-01    0.151E-02
DAV:   5    -0.145348436632E+03   -0.58802E-05   -0.11202E-04  3004   0.438E-02    0.189E-02
DAV:   6    -0.145348434868E+03    0.17646E-05   -0.59940E-06  1584   0.106E-02
  11 F= -.14534843E+03 E0= -.14534500E+03  d E =-.141260E-02
       N       E                     dE             d eps       ncg     rms          rms(c)
DAV:   1    -0.145340226325E+03    0.82103E-02   -0.57350E+00  2788   0.102E+01    0.302E-01
DAV:   2    -0.145351378982E+03   -0.11153E-01   -0.12332E-01  3102   0.137E+00    0.171E-01
DAV:   3    -0.145350687723E+03    0.69126E-03   -0.13216E-03  3206   0.198E-01    0.118E-01
DAV:   4    -0.145350179723E+03    0.50800E-03   -0.20298E-03  3322   0.292E-01    0.421E-02
DAV:   5    -0.145350221824E+03   -0.42101E-04   -0.10143E-03  3138   0.137E-01    0.538E-02
DAV:   6    -0.145350201035E+03    0.20788E-04   -0.77122E-05  2956   0.376E-02    0.417E-02
DAV:   7    -0.145350169562E+03    0.31473E-04   -0.77509E-05  2948   0.320E-02    0.222E-02
DAV:   8    -0.145350144812E+03    0.24751E-04   -0.11389E-04  3068   0.630E-02    0.188E-02
DAV:   9    -0.145350138463E+03    0.63487E-05   -0.74012E-05  3000   0.527E-02
  12 F= -.14535014E+03 E0= -.14534686E+03  d E =-.311619E-02
       N       E                     dE             d eps       ncg     rms          rms(c)
DAV:   1    -0.145349783349E+03    0.36146E-03   -0.10630E+00  2812   0.444E+00    0.131E-01
DAV:   2    -0.145351996672E+03   -0.22133E-02   -0.23874E-02  3082   0.615E-01    0.751E-02
DAV:   3    -0.145351882890E+03    0.11378E-03   -0.25839E-04  3240   0.772E-02    0.531E-02
DAV:   4    -0.145351792025E+03    0.90865E-04   -0.36160E-04  3188   0.110E-01    0.209E-02
DAV:   5    -0.145351790949E+03    0.10760E-05   -0.14419E-04  2984   0.597E-02    0.240E-02
DAV:   6    -0.145351783712E+03    0.72375E-05   -0.38666E-05  2644   0.282E-02
  13 F= -.14535178E+03 E0= -.14534854E+03  d E =-.164525E-02
       N       E                     dE             d eps       ncg     rms          rms(c)
DAV:   1    -0.145346578975E+03    0.52120E-02   -0.33122E+00  2812   0.783E+00    0.233E-01
DAV:   2    -0.145353518912E+03   -0.69399E-02   -0.74913E-02  3116   0.109E+00    0.133E-01
DAV:   3    -0.145353149864E+03    0.36905E-03   -0.83066E-04  3230   0.144E-01    0.938E-02
DAV:   4    -0.145352826419E+03    0.32345E-03   -0.10310E-03  3254   0.204E-01    0.360E-02
DAV:   5    -0.145352804695E+03    0.21724E-04   -0.53527E-04  3154   0.124E-01    0.424E-02
DAV:   6    -0.145352779486E+03    0.25209E-04   -0.14308E-04  2870   0.533E-02    0.263E-02
DAV:   7    -0.145352740263E+03    0.39222E-04   -0.35407E-05  2416   0.382E-02    0.167E-02
DAV:   8    -0.145352682541E+03    0.57722E-04   -0.77216E-05  3332   0.842E-02    0.160E-02
DAV:   9    -0.145352656863E+03    0.25678E-04   -0.97026E-05  3352   0.766E-02    0.230E-02
DAV:  10    -0.145352617768E+03    0.39095E-04   -0.12286E-04  4052   0.123E-01    0.252E-02
DAV:  11    -0.145352572861E+03    0.44907E-04   -0.56633E-05  3416   0.120E-01    0.226E-02
DAV:  12    -0.145352549612E+03    0.23250E-04   -0.94385E-05  2914   0.667E-02    0.170E-02
DAV:  13    -0.145352533462E+03    0.16150E-04   -0.32909E-05  2630   0.306E-02    0.831E-03
DAV:  14    -0.145352515797E+03    0.17664E-04   -0.46327E-05  2908   0.980E-02    0.165E-02
DAV:  15    -0.145352505279E+03    0.10518E-04   -0.33764E-05  2734   0.762E-02    0.959E-03
DAV:  16    -0.145352511415E+03   -0.61362E-05   -0.11433E-04  2716   0.405E-02    0.134E-02
DAV:  17    -0.145352507491E+03    0.39241E-05   -0.46519E-06  1710   0.164E-02
  14 F= -.14535251E+03 E0= -.14534936E+03  d E =-.236903E-02
       N       E                     dE             d eps       ncg     rms          rms(c)
DAV:   1    -0.145352728795E+03   -0.21738E-03   -0.35665E-01  2808   0.257E+00    0.749E-02
DAV:   2    -0.145353447397E+03   -0.71860E-03   -0.77298E-03  3060   0.348E-01    0.405E-02
DAV:   3    -0.145353414088E+03    0.33310E-04   -0.86059E-05  3086   0.441E-02    0.280E-02
DAV:   4    -0.145353388619E+03    0.25469E-04   -0.78540E-05  3016   0.543E-02    0.108E-02
DAV:   5    -0.145353388095E+03    0.52452E-06   -0.41884E-05  2654   0.337E-02    0.112E-02
DAV:   6    -0.145353386425E+03    0.16697E-05   -0.10023E-05  1678   0.158E-02
  15 F= -.14535339E+03 E0= -.14535026E+03  d E =-.878934E-03
       N       E                     dE             d eps       ncg     rms          rms(c)
DAV:   1    -0.145349004922E+03    0.43832E-02   -0.32114E+00  2804   0.770E+00    0.224E-01
DAV:   2    -0.145355563117E+03   -0.65582E-02   -0.70233E-02  3044   0.105E+00    0.123E-01
DAV:   3    -0.145355252019E+03    0.31110E-03   -0.70439E-04  3248   0.129E-01    0.841E-02
DAV:   4    -0.145355017868E+03    0.23415E-03   -0.86466E-04  3334   0.178E-01    0.305E-02
DAV:   5    -0.145355030339E+03   -0.12471E-04   -0.40609E-04  3148   0.939E-02    0.362E-02
DAV:   6    -0.145355017787E+03    0.12551E-04   -0.65339E-05  2830   0.358E-02    0.242E-02
DAV:   7    -0.145355000414E+03    0.17374E-04   -0.28664E-05  2360   0.302E-02    0.141E-02
DAV:   8    -0.145354985872E+03    0.14542E-04   -0.26106E-05  2312   0.446E-02    0.994E-03
DAV:   9    -0.145354979329E+03    0.65431E-05   -0.48555E-05  2830   0.490E-02
  16 F= -.14535498E+03 E0= -.14535195E+03  d E =-.247184E-02
       N       E                     dE             d eps       ncg     rms          rms(c)
DAV:   1    -0.145329418230E+03    0.25568E-01   -0.12847E+01  2804   0.154E+01    0.446E-01
DAV:   2    -0.145355820098E+03   -0.26402E-01   -0.28318E-01  3044   0.209E+00    0.253E-01
DAV:   3    -0.145354515617E+03    0.13045E-02   -0.29063E-03  3238   0.254E-01    0.170E-01
DAV:   4    -0.145353540844E+03    0.97477E-03   -0.32760E-03  3352   0.343E-01    0.583E-02
DAV:   5    -0.145353578256E+03   -0.37412E-04   -0.15217E-03  3146   0.187E-01    0.663E-02
DAV:   6    -0.145353526764E+03    0.51492E-04   -0.29961E-04  3022   0.797E-02    0.403E-02
DAV:   7    -0.145353467273E+03    0.59491E-04   -0.72098E-05  3114   0.589E-02    0.225E-02
DAV:   8    -0.145353415275E+03    0.51998E-04   -0.57077E-05  2890   0.797E-02    0.140E-02
DAV:   9    -0.145353375113E+03    0.40163E-04   -0.98047E-05  3634   0.100E-01    0.158E-02
DAV:  10    -0.145353331942E+03    0.43171E-04   -0.98655E-05  4094   0.129E-01    0.195E-02
DAV:  11    -0.145353316926E+03    0.15016E-04   -0.10745E-04  3032   0.599E-02    0.181E-02
DAV:  12    -0.145353302606E+03    0.14320E-04   -0.41788E-05  2720   0.250E-02    0.951E-03
DAV:  13    -0.145353275932E+03    0.26675E-04   -0.71070E-05  3316   0.126E-01    0.204E-02
DAV:  14    -0.145353267810E+03    0.81215E-05   -0.30207E-05  2538   0.527E-02
  17 F= -.14535327E+03 E0= -.14535050E+03  d E =-.760319E-03
       N       E                     dE             d eps       ncg     rms          rms(c)
DAV:   1    -0.145342637596E+03    0.10638E-01   -0.67304E+00  2796   0.111E+01    0.324E-01
DAV:   2    -0.145356331399E+03   -0.13694E-01   -0.14691E-01  3028   0.151E+00    0.179E-01
DAV:   3    -0.145355679816E+03    0.65158E-03   -0.14894E-03  3296   0.186E-01    0.123E-01
DAV:   4    -0.145355216416E+03    0.46340E-03   -0.19491E-03  3278   0.259E-01    0.455E-02
DAV:   5    -0.145355246463E+03   -0.30047E-04   -0.77410E-04  3136   0.125E-01    0.517E-02
DAV:   6    -0.145355211009E+03    0.35454E-04   -0.15921E-04  2984   0.589E-02    0.271E-02
DAV:   7    -0.145355185526E+03    0.25483E-04   -0.67590E-05  3056   0.529E-02    0.113E-02
DAV:   8    -0.145355177401E+03    0.81248E-05   -0.40206E-05  2818   0.426E-02
  18 F= -.14535518E+03 E0= -.14535222E+03  d E =-.266991E-02
       N       E                     dE             d eps       ncg     rms          rms(c)
DAV:   1    -0.145355782269E+03   -0.59674E-03   -0.38865E-01  2812   0.271E+00    0.848E-02
DAV:   2    -0.145356594088E+03   -0.81182E-03   -0.93077E-03  3090   0.393E-01    0.486E-02
DAV:   3    -0.145356547022E+03    0.47066E-04   -0.18851E-04  3174   0.660E-02    0.381E-02
DAV:   4    -0.145356500499E+03    0.46523E-04   -0.11131E-04  3050   0.578E-02    0.167E-02
DAV:   5    -0.145356471357E+03    0.29142E-04   -0.55393E-05  2940   0.681E-02    0.168E-02
DAV:   6    -0.145356454512E+03    0.16845E-04   -0.44347E-05  2638   0.586E-02    0.109E-02
DAV:   7    -0.145356447167E+03    0.73456E-05   -0.43156E-05  2672   0.444E-02
  19 F= -.14535645E+03 E0= -.14535351E+03  d E =-.126977E-02
       N       E                     dE             d eps       ncg     rms          rms(c)
DAV:   1    -0.145355024987E+03    0.14295E-02   -0.11477E+00  2820   0.466E+00    0.143E-01
DAV:   2    -0.145357494471E+03   -0.24695E-02   -0.27558E-02  3092   0.673E-01    0.847E-02
DAV:   3    -0.145357361049E+03    0.13342E-03   -0.49063E-04  3254   0.106E-01    0.649E-02
DAV:   4    -0.145357237921E+03    0.12313E-03   -0.39594E-04  3168   0.965E-02    0.273E-02
DAV:   5    -0.145357187876E+03    0.50045E-04   -0.12217E-04  3114   0.909E-02    0.295E-02
DAV:   6    -0.145357147323E+03    0.40554E-04   -0.11534E-04  3386   0.933E-02    0.141E-02
DAV:   7    -0.145357134621E+03    0.12702E-04   -0.92654E-05  2912   0.659E-02    0.110E-02
DAV:   8    -0.145357110808E+03    0.23813E-04   -0.64667E-06  1854   0.583E-02    0.566E-03
DAV:   9    -0.145357088635E+03    0.22173E-04   -0.25215E-05  2396   0.712E-02    0.496E-03
DAV:  10    -0.145357073658E+03    0.14977E-04   -0.20639E-05  2262   0.754E-02    0.392E-03
DAV:  11    -0.145357062753E+03    0.10905E-04   -0.27410E-05  2566   0.896E-02    0.272E-03
DAV:  12    -0.145357064213E+03   -0.14602E-05   -0.55939E-05  2698   0.486E-02
  20 F= -.14535706E+03 E0= -.14535418E+03  d E =-.188681E-02
       N       E                     dE             d eps       ncg     rms          rms(c)
DAV:   1    -0.145356252211E+03    0.81054E-03   -0.11387E+00  2820   0.458E+00    0.132E-01
DAV:   2    -0.145358564970E+03   -0.23128E-02   -0.25011E-02  3072   0.623E-01    0.773E-02
DAV:   3    -0.145358430426E+03    0.13454E-03   -0.24804E-04  3214   0.823E-02    0.536E-02
DAV:   4    -0.145358327601E+03    0.10282E-03   -0.40995E-04  3260   0.126E-01    0.187E-02
DAV:   5    -0.145358335565E+03   -0.79635E-05   -0.18126E-04  2952   0.583E-02    0.224E-02
DAV:   6    -0.145358332632E+03    0.29326E-05   -0.12512E-05  1684   0.154E-02
  21 F= -.14535833E+03 E0= -.14535550E+03  d E =-.126842E-02
       N       E                     dE             d eps       ncg     rms          rms(c)
DAV:   1    -0.145355512195E+03    0.28234E-02   -0.18623E+00  2820   0.586E+00    0.173E-01
DAV:   2    -0.145359307155E+03   -0.37950E-02   -0.41306E-02  3072   0.801E-01    0.989E-02
DAV:   3    -0.145359081781E+03    0.22537E-03   -0.43394E-04  3262   0.112E-01    0.691E-02
DAV:   4    -0.145358905395E+03    0.17639E-03   -0.62894E-04  3346   0.165E-01    0.254E-02
DAV:   5    -0.145358909109E+03   -0.37136E-05   -0.32620E-04  3068   0.846E-02    0.291E-02
DAV:   6    -0.145358899099E+03    0.10009E-04   -0.40536E-05  2566   0.279E-02    0.200E-02
DAV:   7    -0.145358885053E+03    0.14046E-04   -0.28188E-05  2486   0.225E-02    0.103E-02
DAV:   8    -0.145358871093E+03    0.13960E-04   -0.32075E-05  2634   0.417E-02    0.126E-02
DAV:   9    -0.145358865517E+03    0.55765E-05   -0.28381E-05  2380   0.362E-02
  22 F= -.14535887E+03 E0= -.14535610E+03  d E =-.180130E-02
       N       E                     dE             d eps       ncg     rms          rms(c)
DAV:   1    -0.145359227259E+03   -0.35617E-03   -0.22810E-01  2912   0.202E+00    0.681E-02
DAV:   2    -0.145359697568E+03   -0.47031E-03   -0.58899E-03  3178   0.315E-01    0.475E-02
DAV:   3    -0.145359646238E+03    0.51329E-04   -0.12020E-04  3140   0.580E-02    0.366E-02
DAV:   4    -0.145359589022E+03    0.57217E-04   -0.15480E-04  2936   0.767E-02    0.155E-02
DAV:   5    -0.145359567631E+03    0.21390E-04   -0.72364E-05  2918   0.601E-02    0.181E-02
DAV:   6    -0.145359558144E+03    0.94879E-05   -0.37872E-05  2620   0.317E-02
  23 F= -.14535956E+03 E0= -.14535684E+03  d E =-.692627E-03
       N       E                     dE             d eps       ncg     rms          rms(c)
DAV:   1    -0.145359542304E+03    0.25328E-04   -0.34815E-02  2880   0.791E-01    0.305E-02
DAV:   2    -0.145359594136E+03   -0.51832E-04   -0.94032E-04  3180   0.136E-01    0.193E-02
DAV:   3    -0.145359578751E+03    0.15385E-04   -0.53371E-05  2816   0.416E-02    0.165E-02
DAV:   4    -0.145359562765E+03    0.15986E-04   -0.15080E-05  1788   0.275E-02    0.926E-03
DAV:   5    -0.145359523927E+03    0.38838E-04   -0.17403E-05  2138   0.672E-02    0.783E-03
DAV:   6    -0.145359495603E+03    0.28324E-04   -0.26858E-05  2396   0.654E-02    0.101E-02
DAV:   7    -0.145359457878E+03    0.37726E-04   -0.57930E-05  3086   0.107E-01    0.895E-03
DAV:   8    -0.145359412553E+03    0.45324E-04   -0.72314E-05  3480   0.182E-01    0.197E-02
DAV:   9    -0.145359390978E+03    0.21576E-04   -0.10549E-04  3138   0.112E-01    0.133E-02
DAV:  10    -0.145359393560E+03   -0.25827E-05   -0.90639E-05  2832   0.395E-02
  24 F= -.14535939E+03 E0= -.14535669E+03  d E =-.528043E-03
       N       E                     dE             d eps       ncg     rms          rms(c)
DAV:   1    -0.145359412377E+03   -0.21400E-04   -0.61367E-03  3036   0.332E-01    0.133E-02
DAV:   2    -0.145359426001E+03   -0.13624E-04   -0.16891E-04  3128   0.525E-02    0.824E-03
DAV:   3    -0.145359424436E+03    0.15653E-05   -0.34441E-06  1626   0.118E-02    0.587E-03
DAV:   4    -0.145359423322E+03    0.11140E-05   -0.65499E-06  1650   0.162E-02    0.228E-03
DAV:   5    -0.145359423307E+03    0.14485E-07   -0.29990E-06  1452   0.861E-03    0.303E-03
DAV:   6    -0.145359423256E+03    0.51483E-07   -0.64769E-07  1446   0.333E-03
  25 F= -.14535942E+03 E0= -.14535671E+03  d E =-.557739E-03
       N       E                     dE             d eps       ncg     rms          rms(c)
DAV:   1    -0.145359672866E+03   -0.24956E-03   -0.10303E-01  2966   0.135E+00    0.436E-02
DAV:   2    -0.145359821041E+03   -0.14818E-03   -0.23705E-03  3148   0.204E-01    0.316E-02
DAV:   3    -0.145359792631E+03    0.28410E-04   -0.68405E-05  3076   0.445E-02    0.238E-02
DAV:   4    -0.145359765015E+03    0.27616E-04   -0.47182E-05  2700   0.434E-02    0.119E-02
DAV:   5    -0.145359745187E+03    0.19827E-04   -0.24403E-05  2420   0.477E-02    0.952E-03
DAV:   6    -0.145359727491E+03    0.17696E-04   -0.19459E-05  2144   0.575E-02    0.454E-03
DAV:   7    -0.145359714152E+03    0.13339E-04   -0.25373E-05  2472   0.579E-02    0.697E-03
DAV:   8    -0.145359704260E+03    0.98922E-05   -0.16147E-05  1886   0.416E-02
  26 F= -.14535970E+03 E0= -.14535702E+03  d E =-.281004E-03
       N       E                     dE             d eps       ncg     rms          rms(c)
DAV:   1    -0.145359676789E+03    0.37363E-04   -0.50167E-05  2780   0.120E-01    0.737E-03
DAV:   2    -0.145359680077E+03   -0.32886E-05   -0.60319E-05  2682   0.307E-02    0.634E-03
DAV:   3    -0.145359679063E+03    0.10148E-05   -0.41555E-06  1694   0.954E-03    0.383E-03
DAV:   4    -0.145359678105E+03    0.95732E-06   -0.12830E-06  1588   0.668E-03    0.171E-03
DAV:   5    -0.145359676762E+03    0.13428E-05   -0.70120E-07  1680   0.964E-03    0.146E-03
DAV:   6    -0.145359675196E+03    0.15661E-05   -0.71372E-07  1754   0.143E-02
  27 F= -.14535968E+03 E0= -.14535699E+03  d E =-.251940E-03
       N       E                     dE             d eps       ncg     rms          rms(c)
DAV:   1    -0.145359677591E+03   -0.82903E-06   -0.14458E-03  3070   0.163E-01    0.632E-03
DAV:   2    -0.145359681058E+03   -0.34670E-05   -0.49441E-05  2784   0.292E-02    0.543E-03
DAV:   3    -0.145359680574E+03    0.48447E-06   -0.16437E-06  1520   0.681E-03    0.377E-03
DAV:   4    -0.145359680315E+03    0.25900E-06   -0.14922E-06  1456   0.595E-03    0.142E-03
DAV:   5    -0.145359680264E+03    0.51378E-07   -0.41465E-07  1428   0.341E-03    0.886E-04
DAV:   6    -0.145359680223E+03    0.40472E-07   -0.10590E-07  1428   0.229E-03
  28 F= -.14535968E+03 E0= -.14535699E+03  d E =-.256967E-03
       N       E                     dE             d eps       ncg     rms          rms(c)
DAV:   1    -0.145359837904E+03   -0.15764E-03   -0.59094E-03  2924   0.338E-01    0.178E-02
DAV:   2    -0.145359853827E+03   -0.15923E-04   -0.34380E-04  3188   0.794E-02    0.166E-02
DAV:   3    -0.145359848916E+03    0.49112E-05   -0.16293E-05  1830   0.203E-02    0.131E-02
DAV:   4    -0.145359843336E+03    0.55801E-05   -0.17678E-05  1906   0.204E-02    0.470E-03
DAV:   5    -0.145359839941E+03    0.33953E-05   -0.75599E-06  1778   0.184E-02    0.649E-03
DAV:   6    -0.145359836293E+03    0.36484E-05   -0.20839E-06  1754   0.190E-02
  29 F= -.14535984E+03 E0= -.14535714E+03  d E =-.156069E-03
