 vasp.5.3.5 31Mar14 (build Apr 08 2024 10:12:10) complex                        
  
 executed on             LinuxIFC date 2024.07.29  18:21:59
 running on    8 total cores
 distrk:  each k-point on    8 cores,    1 groups
 distr:  one band on NCORES_PER_BAND=   4 cores,    2 groups


--------------------------------------------------------------------------------------------------------


 INCAR:
 POTCAR:    PAW_PBE O 08Apr2002                   
 POTCAR:    PAW_PBE Mg 13Apr2007                  
 POTCAR:    PAW_PBE Al 04Jan2001                  
 POTCAR:    PAW_PBE O 08Apr2002                   
   VRHFIN =O: s2p4                                                              
   LEXCH  = PE                                                                  
   EATOM  =   432.3788 eV,   31.7789 Ry                                         
                                                                                
   TITEL  = PAW_PBE O 08Apr2002                                                 
   LULTRA =        F    use ultrasoft PP ?                                      
   IUNSCR =        1    unscreen: 0-lin 1-nonlin 2-no                           
   RPACOR =    1.200    partial core radius                                     
   POMASS =   16.000; ZVAL   =    6.000    mass and valenz                      
   RCORE  =    1.520    outmost cutoff radius                                   
   RWIGS  =    1.550; RWIGS  =    0.820    wigner-seitz radius (au A)           
   ENMAX  =  400.000; ENMIN  =  300.000 eV                                      
   ICORE  =        2    local potential                                         
   LCOR   =        T    correct aug charges                                     
   LPAW   =        T    paw PP                                                  
   EAUG   =  605.392                                                            
   DEXC   =    0.000                                                            
   RMAX   =    1.553    core radius for proj-oper                               
   RAUG   =    1.300    factor for augmentation sphere                          
   RDEP   =    1.550    radius for radial grids                                 
   RDEPT  =    1.329    core radius for aug-charge                              
                                                                                
   Atomic configuration                                                         
    4 entries                                                                   
     n  l   j            E        occ.                                          
     1  0  0.50      -514.6923   2.0000                                         
     2  0  0.50       -23.9615   2.0000                                         
     2  1  0.50        -9.0305   4.0000                                         
     3  2  1.50        -9.5241   0.0000                                         
   Description                                                                  
     l       E           TYP  RCUT    TYP  RCUT                                 
     0    -23.9615318     23  1.200                                             
     0     -9.5240782     23  1.200                                             
     1     -9.0304911     23  1.520                                             
     1      8.1634956     23  1.520                                             
     2     -9.5240782      7  1.500                                             
  local pseudopotential read in
  partial core-charges read in
  partial kinetic energy density read in
  kinetic energy density of atom read in
  atomic valenz-charges read in
  non local Contribution for L=           0  read in
    real space projection operators read in
  non local Contribution for L=           0  read in
    real space projection operators read in
  non local Contribution for L=           1  read in
    real space projection operators read in
  non local Contribution for L=           1  read in
    real space projection operators read in
    PAW grid and wavefunctions read in
 
   number of l-projection  operators is LMAX  =           4
   number of lm-projection operators is LMMAX =           8
 
 POTCAR:    PAW_PBE Mg 13Apr2007                  
   VRHFIN =Mg: s2p0                                                             
   LEXCH  = PE                                                                  
   EATOM  =    23.0369 eV,    1.6932 Ry                                         
                                                                                
   TITEL  = PAW_PBE Mg 13Apr2007                                                
   LULTRA =        F    use ultrasoft PP ?                                      
   IUNSCR =        1    unscreen: 0-lin 1-nonlin 2-no                           
   RPACOR =    1.500    partial core radius                                     
   POMASS =   24.305; ZVAL   =    2.000    mass and valenz                      
   RCORE  =    2.000    outmost cutoff radius                                   
   RWIGS  =    2.880; RWIGS  =    1.524    wigner-seitz radius (au A)           
   ENMAX  =  200.000; ENMIN  =  100.000 eV                                      
   RCLOC  =    1.506    cutoff for local pot                                    
   LCOR   =        T    correct aug charges                                     
   LPAW   =        T    paw PP                                                  
   EAUG   =  454.734                                                            
   DEXC   =    0.000                                                            
   RMAX   =    2.045    core radius for proj-oper                               
   RAUG   =    1.300    factor for augmentation sphere                          
   RDEP   =    2.025    radius for radial grids                                 
   RDEPT  =    1.942    core radius for aug-charge                              
                                                                                
   Atomic configuration                                                         
    6 entries                                                                   
     n  l   j            E        occ.                                          
     1  0  0.50     -1259.6230   2.0000                                         
     2  0  0.50       -79.8442   2.0000                                         
     2  1  1.50       -46.6121   6.0000                                         
     3  0  0.50        -4.7055   2.0000                                         
     3  1  0.50        -1.3660   0.0000                                         
     3  2  1.50        -1.3606   0.0000                                         
   Description                                                                  
     l       E           TYP  RCUT    TYP  RCUT                                 
     0     -4.7054661     23  2.000                                             
     0     27.2116520     23  2.000                                             
     1      1.3605826     23  2.000                                             
     1     27.2116520     23  2.000                                             
     2     -1.3605826     23  2.000                                             
  local pseudopotential read in
  partial core-charges read in
  partial kinetic energy density read in
  atomic valenz-charges read in
  non local Contribution for L=           0  read in
    real space projection operators read in
  non local Contribution for L=           0  read in
    real space projection operators read in
  non local Contribution for L=           1  read in
    real space projection operators read in
  non local Contribution for L=           1  read in
    real space projection operators read in
  non local Contribution for L=           2  read in
    real space projection operators read in
    PAW grid and wavefunctions read in
 
   number of l-projection  operators is LMAX  =           5
   number of lm-projection operators is LMMAX =          13
 
 POTCAR:    PAW_PBE Al 04Jan2001                  
   VRHFIN =Al: s2p1                                                             
   LEXCH  = PE                                                                  
   EATOM  =    53.5387 eV,    3.9350 Ry                                         
                                                                                
   TITEL  = PAW_PBE Al 04Jan2001                                                
   LULTRA =        F    use ultrasoft PP ?                                      
   IUNSCR =        1    unscreen: 0-lin 1-nonlin 2-no                           
   RPACOR =    1.500    partial core radius                                     
   POMASS =   26.981; ZVAL   =    3.000    mass and valenz                      
   RCORE  =    1.900    outmost cutoff radius                                   
   RWIGS  =    2.650; RWIGS  =    1.402    wigner-seitz radius (au A)           
   ENMAX  =  240.300; ENMIN  =  180.225 eV                                      
   ICORE  =        2    local potential                                         
   LCOR   =        T    correct aug charges                                     
   LPAW   =        T    paw PP                                                  
   EAUG   =  291.052                                                            
   DEXC   =    0.000                                                            
   RMAX   =    1.939    core radius for proj-oper                               
   RAUG   =    1.300    factor for augmentation sphere                          
   RDEP   =    1.966    radius for radial grids                                 
   RDEPT  =    1.856    core radius for aug-charge                              
                                                                                
   Atomic configuration                                                         
    6 entries                                                                   
     n  l   j            E        occ.                                          
     1  0  0.50     -1511.1048   2.0000                                         
     2  0  0.50      -108.1629   2.0000                                         
     2  1  1.50       -69.6402   6.0000                                         
     3  0  0.50        -7.7528   2.0000                                         
     3  1  1.50        -2.7121   1.0000                                         
     3  2  2.50        -2.7212   0.0000                                         
   Description                                                                  
     l       E           TYP  RCUT    TYP  RCUT                                 
     0     -7.7528455     23  1.900                                             
     0     -3.3096929     23  1.900                                             
     1     -2.7120682     23  1.900                                             
     1     13.6058260     23  1.900                                             
     2     -2.7211652      7  1.900                                             
  local pseudopotential read in
  partial core-charges read in
  partial kinetic energy density read in
  atomic valenz-charges read in
  non local Contribution for L=           0  read in
    real space projection operators read in
  non local Contribution for L=           0  read in
    real space projection operators read in
  non local Contribution for L=           1  read in
    real space projection operators read in
  non local Contribution for L=           1  read in
    real space projection operators read in
    PAW grid and wavefunctions read in
 
   number of l-projection  operators is LMAX  =           4
   number of lm-projection operators is LMMAX =           8
 

 ----------------------------------------------------------------------------- 
|                                                                             |
|  ADVICE TO THIS USER RUNNING 'VASP/VAMP'   (HEAR YOUR MASTER'S VOICE ...):  |
|                                                                             |
|      You have a (more or less) 'large supercell' and for larger cells       |
|      it might be more efficient to use real space projection opertators     |
|      So try LREAL= Auto  in the INCAR   file.                               |
|      Mind: At the moment your POTCAR file does not contain real space       |
|       projectors, and has to be modified,  BUT if you                       |
|      want to do an extremely  accurate calculation you might also keep the  |
|      reciprocal projection scheme          (i.e. LREAL=.FALSE.)             |
|                                                                             |
 ----------------------------------------------------------------------------- 

  PAW_PBE O 08Apr2002                   :
 energy of atom  1       EATOM= -432.3788
 kinetic energy error for atom=    0.0208 (will be added to EATOM!!)
  PAW_PBE Mg 13Apr2007                  :
 energy of atom  2       EATOM=  -23.0369
 kinetic energy error for atom=    0.0000 (will be added to EATOM!!)
  PAW_PBE Al 04Jan2001                  :
 energy of atom  3       EATOM=  -53.5387
 kinetic energy error for atom=    0.0002 (will be added to EATOM!!)
 
 
 POSCAR: Layer                                   
  positions in direct lattice
  velocities in cartesian coordinates
 exchange correlation table for  LEXCH =        8
   RHO(1)=    0.500       N(1)  =     2000
   RHO(2)=  100.500       N(2)  =     4000
 


--------------------------------------------------------------------------------------------------------


 ion  position               nearest neighbor table
   1  0.000  0.000  0.271-  14 2.14  14 2.14  14 2.14  18 2.17  18 2.17  18 2.17
   2  0.333  0.667  0.327-  14 2.14  14 2.14  14 2.14  11 2.14  11 2.14  11 2.14
   3  0.000  0.000  0.440-  19 2.14  19 2.14  19 2.14  15 2.14  15 2.14  15 2.14
   4  0.333  0.667  0.496-  15 2.14  15 2.14  15 2.14  12 2.14  12 2.14  12 2.14
   5  0.000  0.000  0.609-  16 2.14  16 2.14  16 2.14  20 2.14  20 2.14  20 2.14
   6  0.333  0.667  0.665-  13 2.14  13 2.14  13 2.14  16 2.14  16 2.14  16 2.14
   7  0.000  0.000  0.778-  21 2.14  21 2.14  21 2.14  17 2.17  17 2.17  17 2.17
   8  0.667  0.333  0.383-  11 2.14  11 2.14  11 2.14  19 2.14  19 2.14  19 2.14
   9  0.667  0.333  0.553-  12 2.14  12 2.14  12 2.14  20 2.14  20 2.14  20 2.14
  10  0.667  0.333  0.722-  21 2.14  21 2.14  21 2.14  13 2.14  13 2.14  13 2.14
  11  0.000  0.000  0.355-   8 2.14   8 2.14   8 2.14   2 2.14   2 2.14   2 2.14  14 3.07  14 3.07
                            14 3.07  19 3.07  19 3.07  19 3.07
  12  0.000  0.000  0.524-   9 2.14   9 2.14   9 2.14   4 2.14   4 2.14   4 2.14  20 3.07  20 3.07
                            20 3.07  15 3.07  15 3.07  15 3.07
  13  0.000  0.000  0.694-   6 2.14   6 2.14   6 2.14  10 2.14  10 2.14  10 2.14  21 3.07  21 3.07
                            21 3.07  16 3.07  16 3.07  16 3.07
  14  0.667  0.333  0.299-   1 2.14   1 2.14   1 2.14   2 2.14   2 2.14   2 2.14  11 3.07  11 3.07
                            11 3.07  18 3.10  18 3.10  18 3.10
  15  0.667  0.333  0.468-   4 2.14   4 2.14   4 2.14   3 2.14   3 2.14   3 2.14  12 3.07  12 3.07
                            12 3.07  19 3.07  19 3.07  19 3.07
  16  0.667  0.333  0.637-   5 2.14   5 2.14   5 2.14   6 2.14   6 2.14   6 2.14  13 3.07  13 3.07
                            13 3.07  20 3.07  20 3.07  20 3.07
  17  0.667  0.333  0.807-   7 2.17   7 2.17   7 2.17  21 3.10  21 3.10  21 3.10  26 3.10  26 3.10
                            26 3.10
  18  0.333  0.667  0.241-   1 2.17   1 2.17   1 2.17  14 3.10  14 3.10  14 3.10  23 3.10  23 3.10
                            23 3.10
  19  0.333  0.667  0.411-   3 2.14   3 2.14   3 2.14   8 2.14   8 2.14   8 2.14  11 3.07  11 3.07
                            11 3.07  15 3.07  15 3.07  15 3.07
  20  0.333  0.667  0.581-   9 2.14   9 2.14   9 2.14   5 2.14   5 2.14   5 2.14  12 3.07  12 3.07
                            12 3.07  16 3.07  16 3.07  16 3.07
  21  0.333  0.667  0.750-   7 2.14   7 2.14   7 2.14  10 2.14  10 2.14  10 2.14  13 3.07  13 3.07
                            13 3.07  17 3.10  17 3.10  17 3.10
  22  0.000  0.000  0.024-  27 2.95  27 2.95  27 2.95  25 2.95  25 2.95  25 2.95
  23  0.000  0.000  0.184-  24 2.96  24 2.96  24 2.96  18 3.10  18 3.10  18 3.10
  24  0.667  0.333  0.131-  25 2.95  25 2.95  25 2.95  23 2.96  23 2.96  23 2.96
  25  0.333  0.667  0.077-  22 2.95  22 2.95  22 2.95  24 2.95  24 2.95  24 2.95
  26  0.000  0.000  0.865-  28 2.96  28 2.96  28 2.96  17 3.10  17 3.10  17 3.10
  27  0.667  0.333  0.971-  22 2.95  22 2.95  22 2.95  28 2.95  28 2.95  28 2.95
  28  0.333  0.667  0.918-  27 2.95  27 2.95  27 2.95  26 2.96  26 2.96  26 2.96
 
  LATTYP: Found a hexagonal cell.
 ALAT       =     2.9932160299
 C/A-ratio  =    15.0293252584
  
  Lattice vectors:
  
 A1 = (   2.5922013181,  -1.4966076735,   0.0000000000)
 A2 = (   0.0000000000,   2.9932153469,   0.0000000000)
 A3 = (  -0.0000000000,   0.0000000000,  44.9860172828)


Analysis of symmetry for initial positions (statically):
=====================================================================
 Subroutine PRICEL returns:
 Original cell was already a primitive cell.
 

 Routine SETGRP: Setting up the symmetry group for a 
 hexagonal supercell.


 Subroutine GETGRP returns: Found  6 space group operations
 (whereof  6 operations were pure point group operations)
 out of a pool of 24 trial point group operations.


The static configuration has the point symmetry C_3v.


Analysis of symmetry for dynamics (positions and initial velocities):
=====================================================================
 Subroutine PRICEL returns:
 Original cell was already a primitive cell.
 

 Routine SETGRP: Setting up the symmetry group for a 
 hexagonal supercell.


 Subroutine GETGRP returns: Found  6 space group operations
 (whereof  6 operations were pure point group operations)
 out of a pool of 24 trial point group operations.


The dynamic configuration has the point symmetry C_3v.


Analysis of constrained symmetry for selective dynamics:
=====================================================================
 Subroutine PRICEL returns:
 Original cell was already a primitive cell.
 

 Routine SETGRP: Setting up the symmetry group for a 
 hexagonal supercell.


 Subroutine GETGRP returns: Found  6 space group operations
 (whereof  6 operations were pure point group operations)
 out of a pool of 24 trial point group operations.


The constrained configuration has the point symmetry C_3v.
 
 
 KPOINTS: K-Spacing Value to Generate K-Mesh: 0.02

Automatic generation of k-mesh.
Space group operators:
 irot       det(A)        alpha          n_x          n_y          n_z        tau_x        tau_y        tau_z
    1     1.000000     0.000000     1.000000     0.000000     0.000000     0.000000     0.000000     0.000000
    2     1.000000   120.000000     0.000000     0.000000    -1.000000     0.000000     0.000000     0.000000
    3     1.000000   120.000000    -0.000000     0.000000     1.000000     0.000000     0.000000     0.000000
    4    -1.000000   180.000000    -0.866025     0.500000    -0.000000     0.000000     0.000000     0.000000
    5    -1.000000   179.999999     0.000000     1.000000     0.000000     0.000000     0.000000     0.000000
    6    -1.000000   180.000000    -0.866025    -0.500000    -0.000000     0.000000     0.000000     0.000000
 
 Subroutine IBZKPT returns following result:
 ===========================================
 
 Found     21 irreducible k-points:
 
 Following reciprocal coordinates:
            Coordinates               Weight
  0.000000  0.000000  0.000000      1.000000
  0.076923  0.000000  0.000000      6.000000
  0.153846  0.000000 -0.000000      6.000000
  0.230769  0.000000 -0.000000      6.000000
  0.307692  0.000000 -0.000000      6.000000
  0.384615  0.000000  0.000000      6.000000
  0.461538  0.000000 -0.000000      6.000000
  0.076923  0.076923  0.000000      6.000000
  0.153846  0.076923  0.000000     12.000000
  0.230769  0.076923 -0.000000     12.000000
  0.307692  0.076923  0.000000     12.000000
  0.384615  0.076923  0.000000     12.000000
  0.461538  0.076923 -0.000000      6.000000
  0.153846  0.153846 -0.000000      6.000000
  0.230769  0.153846  0.000000     12.000000
  0.307692  0.153846 -0.000000     12.000000
  0.384615  0.153846  0.000000     12.000000
  0.230769  0.230769  0.000000      6.000000
  0.307692  0.230769 -0.000000     12.000000
  0.384615  0.230769  0.000000      6.000000
  0.307692  0.307692 -0.000000      6.000000
 
 Following cartesian coordinates:
            Coordinates               Weight
  0.000000  0.000000  0.000000      1.000000
  0.029675  0.000000  0.000000      6.000000
  0.059350  0.000000  0.000000      6.000000
  0.089024  0.000000  0.000000      6.000000
  0.118699  0.000000  0.000000      6.000000
  0.148374  0.000000  0.000000      6.000000
  0.178049  0.000000  0.000000      6.000000
  0.044512  0.025699  0.000000      6.000000
  0.074187  0.025699  0.000000     12.000000
  0.103862  0.025699  0.000000     12.000000
  0.133537  0.025699  0.000000     12.000000
  0.163211  0.025699  0.000000     12.000000
  0.192886  0.025699  0.000000      6.000000
  0.089024  0.051398  0.000000      6.000000
  0.118699  0.051398  0.000000     12.000000
  0.148374  0.051398  0.000000     12.000000
  0.178049  0.051398  0.000000     12.000000
  0.133537  0.077097  0.000000      6.000000
  0.163211  0.077097  0.000000     12.000000
  0.192886  0.077097  0.000000      6.000000
  0.178049  0.102797  0.000000      6.000000
 


--------------------------------------------------------------------------------------------------------




 Dimension of arrays:
   k-points           NKPTS =     21   k-points in BZ     NKDIM =     21   number of bands    NBANDS=     66
   number of dos      NEDOS =    301   number of ions     NIONS =     28
   non local maximal  LDIM  =      5   non local SUM 2l+1 LMDIM =     13
   total plane-waves  NPLWV = 193536
   max r-space proj   IRMAX =      1   max aug-charges    IRDMAX= 188608
   dimension x,y,z NGX =    24 NGY =   24 NGZ =  336
   dimension x,y,z NGXF=    48 NGYF=   48 NGZF=  672
   support grid    NGXF=    96 NGYF=   96 NGZF= 1344
   ions per type =              10  11   7
 NGX,Y,Z   is equivalent  to a cutoff of  13.33, 13.33, 12.42 a.u.
 NGXF,Y,Z  is equivalent  to a cutoff of  26.66, 26.66, 24.83 a.u.


 I would recommend the setting:
   dimension x,y,z NGX =    22 NGY =   22 NGZ =  335
 SYSTEM =  unknown system                          
 POSCAR =  Layer                                   

 Startparameter for this run:
   NWRITE =      2    write-flag & timer
   PREC   = accura    normal or accurate (medium, high low for compatibility)
   ISTART =      0    job   : 0-new  1-cont  2-samecut
   ICHARG =      2    charge: 1-file 2-atom 10-const
   ISPIN  =      1    spin polarized calculation?
   LNONCOLLINEAR =      F non collinear calculations
   LSORBIT =      F    spin-orbit coupling
   INIWAV =      1    electr: 0-lowe 1-rand  2-diag
   LASPH  =      F    aspherical Exc in radial PAW
   METAGGA=      F    non-selfconsistent MetaGGA calc.

 Electronic Relaxation 1
   ENCUT  =  520.0 eV  38.22 Ry    6.18 a.u.   5.57  5.57 83.64*2*pi/ulx,y,z
   ENINI  =  520.0     initial cutoff
   ENAUG  =  605.4 eV  augmentation charge cutoff
   NELM   =    100;   NELMIN=  6; NELMDL=  0     # of ELM steps 
   EDIFF  = 0.1E-04   stopping-criterion for ELM
   LREAL  =      F    real-space projection
   NLSPLINE    = F    spline interpolate recip. space projectors
   LCOMPAT=      F    compatible to vasp.4.4
   GGA_COMPAT  = T    GGA compatible to vasp.4.4-vasp.4.6
   LMAXPAW     = -100 max onsite density
   LMAXMIX     =    2 max onsite mixed and CHGCAR
   VOSKOWN=      0    Vosko Wilk Nusair interpolation
   ROPT   =    0.00000   0.00000   0.00000
 Ionic relaxation
   EDIFFG = -.2E-01   stopping-criterion for IOM
   NSW    =    500    number of steps for IOM
   NBLOCK =      1;   KBLOCK =    500    inner block; outer block 
   IBRION =      2    ionic relax: 0-MD 1-quasi-New 2-CG
   NFREE  =      1    steps in history (QN), initial steepest desc. (CG)
   ISIF   =      2    stress and relaxation
   IWAVPR =     11    prediction:  0-non 1-charg 2-wave 3-comb
   ISYM   =      2    0-nonsym 1-usesym 2-fastsym
   LCORR  =      T    Harris-Foulkes like correction to forces

   POTIM  = 0.5000    time-step for ionic-motion
   TEIN   =    0.0    initial temperature
   TEBEG  =    0.0;   TEEND  =   0.0 temperature during run
   SMASS  =  -3.00    Nose mass-parameter (am)
   estimated Nose-frequenzy (Omega)   =  0.10E-29 period in steps =****** mass=  -0.205E-27a.u.
   SCALEE = 1.0000    scale energy and forces
   NPACO  =    256;   APACO  = 16.0  distance and # of slots for P.C.
   PSTRESS=    0.0 pullay stress

  Mass of Ions in am
   POMASS =  16.00 24.30 26.98
  Ionic Valenz
   ZVAL   =   6.00  2.00  3.00
  Atomic Wigner-Seitz radii
   RWIGS  =  -1.00 -1.00 -1.00
  virtual crystal weights 
   VCA    =   1.00  1.00  1.00
   NELECT =     103.0000    total number of electrons
   NUPDOWN=      -1.0000    fix difference up-down

 DOS related values:
   EMIN   =  10.00;   EMAX   =-10.00  energy-range for DOS
   EFERMI =   0.00
   ISMEAR =     0;   SIGMA  =   0.05  broadening in eV -4-tet -1-fermi 0-gaus

 Electronic relaxation 2 (details)
   IALGO  =     38    algorithm
   LDIAG  =      T    sub-space diagonalisation (order eigenvalues)
   LSUBROT=      F    optimize rotation matrix (better conditioning)
   TURBO    =      0    0=normal 1=particle mesh
   IRESTART =      0    0=no restart 2=restart with 2 vectors
   NREBOOT  =      0    no. of reboots
   NMIN     =      0    reboot dimension
   EREF     =   0.00    reference energy to select bands
   IMIX   =      4    mixing-type and parameters
     AMIX     =   0.40;   BMIX     =  1.00
     AMIX_MAG =   1.60;   BMIX_MAG =  1.00
     AMIN     =   0.01
     WC   =   100.;   INIMIX=   1;  MIXPRE=   1;  MAXMIX= -45

 Intra band minimization:
   WEIMIN = 0.0010     energy-eigenvalue tresh-hold
   EBREAK =  0.38E-07  absolut break condition
   DEPER  =   0.30     relativ break condition  

   TIME   =   0.40     timestep for ELM

  volume/ion in A,a.u.               =      12.47        84.12
  Fermi-wavevector in a.u.,A,eV,Ry     =   1.089915  2.059640 16.162551  1.187914
  Thomas-Fermi vector in A             =   2.226128
 
 Write flags
   LWAVE  =      F    write WAVECAR
   LCHARG =      T    write CHGCAR
   LVTOT  =      F    write LOCPOT, total local potential
   LVHAR  =      F    write LOCPOT, Hartree potential only
   LELF   =      F    write electronic localiz. function (ELF)
   LORBIT =      0    0 simple, 1 ext, 2 COOP (PROOUT)


 Dipole corrections
   LMONO  =      F    monopole corrections only (constant potential shift)
   LDIPOL =      F    correct potential (dipole corrections)
   IDIPOL =      0    1-x, 2-y, 3-z, 4-all directions 
   EPSILON=  1.0000000 bulk dielectric constant

 Exchange correlation treatment:
   GGA     =    --    GGA type
   LEXCH   =     8    internal setting for exchange type
   VOSKOWN=      0    Vosko Wilk Nusair interpolation
   LHFCALC =     F    Hartree Fock is set to
   LHFONE  =     F    Hartree Fock one center treatment
   AEXX    =    0.0000 exact exchange contribution

 Linear response parameters
   LEPSILON=     F    determine dielectric tensor
   LRPA    =     F    only Hartree local field effects (RPA)
   LNABLA  =     F    use nabla operator in PAW spheres
   LVEL    =     F    velocity operator in full k-point grid
   LINTERFAST=   F  fast interpolation
   KINTER  =     0    interpolate to denser k-point grid
   CSHIFT  =0.1000    complex shift for real part using Kramers Kronig
   OMEGAMAX=  -1.0    maximum frequency
   DEG_THRESHOLD= 0.2000000E-02 threshold for treating states as degnerate
   RTIME   =    0.100 relaxation time in fs

 Orbital magnetization related:
   ORBITALMAG=     F  switch on orbital magnetization
   LCHIMAG   =     F  perturbation theory with respect to B field
   DQ        =  0.001000  dq finite difference perturbation B field



--------------------------------------------------------------------------------------------------------


 conjugate gradient relaxation of ions
   using selective dynamics as specified on POSCAR
 charge density and potential will be updated during run
 non-spin polarized calculation
 Variant of blocked Davidson
 Davidson routine will perform the subspace rotation
 perform sub-space diagonalisation
    after iterative eigenvector-optimisation
 modified Broyden-mixing scheme, WC =      100.0
 initial mixing is a Kerker type mixing with AMIX =  0.4000 and BMIX =      1.0000
 Hartree-type preconditioning will be used
 using additional bands           14
 reciprocal scheme for non local part
 use partial core corrections
 calculate Harris-corrections to forces 
   (improved forces if not selfconsistent)
 use gradient corrections 
 use of overlap-Matrix (Vanderbilt PP)
 Gauss-broadening in eV      SIGMA  =   0.05


--------------------------------------------------------------------------------------------------------


  energy-cutoff  :      520.00
  volume of cell :      349.05
      direct lattice vectors                 reciprocal lattice vectors
     2.592201318 -1.496607673  0.000000000     0.385772507  0.000000000  0.000000000
     0.000000000  2.993215347  0.000000000     0.192886253  0.334088892  0.000000000
    -0.000000000  0.000000000 44.986017283     0.000000000  0.000000000  0.022229129

  length of vectors
     2.993216030  2.993215347 44.986017283     0.385772507  0.385772595  0.022229129


 
 k-points in units of 2pi/SCALE and weight: K-Spacing Value to Generate K-Mesh: 0.02
   0.00000000  0.00000000  0.00000000       0.006
   0.02967481  0.00000000  0.00000000       0.036
   0.05934962  0.00000000  0.00000000       0.036
   0.08902442  0.00000000  0.00000000       0.036
   0.11869923  0.00000000  0.00000000       0.036
   0.14837404  0.00000000  0.00000000       0.036
   0.17804885  0.00000000  0.00000000       0.036
   0.04451221  0.02569915  0.00000000       0.036
   0.07418702  0.02569915  0.00000000       0.071
   0.10386183  0.02569915  0.00000000       0.071
   0.13353664  0.02569915  0.00000000       0.071
   0.16321145  0.02569915  0.00000000       0.071
   0.19288625  0.02569915  0.00000000       0.036
   0.08902442  0.05139829  0.00000000       0.036
   0.11869923  0.05139829  0.00000000       0.071
   0.14837404  0.05139829  0.00000000       0.071
   0.17804885  0.05139829  0.00000000       0.071
   0.13353664  0.07709744  0.00000000       0.036
   0.16321145  0.07709744  0.00000000       0.071
   0.19288625  0.07709744  0.00000000       0.036
   0.17804885  0.10279658  0.00000000       0.036
 
 k-points in reciprocal lattice and weights: K-Spacing Value to Generate K-Mesh: 0.02
   0.00000000  0.00000000  0.00000000       0.006
   0.07692308  0.00000000  0.00000000       0.036
   0.15384615  0.00000000 -0.00000000       0.036
   0.23076923  0.00000000 -0.00000000       0.036
   0.30769231  0.00000000 -0.00000000       0.036
   0.38461538  0.00000000  0.00000000       0.036
   0.46153846  0.00000000 -0.00000000       0.036
   0.07692308  0.07692308  0.00000000       0.036
   0.15384615  0.07692308  0.00000000       0.071
   0.23076923  0.07692308 -0.00000000       0.071
   0.30769231  0.07692308  0.00000000       0.071
   0.38461538  0.07692308  0.00000000       0.071
   0.46153846  0.07692308 -0.00000000       0.036
   0.15384615  0.15384615 -0.00000000       0.036
   0.23076923  0.15384615  0.00000000       0.071
   0.30769231  0.15384615 -0.00000000       0.071
   0.38461538  0.15384615  0.00000000       0.071
   0.23076923  0.23076923  0.00000000       0.036
   0.30769231  0.23076923 -0.00000000       0.071
   0.38461538  0.23076923  0.00000000       0.036
   0.30769231  0.30769231 -0.00000000       0.036
 
 position of ions in fractional coordinates (direct lattice) 
   0.00000000  0.00000000  0.27053635
   0.33333300  0.66666700  0.32685440
   0.00000000  0.00000000  0.43964937
   0.33333300  0.66666700  0.49610165
   0.00000000  0.00000000  0.60898733
   0.33333300  0.66666700  0.66541917
   0.00000000  0.00000000  0.77810590
   0.66666700  0.33333300  0.38322005
   0.66666700  0.33333300  0.55253311
   0.66666700  0.33333300  0.72179239
   0.00000000  0.00000000  0.35504473
   0.00000000  0.00000000  0.52431936
   0.00000000  0.00000000  0.69359157
   0.66666700  0.33333300  0.29867275
   0.66666700  0.33333300  0.46788580
   0.66666700  0.33333300  0.63719391
   0.66666700  0.33333300  0.80725496
   0.33333300  0.66666700  0.24139338
   0.33333300  0.66666700  0.41144327
   0.33333300  0.66666700  0.58075284
   0.33333300  0.66666700  0.74996585
   0.00000000  0.00000000  0.02432070
   0.00000000  0.00000000  0.18408700
   0.66666700  0.33333300  0.13062025
   0.33333300  0.66666700  0.07738055
   0.00000000  0.00000000  0.86455783
   0.66666700  0.33333300  0.97126226
   0.33333300  0.66666700  0.91802428
 
 position of ions in cartesian coordinates  (Angst):
  -0.00000000  0.00000000 12.17035303
   0.86406624  1.49660917 14.70387780
  -0.00000000  0.00000000 19.77807436
   0.86406624  1.49660917 22.31763757
  -0.00000000  0.00000000 27.39591466
   0.86406624  1.49660917 29.93455825
  -0.00000000  0.00000000 35.00388532
   1.72813508 -0.00000150 17.23954380
   1.72813508 -0.00000150 24.85626384
   1.72813508 -0.00000150 32.47056478
  -0.00000000  0.00000000 15.97204825
  -0.00000000  0.00000000 23.58703967
  -0.00000000  0.00000000 31.20192254
   1.72813508 -0.00000150 13.43609753
   1.72813508 -0.00000150 21.04831869
   1.72813508 -0.00000150 28.66481646
   1.72813508 -0.00000150 36.31518557
   0.86406624  1.49660917 10.85932658
   0.86406624  1.49660917 18.50919398
   0.86406624  1.49660917 26.12575709
   0.86406624  1.49660917 33.73797660
  -0.00000000  0.00000000  1.09409160
  -0.00000000  0.00000000  8.28134074
   1.72813508 -0.00000150  5.87608465
   0.86406624  1.49660917  3.48104286
  -0.00000000  0.00000000 38.89301339
   1.72813508 -0.00000150 43.69322089
   0.86406624  1.49660917 41.29825600
 


--------------------------------------------------------------------------------------------------------


 k-point  1 :   0.0000 0.0000 0.0000  plane waves:    9515
 k-point  2 :   0.0769 0.0000 0.0000  plane waves:    9519
 k-point  3 :   0.1538 0.0000-0.0000  plane waves:    9495
 k-point  4 :   0.2308 0.0000-0.0000  plane waves:    9458
 k-point  5 :   0.3077 0.0000-0.0000  plane waves:    9404
 k-point  6 :   0.3846 0.0000 0.0000  plane waves:    9342
 k-point  7 :   0.4615 0.0000-0.0000  plane waves:    9356
 k-point  8 :   0.0769 0.0769 0.0000  plane waves:    9495
 k-point  9 :   0.1538 0.0769 0.0000  plane waves:    9466
 k-point 10 :   0.2308 0.0769-0.0000  plane waves:    9411
 k-point 11 :   0.3077 0.0769 0.0000  plane waves:    9404
 k-point 12 :   0.3846 0.0769 0.0000  plane waves:    9346
 k-point 13 :   0.4615 0.0769-0.0000  plane waves:    9322
 k-point 14 :   0.1538 0.1538-0.0000  plane waves:    9429
 k-point 15 :   0.2308 0.1538 0.0000  plane waves:    9388
 k-point 16 :   0.3077 0.1538-0.0000  plane waves:    9382
 k-point 17 :   0.3846 0.1538 0.0000  plane waves:    9326
 k-point 18 :   0.2308 0.2308 0.0000  plane waves:    9400
 k-point 19 :   0.3077 0.2308-0.0000  plane waves:    9345
 k-point 20 :   0.3846 0.2308 0.0000  plane waves:    9364
 k-point 21 :   0.3077 0.3077-0.0000  plane waves:    9396

 maximum and minimum number of plane-waves per node :      2407     2321

 maximum number of plane-waves:      9519
 maximum index in each direction: 
   IXMAX=    5   IYMAX=    5   IZMAX=   83
   IXMIN=   -6   IYMIN=   -5   IZMIN=  -83

 NGX is ok and might be reduce to  24
 NGY is ok and might be reduce to  22
 NGZ is ok and might be reduce to 334

 parallel 3D FFT for wavefunctions:
    minimum data exchange during FFTs selected (reduces bandwidth)
 parallel 3D FFT for charge:
    minimum data exchange during FFTs selected (reduces bandwidth)


 total amount of memory used by VASP on root node   155569. kBytes
========================================================================

   base      :      30000. kBytes
   nonl-proj :      16856. kBytes
   fftplans  :      57935. kBytes
   grid      :      23224. kBytes
   one-center:         56. kBytes
   wavefun   :      27498. kBytes
 
     INWAV:  cpu time    0.00: real time    0.00
 Broyden mixing: mesh for mixing (old mesh)
   NGX = 11   NGY = 11   NGZ =167
  (NGX  = 48   NGY  = 48   NGZ  =672)
  gives a total of  20207 points

 initial charge density was supplied:
 charge density of overlapping atoms calculated
 number of electron     103.0000000 magnetization 
 keeping initial charge density in first step


--------------------------------------------------------------------------------------------------------


 Maximum index for augmentation-charges        22712 (set IRDMAX)


--------------------------------------------------------------------------------------------------------


 First call to EWALD:  gamma=   0.252
 Maximum number of real-space cells 7x 7x 1
 Maximum number of reciprocal cells 1x 1x15

 FEWALD executed in parallel
    FEWALD:  cpu time    0.00: real time    0.00


----------------------------------------- Iteration    1(   1)  ---------------------------------------


    POTLOK:  cpu time    0.11: real time    0.11
    SETDIJ:  cpu time    0.11: real time    0.11
     EDDAV:  cpu time    4.83: real time    4.87
       DOS:  cpu time    0.00: real time    0.00
    --------------------------------------------
      LOOP:  cpu time    5.04: real time    5.08

 eigenvalue-minimisations  :  2796
 total energy-change (2. order) : 0.5190415E+03  (-0.4548715E+04)
 number of electron     103.0000000 magnetization 
 augmentation part      103.0000000 magnetization 

 Free energy of the ion-electron system (eV)
  ---------------------------------------------------
  alpha Z        PSCENC =       139.07099193
  Ewald energy   TEWEN  =     16192.29432995
  -Hartree energ DENC   =    -21424.59936601
  -exchange      EXHF   =         0.00000000
  -V(xc)+E(xc)   XCENC  =      -440.12814912
  PAW double counting   =      4647.26951674    -3871.08436696
  entropy T*S    EENTRO =        -0.00369129
  eigenvalues    EBANDS =       324.46767614
  atomic energy  EATOM  =      4951.75456612
  ---------------------------------------------------
  free energy    TOTEN  =       519.04150751 eV

  energy without entropy =      519.04519880  energy(sigma->0) =      519.04335315


--------------------------------------------------------------------------------------------------------




----------------------------------------- Iteration    1(   2)  ---------------------------------------


     EDDAV:  cpu time    5.81: real time    5.82
       DOS:  cpu time    0.00: real time    0.00
    --------------------------------------------
      LOOP:  cpu time    5.81: real time    5.82

 eigenvalue-minimisations  :  3584
 total energy-change (2. order) :-0.6208583E+03  (-0.5900065E+03)
 number of electron     103.0000000 magnetization 
 augmentation part      103.0000000 magnetization 

 Free energy of the ion-electron system (eV)
  ---------------------------------------------------
  alpha Z        PSCENC =       139.07099193
  Ewald energy   TEWEN  =     16192.29432995
  -Hartree energ DENC   =    -21424.59936601
  -exchange      EXHF   =         0.00000000
  -V(xc)+E(xc)   XCENC  =      -440.12814912
  PAW double counting   =      4647.26951674    -3871.08436696
  entropy T*S    EENTRO =        -0.00544930
  eigenvalues    EBANDS =      -296.38885878
  atomic energy  EATOM  =      4951.75456612
  ---------------------------------------------------
  free energy    TOTEN  =      -101.81678542 eV

  energy without entropy =     -101.81133612  energy(sigma->0) =     -101.81406077


--------------------------------------------------------------------------------------------------------




----------------------------------------- Iteration    1(   3)  ---------------------------------------


     EDDAV:  cpu time    5.33: real time    5.34
       DOS:  cpu time    0.00: real time    0.00
    --------------------------------------------
      LOOP:  cpu time    5.34: real time    5.34

 eigenvalue-minimisations  :  3230
 total energy-change (2. order) :-0.5902408E+02  (-0.5870824E+02)
 number of electron     103.0000000 magnetization 
 augmentation part      103.0000000 magnetization 

 Free energy of the ion-electron system (eV)
  ---------------------------------------------------
  alpha Z        PSCENC =       139.07099193
  Ewald energy   TEWEN  =     16192.29432995
  -Hartree energ DENC   =    -21424.59936601
  -exchange      EXHF   =         0.00000000
  -V(xc)+E(xc)   XCENC  =      -440.12814912
  PAW double counting   =      4647.26951674    -3871.08436696
  entropy T*S    EENTRO =        -0.00748382
  eigenvalues    EBANDS =      -355.41090432
  atomic energy  EATOM  =      4951.75456612
  ---------------------------------------------------
  free energy    TOTEN  =      -160.84086549 eV

  energy without entropy =     -160.83338167  energy(sigma->0) =     -160.83712358


--------------------------------------------------------------------------------------------------------




----------------------------------------- Iteration    1(   4)  ---------------------------------------


     EDDAV:  cpu time    5.27: real time    5.28
       DOS:  cpu time    0.00: real time    0.00
    --------------------------------------------
      LOOP:  cpu time    5.28: real time    5.28

 eigenvalue-minimisations  :  3224
 total energy-change (2. order) :-0.7640561E+00  (-0.7630139E+00)
 number of electron     103.0000000 magnetization 
 augmentation part      103.0000000 magnetization 

 Free energy of the ion-electron system (eV)
  ---------------------------------------------------
  alpha Z        PSCENC =       139.07099193
  Ewald energy   TEWEN  =     16192.29432995
  -Hartree energ DENC   =    -21424.59936601
  -exchange      EXHF   =         0.00000000
  -V(xc)+E(xc)   XCENC  =      -440.12814912
  PAW double counting   =      4647.26951674    -3871.08436696
  entropy T*S    EENTRO =        -0.00749630
  eigenvalues    EBANDS =      -356.17494797
  atomic energy  EATOM  =      4951.75456612
  ---------------------------------------------------
  free energy    TOTEN  =      -161.60492161 eV

  energy without entropy =     -161.59742531  energy(sigma->0) =     -161.60117346


--------------------------------------------------------------------------------------------------------




----------------------------------------- Iteration    1(   5)  ---------------------------------------


     EDDAV:  cpu time    5.44: real time    5.45
       DOS:  cpu time    0.00: real time    0.00
    CHARGE:  cpu time    0.41: real time    0.41
    MIXING:  cpu time    0.00: real time    0.00
    --------------------------------------------
      LOOP:  cpu time    5.86: real time    5.86

 eigenvalue-minimisations  :  3256
 total energy-change (2. order) :-0.1175031E-01  (-0.1174492E-01)
 number of electron     103.0000001 magnetization 
 augmentation part        7.7178914 magnetization 

 Broyden mixing:
  rms(total) = 0.23054E+01    rms(broyden)= 0.23049E+01
  rms(prec ) = 0.23572E+01
  weight for this iteration     100.00

 Free energy of the ion-electron system (eV)
  ---------------------------------------------------
  alpha Z        PSCENC =       139.07099193
  Ewald energy   TEWEN  =     16192.29432995
  -Hartree energ DENC   =    -21424.59936601
  -exchange      EXHF   =         0.00000000
  -V(xc)+E(xc)   XCENC  =      -440.12814912
  PAW double counting   =      4647.26951674    -3871.08436696
  entropy T*S    EENTRO =        -0.00748593
  eigenvalues    EBANDS =      -356.18670865
  atomic energy  EATOM  =      4951.75456612
  ---------------------------------------------------
  free energy    TOTEN  =      -161.61667192 eV

  energy without entropy =     -161.60918600  energy(sigma->0) =     -161.61292896


--------------------------------------------------------------------------------------------------------




----------------------------------------- Iteration    1(   6)  ---------------------------------------


    POTLOK:  cpu time    0.11: real time    0.11
    SETDIJ:  cpu time    0.11: real time    0.11
     EDDAV:  cpu time    5.23: real time    5.23
       DOS:  cpu time    0.00: real time    0.00
    CHARGE:  cpu time    0.40: real time    0.40
    MIXING:  cpu time    0.00: real time    0.00
    --------------------------------------------
      LOOP:  cpu time    5.85: real time    5.86

 eigenvalue-minimisations  :  3114
 total energy-change (2. order) : 0.1600331E+02  (-0.9353151E+01)
 number of electron     103.0000001 magnetization 
 augmentation part        6.2313765 magnetization 

 Broyden mixing:
  rms(total) = 0.78738E+00    rms(broyden)= 0.78645E+00
  rms(prec ) = 0.79345E+00
  weight for this iteration     100.00

 eigenvalues of (default mixing * dielectric matrix)
  average eigenvalue GAMMA=   0.8359
  0.8359

 Free energy of the ion-electron system (eV)
  ---------------------------------------------------
  alpha Z        PSCENC =       139.07099193
  Ewald energy   TEWEN  =     16192.29432995
  -Hartree energ DENC   =    -21615.74495445
  -exchange      EXHF   =         0.00000000
  -V(xc)+E(xc)   XCENC  =      -426.62881721
  PAW double counting   =      5494.29580632    -4721.56576074
  entropy T*S    EENTRO =        -0.00558009
  eigenvalues    EBANDS =      -159.08394713
  atomic energy  EATOM  =      4951.75456612
  ---------------------------------------------------
  free energy    TOTEN  =      -145.61336529 eV

  energy without entropy =     -145.60778521  energy(sigma->0) =     -145.61057525


--------------------------------------------------------------------------------------------------------




----------------------------------------- Iteration    1(   7)  ---------------------------------------


    POTLOK:  cpu time    0.11: real time    0.11
    SETDIJ:  cpu time    0.11: real time    0.11
     EDDAV:  cpu time    5.15: real time    5.16
       DOS:  cpu time    0.00: real time    0.00
    CHARGE:  cpu time    0.40: real time    0.41
    MIXING:  cpu time    0.00: real time    0.00
    --------------------------------------------
      LOOP:  cpu time    5.77: real time    5.78

 eigenvalue-minimisations  :  3070
 total energy-change (2. order) : 0.1455476E+00  (-0.1759284E+00)
 number of electron     103.0000001 magnetization 
 augmentation part        6.2818871 magnetization 

 Broyden mixing:
  rms(total) = 0.47723E+00    rms(broyden)= 0.47722E+00
  rms(prec ) = 0.48194E+00
  weight for this iteration     100.00

 eigenvalues of (default mixing * dielectric matrix)
  average eigenvalue GAMMA=   1.6383
  0.9695  2.3071

 Free energy of the ion-electron system (eV)
  ---------------------------------------------------
  alpha Z        PSCENC =       139.07099193
  Ewald energy   TEWEN  =     16192.29432995
  -Hartree energ DENC   =    -21612.55162582
  -exchange      EXHF   =         0.00000000
  -V(xc)+E(xc)   XCENC  =      -426.30826636
  PAW double counting   =      5782.49155165    -5009.27464905
  entropy T*S    EENTRO =        -0.00672506
  eigenvalues    EBANDS =      -162.93799110
  atomic energy  EATOM  =      4951.75456612
  ---------------------------------------------------
  free energy    TOTEN  =      -145.46781774 eV

  energy without entropy =     -145.46109268  energy(sigma->0) =     -145.46445521


--------------------------------------------------------------------------------------------------------




----------------------------------------- Iteration    1(   8)  ---------------------------------------


    POTLOK:  cpu time    0.11: real time    0.11
    SETDIJ:  cpu time    0.11: real time    0.11
     EDDAV:  cpu time    5.30: real time    5.31
       DOS:  cpu time    0.00: real time    0.00
    CHARGE:  cpu time    0.40: real time    0.40
    MIXING:  cpu time    0.01: real time    0.01
    --------------------------------------------
      LOOP:  cpu time    5.92: real time    5.93

 eigenvalue-minimisations  :  3188
 total energy-change (2. order) : 0.1148450E+00  (-0.5302087E-01)
 number of electron     103.0000001 magnetization 
 augmentation part        6.3354186 magnetization 

 Broyden mixing:
  rms(total) = 0.80333E-01    rms(broyden)= 0.80280E-01
  rms(prec ) = 0.86563E-01
  weight for this iteration     100.00

 eigenvalues of (default mixing * dielectric matrix)
  average eigenvalue GAMMA=   1.3967
  2.4390  0.8756  0.8756

 Free energy of the ion-electron system (eV)
  ---------------------------------------------------
  alpha Z        PSCENC =       139.07099193
  Ewald energy   TEWEN  =     16192.29432995
  -Hartree energ DENC   =    -21618.12055016
  -exchange      EXHF   =         0.00000000
  -V(xc)+E(xc)   XCENC  =      -424.71423513
  PAW double counting   =      6290.06294225    -5516.48837135
  entropy T*S    EENTRO =        -0.00767367
  eigenvalues    EBANDS =      -159.20497265
  atomic energy  EATOM  =      4951.75456612
  ---------------------------------------------------
  free energy    TOTEN  =      -145.35297271 eV

  energy without entropy =     -145.34529904  energy(sigma->0) =     -145.34913587


--------------------------------------------------------------------------------------------------------




----------------------------------------- Iteration    1(   9)  ---------------------------------------


    POTLOK:  cpu time    0.10: real time    0.10
    SETDIJ:  cpu time    0.11: real time    0.11
     EDDAV:  cpu time    5.25: real time    5.25
       DOS:  cpu time    0.00: real time    0.00
    CHARGE:  cpu time    0.40: real time    0.40
    MIXING:  cpu time    0.01: real time    0.01
    --------------------------------------------
      LOOP:  cpu time    5.86: real time    5.87

 eigenvalue-minimisations  :  3140
 total energy-change (2. order) : 0.1330119E-01  (-0.9601205E-02)
 number of electron     103.0000001 magnetization 
 augmentation part        6.3120874 magnetization 

 Broyden mixing:
  rms(total) = 0.48662E-01    rms(broyden)= 0.48660E-01
  rms(prec ) = 0.49743E-01
  weight for this iteration     100.00

 eigenvalues of (default mixing * dielectric matrix)
  average eigenvalue GAMMA=   1.4801
  2.4449  0.9919  0.9919  1.4917

 Free energy of the ion-electron system (eV)
  ---------------------------------------------------
  alpha Z        PSCENC =       139.07099193
  Ewald energy   TEWEN  =     16192.29432995
  -Hartree energ DENC   =    -21622.26545228
  -exchange      EXHF   =         0.00000000
  -V(xc)+E(xc)   XCENC  =      -424.32870415
  PAW double counting   =      6307.11788399    -5533.59884445
  entropy T*S    EENTRO =        -0.00731806
  eigenvalues    EBANDS =      -155.37712457
  atomic energy  EATOM  =      4951.75456612
  ---------------------------------------------------
  free energy    TOTEN  =      -145.33967152 eV

  energy without entropy =     -145.33235346  energy(sigma->0) =     -145.33601249


--------------------------------------------------------------------------------------------------------




----------------------------------------- Iteration    1(  10)  ---------------------------------------


    POTLOK:  cpu time    0.11: real time    0.11
    SETDIJ:  cpu time    0.11: real time    0.11
     EDDAV:  cpu time    5.26: real time    5.27
       DOS:  cpu time    0.00: real time    0.00
    CHARGE:  cpu time    0.40: real time    0.40
    MIXING:  cpu time    0.01: real time    0.01
    --------------------------------------------
      LOOP:  cpu time    5.89: real time    5.90

 eigenvalue-minimisations  :  3134
 total energy-change (2. order) : 0.4179988E-03  (-0.4083001E-02)
 number of electron     103.0000001 magnetization 
 augmentation part        6.2950684 magnetization 

 Broyden mixing:
  rms(total) = 0.24525E-01    rms(broyden)= 0.24504E-01
  rms(prec ) = 0.25093E-01
  weight for this iteration     100.00

 eigenvalues of (default mixing * dielectric matrix)
  average eigenvalue GAMMA=   1.3205
  2.5095  1.8381  0.9266  0.9266  0.4020

 Free energy of the ion-electron system (eV)
  ---------------------------------------------------
  alpha Z        PSCENC =       139.07099193
  Ewald energy   TEWEN  =     16192.29432995
  -Hartree energ DENC   =    -21623.66829070
  -exchange      EXHF   =         0.00000000
  -V(xc)+E(xc)   XCENC  =      -424.17218427
  PAW double counting   =      6292.34413302    -5518.85312394
  entropy T*S    EENTRO =        -0.00731338
  eigenvalues    EBANDS =      -154.10236226
  atomic energy  EATOM  =      4951.75456612
  ---------------------------------------------------
  free energy    TOTEN  =      -145.33925352 eV

  energy without entropy =     -145.33194014  energy(sigma->0) =     -145.33559683


--------------------------------------------------------------------------------------------------------




----------------------------------------- Iteration    1(  11)  ---------------------------------------


    POTLOK:  cpu time    0.11: real time    0.11
    SETDIJ:  cpu time    0.11: real time    0.11
     EDDAV:  cpu time    5.18: real time    5.18
       DOS:  cpu time    0.00: real time    0.00
    CHARGE:  cpu time    0.40: real time    0.40
    MIXING:  cpu time    0.01: real time    0.01
    --------------------------------------------
      LOOP:  cpu time    5.81: real time    5.81

 eigenvalue-minimisations  :  3092
 total energy-change (2. order) :-0.5761607E-03  (-0.3787450E-03)
 number of electron     103.0000001 magnetization 
 augmentation part        6.2967238 magnetization 

 Broyden mixing:
  rms(total) = 0.17349E-01    rms(broyden)= 0.17348E-01
  rms(prec ) = 0.17770E-01
  weight for this iteration     100.00

 eigenvalues of (default mixing * dielectric matrix)
  average eigenvalue GAMMA=   1.4041
  2.7253  2.2021  0.8910  0.8910  0.9865  0.7284

 Free energy of the ion-electron system (eV)
  ---------------------------------------------------
  alpha Z        PSCENC =       139.07099193
  Ewald energy   TEWEN  =     16192.29432995
  -Hartree energ DENC   =    -21623.60005387
  -exchange      EXHF   =         0.00000000
  -V(xc)+E(xc)   XCENC  =      -424.12392117
  PAW double counting   =      6273.22710778    -5499.73915478
  entropy T*S    EENTRO =        -0.00728697
  eigenvalues    EBANDS =      -154.21640869
  atomic energy  EATOM  =      4951.75456612
  ---------------------------------------------------
  free energy    TOTEN  =      -145.33982968 eV

  energy without entropy =     -145.33254271  energy(sigma->0) =     -145.33618619


--------------------------------------------------------------------------------------------------------




----------------------------------------- Iteration    1(  12)  ---------------------------------------


    POTLOK:  cpu time    0.10: real time    0.10
    SETDIJ:  cpu time    0.11: real time    0.11
     EDDAV:  cpu time    6.20: real time    6.21
       DOS:  cpu time    0.00: real time    0.00
    CHARGE:  cpu time    0.41: real time    0.41
    MIXING:  cpu time    0.01: real time    0.01
    --------------------------------------------
      LOOP:  cpu time    6.84: real time    6.85

 eigenvalue-minimisations  :  3912
 total energy-change (2. order) : 0.1111109E-03  (-0.2528241E-03)
 number of electron     103.0000001 magnetization 
 augmentation part        6.2949809 magnetization 

 Broyden mixing:
  rms(total) = 0.73374E-02    rms(broyden)= 0.73348E-02
  rms(prec ) = 0.77598E-02
  weight for this iteration     100.00

 eigenvalues of (default mixing * dielectric matrix)
  average eigenvalue GAMMA=   1.4062
  2.9107  2.4982  0.9432  0.9432  0.9346  0.9346  0.6792

 Free energy of the ion-electron system (eV)
  ---------------------------------------------------
  alpha Z        PSCENC =       139.07099193
  Ewald energy   TEWEN  =     16192.29432995
  -Hartree energ DENC   =    -21623.63448406
  -exchange      EXHF   =         0.00000000
  -V(xc)+E(xc)   XCENC  =      -424.07077774
  PAW double counting   =      6253.38243936    -5479.90958999
  entropy T*S    EENTRO =        -0.00729577
  eigenvalues    EBANDS =      -154.21989838
  atomic energy  EATOM  =      4951.75456612
  ---------------------------------------------------
  free energy    TOTEN  =      -145.33971857 eV

  energy without entropy =     -145.33242280  energy(sigma->0) =     -145.33607068


--------------------------------------------------------------------------------------------------------




----------------------------------------- Iteration    1(  13)  ---------------------------------------


    POTLOK:  cpu time    0.11: real time    0.11
    SETDIJ:  cpu time    0.11: real time    0.11
     EDDAV:  cpu time    5.28: real time    5.29
       DOS:  cpu time    0.00: real time    0.00
    CHARGE:  cpu time    0.40: real time    0.40
    MIXING:  cpu time    0.01: real time    0.01
    --------------------------------------------
      LOOP:  cpu time    5.90: real time    5.91

 eigenvalue-minimisations  :  3170
 total energy-change (2. order) : 0.4070457E-04  (-0.1323279E-03)
 number of electron     103.0000001 magnetization 
 augmentation part        6.2989070 magnetization 

 Broyden mixing:
  rms(total) = 0.46011E-02    rms(broyden)= 0.45979E-02
  rms(prec ) = 0.49968E-02
  weight for this iteration     100.00

 eigenvalues of (default mixing * dielectric matrix)
  average eigenvalue GAMMA=   1.3670
  2.9421  2.5137  0.9810  0.9810  1.0309  0.8880  0.8880  0.7116

 Free energy of the ion-electron system (eV)
  ---------------------------------------------------
  alpha Z        PSCENC =       139.07099193
  Ewald energy   TEWEN  =     16192.29432995
  -Hartree energ DENC   =    -21623.01974356
  -exchange      EXHF   =         0.00000000
  -V(xc)+E(xc)   XCENC  =      -424.09734678
  PAW double counting   =      6243.43189999    -5469.95428524
  entropy T*S    EENTRO =        -0.00731270
  eigenvalues    EBANDS =      -154.81277757
  atomic energy  EATOM  =      4951.75456612
  ---------------------------------------------------
  free energy    TOTEN  =      -145.33967786 eV

  energy without entropy =     -145.33236517  energy(sigma->0) =     -145.33602151


--------------------------------------------------------------------------------------------------------




----------------------------------------- Iteration    1(  14)  ---------------------------------------


    POTLOK:  cpu time    0.11: real time    0.11
    SETDIJ:  cpu time    0.11: real time    0.11
     EDDAV:  cpu time    5.66: real time    5.67
       DOS:  cpu time    0.00: real time    0.00
    CHARGE:  cpu time    0.41: real time    0.41
    MIXING:  cpu time    0.01: real time    0.01
    --------------------------------------------
      LOOP:  cpu time    6.30: real time    6.31

 eigenvalue-minimisations  :  3496
 total energy-change (2. order) : 0.5531337E-04  (-0.1732113E-04)
 number of electron     103.0000001 magnetization 
 augmentation part        6.2992274 magnetization 

 Broyden mixing:
  rms(total) = 0.22807E-02    rms(broyden)= 0.22802E-02
  rms(prec ) = 0.28093E-02
  weight for this iteration     100.00

 eigenvalues of (default mixing * dielectric matrix)
  average eigenvalue GAMMA=   1.3880
  2.9945  2.5670  1.3909  1.0303  1.0303  1.0518  0.8806  0.8806  0.6663

 Free energy of the ion-electron system (eV)
  ---------------------------------------------------
  alpha Z        PSCENC =       139.07099193
  Ewald energy   TEWEN  =     16192.29432995
  -Hartree energ DENC   =    -21622.90572038
  -exchange      EXHF   =         0.00000000
  -V(xc)+E(xc)   XCENC  =      -424.09921979
  PAW double counting   =      6242.73989870    -5469.26153268
  entropy T*S    EENTRO =        -0.00731756
  eigenvalues    EBANDS =      -154.92561885
  atomic energy  EATOM  =      4951.75456612
  ---------------------------------------------------
  free energy    TOTEN  =      -145.33962255 eV

  energy without entropy =     -145.33230499  energy(sigma->0) =     -145.33596377


--------------------------------------------------------------------------------------------------------




----------------------------------------- Iteration    1(  15)  ---------------------------------------


    POTLOK:  cpu time    0.11: real time    0.11
    SETDIJ:  cpu time    0.11: real time    0.11
     EDDAV:  cpu time    5.14: real time    5.15
       DOS:  cpu time    0.00: real time    0.00
    CHARGE:  cpu time    0.42: real time    0.42
    MIXING:  cpu time    0.01: real time    0.01
    --------------------------------------------
      LOOP:  cpu time    5.78: real time    5.79

 eigenvalue-minimisations  :  3102
 total energy-change (2. order) : 0.2906279E-04  (-0.6488837E-05)
 number of electron     103.0000001 magnetization 
 augmentation part        6.2991210 magnetization 

 Broyden mixing:
  rms(total) = 0.10862E-02    rms(broyden)= 0.10857E-02
  rms(prec ) = 0.17537E-02
  weight for this iteration     100.00

 eigenvalues of (default mixing * dielectric matrix)
  average eigenvalue GAMMA=   1.3903
  2.9598  2.3503  2.3503  0.9509  0.9509  1.0019  1.0019  0.6944  0.8213  0.8213

 Free energy of the ion-electron system (eV)
  ---------------------------------------------------
  alpha Z        PSCENC =       139.07099193
  Ewald energy   TEWEN  =     16192.29432995
  -Hartree energ DENC   =    -21622.78284561
  -exchange      EXHF   =         0.00000000
  -V(xc)+E(xc)   XCENC  =      -424.09988642
  PAW double counting   =      6242.46383398    -5468.98497954
  entropy T*S    EENTRO =        -0.00732416
  eigenvalues    EBANDS =      -155.04827974
  atomic energy  EATOM  =      4951.75456612
  ---------------------------------------------------
  free energy    TOTEN  =      -145.33959349 eV

  energy without entropy =     -145.33226933  energy(sigma->0) =     -145.33593141


--------------------------------------------------------------------------------------------------------




----------------------------------------- Iteration    1(  16)  ---------------------------------------


    POTLOK:  cpu time    0.11: real time    0.11
    SETDIJ:  cpu time    0.10: real time    0.10
     EDDAV:  cpu time    4.27: real time    4.27
       DOS:  cpu time    0.00: real time    0.00
    CHARGE:  cpu time    0.41: real time    0.41
    MIXING:  cpu time    0.01: real time    0.01
    --------------------------------------------
      LOOP:  cpu time    4.90: real time    4.91

 eigenvalue-minimisations  :  2324
 total energy-change (2. order) : 0.2101248E-04  (-0.2457904E-05)
 number of electron     103.0000001 magnetization 
 augmentation part        6.2988903 magnetization 

 Broyden mixing:
  rms(total) = 0.54828E-03    rms(broyden)= 0.54806E-03
  rms(prec ) = 0.13140E-02
  weight for this iteration     100.00

 eigenvalues of (default mixing * dielectric matrix)
  average eigenvalue GAMMA=   1.4133
  2.8262  2.8262  2.4996  0.9969  0.9969  1.0976  0.9970  0.9970  0.6781  0.8154
  0.8154

 Free energy of the ion-electron system (eV)
  ---------------------------------------------------
  alpha Z        PSCENC =       139.07099193
  Ewald energy   TEWEN  =     16192.29432995
  -Hartree energ DENC   =    -21622.71952285
  -exchange      EXHF   =         0.00000000
  -V(xc)+E(xc)   XCENC  =      -424.09697481
  PAW double counting   =      6243.14556132    -5469.66681519
  entropy T*S    EENTRO =        -0.00732777
  eigenvalues    EBANDS =      -155.11438118
  atomic energy  EATOM  =      4951.75456612
  ---------------------------------------------------
  free energy    TOTEN  =      -145.33957247 eV

  energy without entropy =     -145.33224471  energy(sigma->0) =     -145.33590859


--------------------------------------------------------------------------------------------------------




----------------------------------------- Iteration    1(  17)  ---------------------------------------


    POTLOK:  cpu time    0.11: real time    0.11
    SETDIJ:  cpu time    0.12: real time    0.12
     EDDAV:  cpu time    3.84: real time    3.84
       DOS:  cpu time    0.00: real time    0.00
    CHARGE:  cpu time    0.40: real time    0.40
    MIXING:  cpu time    0.01: real time    0.01
    --------------------------------------------
      LOOP:  cpu time    4.48: real time    4.49

 eigenvalue-minimisations  :  1992
 total energy-change (2. order) : 0.1214114E-04  (-0.1610240E-05)
 number of electron     103.0000001 magnetization 
 augmentation part        6.2987666 magnetization 

 Broyden mixing:
  rms(total) = 0.42135E-03    rms(broyden)= 0.42122E-03
  rms(prec ) = 0.11422E-02
  weight for this iteration     100.00

 eigenvalues of (default mixing * dielectric matrix)
  average eigenvalue GAMMA=   1.4261
  3.2215  3.0348  2.3942  1.5114  0.9921  0.9921  1.0212  1.0212  0.8455  0.8455
  0.6795  0.5545

 Free energy of the ion-electron system (eV)
  ---------------------------------------------------
  alpha Z        PSCENC =       139.07099193
  Ewald energy   TEWEN  =     16192.29432995
  -Hartree energ DENC   =    -21622.64331868
  -exchange      EXHF   =         0.00000000
  -V(xc)+E(xc)   XCENC  =      -424.09624896
  PAW double counting   =      6243.38244370    -5469.90374606
  entropy T*S    EENTRO =        -0.00733036
  eigenvalues    EBANDS =      -155.19124798
  atomic energy  EATOM  =      4951.75456612
  ---------------------------------------------------
  free energy    TOTEN  =      -145.33956033 eV

  energy without entropy =     -145.33222997  energy(sigma->0) =     -145.33589515


--------------------------------------------------------------------------------------------------------




----------------------------------------- Iteration    1(  18)  ---------------------------------------


    POTLOK:  cpu time    0.10: real time    0.10
    SETDIJ:  cpu time    0.10: real time    0.10
     EDDAV:  cpu time    4.17: real time    4.18
       DOS:  cpu time    0.00: real time    0.00
    CHARGE:  cpu time    0.40: real time    0.40
    MIXING:  cpu time    0.01: real time    0.01
    --------------------------------------------
      LOOP:  cpu time    4.79: real time    4.79

 eigenvalue-minimisations  :  2298
 total energy-change (2. order) : 0.2312382E-04  (-0.2147611E-05)
 number of electron     103.0000001 magnetization 
 augmentation part        6.2989768 magnetization 

 Broyden mixing:
  rms(total) = 0.70915E-03    rms(broyden)= 0.70903E-03
  rms(prec ) = 0.10346E-02
  weight for this iteration     100.00

 eigenvalues of (default mixing * dielectric matrix)
  average eigenvalue GAMMA=   1.5229
  4.4705  2.8914  2.3633  2.2354  0.9821  0.9821  0.9803  0.9803  0.9353  0.8632
  0.8632  0.6779  0.5719

 Free energy of the ion-electron system (eV)
  ---------------------------------------------------
  alpha Z        PSCENC =       139.07099193
  Ewald energy   TEWEN  =     16192.29432995
  -Hartree energ DENC   =    -21622.37633911
  -exchange      EXHF   =         0.00000000
  -V(xc)+E(xc)   XCENC  =      -424.09850928
  PAW double counting   =      6243.17709458    -5469.69776209
  entropy T*S    EENTRO =        -0.00733888
  eigenvalues    EBANDS =      -155.45657044
  atomic energy  EATOM  =      4951.75456612
  ---------------------------------------------------
  free energy    TOTEN  =      -145.33953721 eV

  energy without entropy =     -145.33219833  energy(sigma->0) =     -145.33586777


--------------------------------------------------------------------------------------------------------




----------------------------------------- Iteration    1(  19)  ---------------------------------------


    POTLOK:  cpu time    0.10: real time    0.10
    SETDIJ:  cpu time    0.10: real time    0.10
     EDDAV:  cpu time    4.66: real time    4.66
       DOS:  cpu time    0.00: real time    0.00
    CHARGE:  cpu time    0.49: real time    0.49
    MIXING:  cpu time    0.01: real time    0.01
    --------------------------------------------
      LOOP:  cpu time    5.37: real time    5.37

 eigenvalue-minimisations  :  2580
 total energy-change (2. order) : 0.1147679E-04  (-0.2474484E-05)
 number of electron     103.0000001 magnetization 
 augmentation part        6.2990167 magnetization 

 Broyden mixing:
  rms(total) = 0.70224E-03    rms(broyden)= 0.70213E-03
  rms(prec ) = 0.91288E-03
  weight for this iteration     100.00

 eigenvalues of (default mixing * dielectric matrix)
  average eigenvalue GAMMA=   1.5315
  5.1628  2.8924  2.3487  2.3487  1.0137  1.0137  0.9139  0.9139  1.0166  0.9396
  0.9396  0.6783  0.6783  0.5808

 Free energy of the ion-electron system (eV)
  ---------------------------------------------------
  alpha Z        PSCENC =       139.07099193
  Ewald energy   TEWEN  =     16192.29432995
  -Hartree energ DENC   =    -21622.21198622
  -exchange      EXHF   =         0.00000000
  -V(xc)+E(xc)   XCENC  =      -424.09747511
  PAW double counting   =      6243.25887170    -5469.77950296
  entropy T*S    EENTRO =        -0.00734349
  eigenvalues    EBANDS =      -155.62197766
  atomic energy  EATOM  =      4951.75456612
  ---------------------------------------------------
  free energy    TOTEN  =      -145.33952573 eV

  energy without entropy =     -145.33218224  energy(sigma->0) =     -145.33585399


--------------------------------------------------------------------------------------------------------




----------------------------------------- Iteration    1(  20)  ---------------------------------------


    POTLOK:  cpu time    0.11: real time    0.11
    SETDIJ:  cpu time    0.11: real time    0.11
     EDDAV:  cpu time    4.35: real time    4.35
       DOS:  cpu time    0.00: real time    0.00
    --------------------------------------------
      LOOP:  cpu time    4.56: real time    4.57

 eigenvalue-minimisations  :  2386
 total energy-change (2. order) : 0.8899079E-05  (-0.2572758E-05)
 number of electron     103.0000001 magnetization 
 augmentation part        6.2990167 magnetization 

 Free energy of the ion-electron system (eV)
  ---------------------------------------------------
  alpha Z        PSCENC =       139.07099193
  Ewald energy   TEWEN  =     16192.29432995
  -Hartree energ DENC   =    -21622.08138070
  -exchange      EXHF   =         0.00000000
  -V(xc)+E(xc)   XCENC  =      -424.09513622
  PAW double counting   =      6243.42836676    -5469.94948866
  entropy T*S    EENTRO =        -0.00734678
  eigenvalues    EBANDS =      -155.75441925
  atomic energy  EATOM  =      4951.75456612
  ---------------------------------------------------
  free energy    TOTEN  =      -145.33951683 eV

  energy without entropy =     -145.33217006  energy(sigma->0) =     -145.33584345


--------------------------------------------------------------------------------------------------------




 average (electrostatic) potential at core
  the test charge radii are     0.7215  1.0714  1.0406
  (the norm of the test charge is              1.0000)
       1 -70.1175       2 -70.0099       3 -69.9942       4 -69.9935       5 -69.9985
       6 -70.0034       7 -70.1148       8 -69.9992       9 -69.9953      10 -70.0107
      11 -35.6600      12 -35.6546      13 -35.6632      14 -35.6851      15 -35.6565
      16 -35.6627      17 -35.8999      18 -35.9008      19 -35.6581      20 -35.6596
      21 -35.6835      22 -74.4354      23 -74.3448      24 -74.4109      25 -74.3663
      26 -74.3448      27 -74.3663      28 -74.4109
 
 
 
 E-fermi :   6.3732     XC(G=0): -10.3029     alpha+bet :-12.4565


 k-point     1 :       0.0000    0.0000    0.0000
  band No.  band energies     occupation 
      1     -14.2340      2.00000
      2     -14.1902      2.00000
      3     -14.1052      2.00000
      4     -13.9890      2.00000
      5     -13.8511      2.00000
      6     -13.6986      2.00000
      7     -13.5443      2.00000
      8     -13.4022      2.00000
      9     -13.2855      2.00000
     10     -13.2042      2.00000
     11      -3.8497      2.00000
     12      -3.5241      2.00000
     13      -3.0327      2.00000
     14      -2.3631      2.00000
     15      -1.7807      2.00000
     16      -1.5998      2.00000
     17      -1.5813      2.00000
     18      -1.1678      2.00000
     19      -1.0359      2.00000
     20      -0.4477      2.00000
     21      -0.3823      2.00000
     22       0.2636      2.00000
     23       0.5052      2.00000
     24       1.1934      2.00000
     25       1.2922      2.00000
     26       1.9797      2.00000
     27       2.2441      2.00000
     28       2.3207      2.00000
     29       2.3207      2.00000
     30       2.3398      2.00000
     31       2.3398      2.00000
     32       2.3848      2.00000
     33       2.3848      2.00000
     34       2.4453      2.00000
     35       2.4453      2.00000
     36       2.5155      2.00000
     37       2.5155      2.00000
     38       2.5442      2.00000
     39       2.5924      2.00000
     40       2.5924      2.00000
     41       2.6689      2.00000
     42       2.6689      2.00000
     43       2.7378      2.00000
     44       2.7378      2.00000
     45       2.7948      2.00000
     46       2.7948      2.00000
     47       2.8369      2.00000
     48       2.8369      2.00000
     49       3.6848      2.00000
     50       4.9793      2.00000
     51       6.2698      1.99654
     52       7.1616      0.00000
     53       7.2755      0.00000
     54       7.9471      0.00000
     55       8.1107      0.00000
     56       8.9817      0.00000
     57       8.9880      0.00000
     58       9.7862      0.00000
     59       9.8650      0.00000
     60      10.3346      0.00000
     61      10.3881      0.00000
     62      10.5389      0.00000
     63      11.1040      0.00000
     64      12.4932      0.00000
     65      14.0539      0.00000
     66      14.3045      0.00000

 k-point     2 :       0.0769    0.0000    0.0000
  band No.  band energies     occupation 
      1     -14.1815      2.00000
      2     -14.1389      2.00000
      3     -14.0560      2.00000
      4     -13.9426      2.00000
      5     -13.8081      2.00000
      6     -13.6596      2.00000
      7     -13.5095      2.00000
      8     -13.3714      2.00000
      9     -13.2581      2.00000
     10     -13.1792      2.00000
     11      -3.7195      2.00000
     12      -3.3942      2.00000
     13      -2.9035      2.00000
     14      -2.2364      2.00000
     15      -1.6893      2.00000
     16      -1.5025      2.00000
     17      -1.5005      2.00000
     18      -1.0882      2.00000
     19      -0.9676      2.00000
     20      -0.4043      2.00000
     21      -0.3074      2.00000
     22       0.2948      2.00000
     23       0.5177      2.00000
     24       1.2305      2.00000
     25       1.2383      2.00000
     26       1.8775      2.00000
     27       2.0893      2.00000
     28       2.1082      2.00000
     29       2.1347      2.00000
     30       2.1689      2.00000
     31       2.2414      2.00000
     32       2.2768      2.00000
     33       2.2961      2.00000
     34       2.3180      2.00000
     35       2.3415      2.00000
     36       2.4025      2.00000
     37       2.4065      2.00000
     38       2.4535      2.00000
     39       2.4733      2.00000
     40       2.5211      2.00000
     41       2.5509      2.00000
     42       2.5711      2.00000
     43       2.5871      2.00000
     44       2.6243      2.00000
     45       2.6281      2.00000
     46       2.6976      2.00000
     47       2.7551      2.00000
     48       2.7976      2.00000
     49       3.8136      2.00000
     50       5.1207      2.00000
     51       6.4463      0.03861
     52       7.4858      0.00000
     53       7.5380      0.00000
     54       8.1597      0.00000
     55       8.3509      0.00000
     56       9.1816      0.00000
     57       9.1949      0.00000
     58       9.9995      0.00000
     59      10.0798      0.00000
     60      10.5806      0.00000
     61      10.6493      0.00000
     62      10.8200      0.00000
     63      11.2661      0.00000
     64      12.5600      0.00000
     65      13.8974      0.00000
     66      13.9641      0.00000

 k-point     3 :       0.1538    0.0000   -0.0000
  band No.  band energies     occupation 
      1     -14.0309      2.00000
      2     -13.9921      2.00000
      3     -13.9153      2.00000
      4     -13.8104      2.00000
      5     -13.6863      2.00000
      6     -13.5495      2.00000
      7     -13.4117      2.00000
      8     -13.2854      2.00000
      9     -13.1820      2.00000
     10     -13.1097      2.00000
     11      -3.3296      2.00000
     12      -3.0053      2.00000
     13      -2.5171      2.00000
     14      -1.8593      2.00000
     15      -1.4350      2.00000
     16      -1.2756      2.00000
     17      -1.2196      2.00000
     18      -0.8531      2.00000
     19      -0.7894      2.00000
     20      -0.3003      2.00000
     21      -0.1463      2.00000
     22       0.3834      2.00000
     23       0.4578      2.00000
     24       0.9808      2.00000
     25       1.1635      2.00000
     26       1.4737      2.00000
     27       1.5020      2.00000
     28       1.5568      2.00000
     29       1.6066      2.00000
     30       1.6192      2.00000
     31       1.7645      2.00000
     32       1.7833      2.00000
     33       1.9680      2.00000
     34       2.0840      2.00000
     35       2.1583      2.00000
     36       2.1782      2.00000
     37       2.2189      2.00000
     38       2.2245      2.00000
     39       2.2868      2.00000
     40       2.3283      2.00000
     41       2.3591      2.00000
     42       2.4181      2.00000
     43       2.4384      2.00000
     44       2.5172      2.00000
     45       2.5883      2.00000
     46       2.6470      2.00000
     47       2.6904      2.00000
     48       2.8489      2.00000
     49       4.1570      2.00000
     50       5.4892      2.00000
     51       6.8648      0.00000
     52       8.1235      0.00000
     53       8.2537      0.00000
     54       8.7063      0.00000
     55       8.9523      0.00000
     56       9.6623      0.00000
     57       9.7050      0.00000
     58      10.4838      0.00000
     59      10.5966      0.00000
     60      11.1304      0.00000
     61      11.2644      0.00000
     62      11.3715      0.00000
     63      11.4945      0.00000
     64      11.5596      0.00000
     65      11.8481      0.00000
     66      12.0071      0.00000

 k-point     4 :       0.2308    0.0000   -0.0000
  band No.  band energies     occupation 
      1     -13.8041      2.00000
      2     -13.7715      2.00000
      3     -13.7048      2.00000
      4     -13.6139      2.00000
      5     -13.5067      2.00000
      6     -13.3890      2.00000
      7     -13.2709      2.00000
      8     -13.1633      2.00000
      9     -13.0753      2.00000
     10     -13.0132      2.00000
     11      -2.6820      2.00000
     12      -2.3597      2.00000
     13      -1.8769      2.00000
     14      -1.2497      2.00000
     15      -1.0644      2.00000
     16      -0.9537      2.00000
     17      -0.8507      2.00000
     18      -0.6086      2.00000
     19      -0.5323      2.00000
     20      -0.2185      2.00000
     21      -0.1560      2.00000
     22       0.1271      2.00000
[...]
     17      -0.6869      2.00000
     18      -0.6058      2.00000
     19      -0.4695      2.00000
     20      -0.3297      2.00000
     21       0.0671      2.00000
     22       0.2010      2.00000
     23       0.3402      2.00000
     24       0.4864      2.00000
     25       0.6592      2.00000
     26       0.6656      2.00000
     27       0.7461      2.00000
     28       0.8113      2.00000
     29       0.8713      2.00000
     30       0.9304      2.00000
     31       1.0013      2.00000
     32       1.0699      2.00000
     33       1.1222      2.00000
     34       1.2368      2.00000
     35       1.3243      2.00000
     36       1.4024      2.00000
     37       1.5203      2.00000
     38       1.5735      2.00000
     39       1.6660      2.00000
     40       1.7416      2.00000
     41       1.8190      2.00000
     42       1.8364      2.00000
     43       1.9310      2.00000
     44       2.4808      2.00000
     45       3.2753      2.00000
     46       4.1780      2.00000
     47       4.2254      2.00000
     48       4.5447      2.00000
     49       4.9817      2.00000
     50       5.3626      2.00000
     51       5.7323      2.00000
     52       5.7642      2.00000
     53       6.0909      2.00000
     54       6.4086      0.16225
     55       6.5834      0.00000
     56       6.7660      0.00000
     57       7.1996      0.00000
     58       7.5729      0.00000
     59       7.9723      0.00000
     60       8.0931      0.00000
     61       8.5712      0.00000
     62       9.0982      0.00000
     63       9.1858      0.00000
     64       9.6096      0.00000
     65      10.2912      0.00000
     66      10.3772      0.00000

 k-point    20 :       0.3846    0.2308    0.0000
  band No.  band energies     occupation 
      1     -13.0130      2.00000
      2     -13.0099      2.00000
      3     -12.9898      2.00000
      4     -12.9775      2.00000
      5     -12.9619      2.00000
      6     -12.9424      2.00000
      7     -12.9226      2.00000
      8     -12.9038      2.00000
      9     -12.8863      2.00000
     10     -12.8734      2.00000
     11      -1.1168      2.00000
     12      -1.0356      2.00000
     13      -0.9047      2.00000
     14      -0.7453      2.00000
     15      -0.6783      2.00000
     16      -0.6602      2.00000
     17      -0.6222      2.00000
     18      -0.6092      2.00000
     19      -0.5681      2.00000
     20      -0.5468      2.00000
     21       0.2552      2.00000
     22       0.2884      2.00000
     23       0.3289      2.00000
     24       0.3520      2.00000
     25       0.4074      2.00000
     26       0.4286      2.00000
     27       0.4703      2.00000
     28       0.6196      2.00000
     29       0.7770      2.00000
     30       0.9364      2.00000
     31       1.1678      2.00000
     32       1.1754      2.00000
     33       1.3681      2.00000
     34       1.3727      2.00000
     35       1.4757      2.00000
     36       1.5027      2.00000
     37       1.6435      2.00000
     38       1.7412      2.00000
     39       1.7965      2.00000
     40       1.8015      2.00000
     41       2.4392      2.00000
     42       2.4393      2.00000
     43       2.8049      2.00000
     44       2.8297      2.00000
     45       3.2801      2.00000
     46       3.3192      2.00000
     47       3.9224      2.00000
     48       3.9509      2.00000
     49       4.5972      2.00000
     50       4.8762      2.00000
     51       5.5706      2.00000
     52       5.6496      2.00000
     53       5.8786      2.00000
     54       5.9997      2.00000
     55       6.4558      0.00630
     56       6.7988      0.00000
     57       6.8634      0.00000
     58       7.3537      0.00000
     59       7.8808      0.00000
     60       8.0346      0.00000
     61       8.2465      0.00000
     62       8.8159      0.00000
     63       9.3366      0.00000
     64       9.3784      0.00000
     65       9.8627      0.00000
     66      10.5408      0.00000

 k-point    21 :       0.3077    0.3077   -0.0000
  band No.  band energies     occupation 
      1     -12.9863      2.00000
      2     -12.9836      2.00000
      3     -12.9579      2.00000
      4     -12.9497      2.00000
      5     -12.9388      2.00000
      6     -12.9248      2.00000
      7     -12.9109      2.00000
      8     -12.8980      2.00000
      9     -12.8858      2.00000
     10     -12.8767      2.00000
     11      -0.7648      2.00000
     12      -0.7624      2.00000
     13      -0.6966      2.00000
     14      -0.6866      2.00000
     15      -0.5901      2.00000
     16      -0.5815      2.00000
     17      -0.4693      2.00000
     18      -0.3693      2.00000
     19      -0.3296      2.00000
     20      -0.2686      2.00000
     21      -0.1624      2.00000
     22      -0.1095      2.00000
     23       0.0264      2.00000
     24       0.0451      2.00000
     25       0.1785      2.00000
     26       0.2149      2.00000
     27       0.3124      2.00000
     28       0.3845      2.00000
     29       0.4737      2.00000
     30       0.5074      2.00000
     31       1.1652      2.00000
     32       1.1823      2.00000
     33       1.3673      2.00000
     34       1.4907      2.00000
     35       1.5536      2.00000
     36       1.5789      2.00000
     37       1.6204      2.00000
     38       1.6256      2.00000
     39       1.6677      2.00000
     40       1.7636      2.00000
     41       2.3151      2.00000
     42       2.6960      2.00000
     43       3.1740      2.00000
     44       3.8099      2.00000
     45       3.9317      2.00000
     46       3.9426      2.00000
     47       4.2952      2.00000
     48       4.3094      2.00000
     49       4.5811      2.00000
     50       4.7582      2.00000
     51       4.7628      2.00000
     52       5.2825      2.00000
     53       5.4242      2.00000
     54       5.6254      2.00000
     55       6.1735      2.00000
     56       6.2749      1.98289
     57       6.9436      0.00000
     58       7.1229      0.00000
     59       7.4666      0.00000
     60       7.8405      0.00000
     61       8.2995      0.00000
     62       8.5685      0.00000
     63       8.9640      0.00000
     64       9.3892      0.00000
     65       9.8014      0.00000
     66      10.0980      0.00000


--------------------------------------------------------------------------------------------------------


 soft charge-density along one line, spin component           1
         0         1         2         3         4         5         6         7         8         9
 total charge-density along one line
 
 pseudopotential strength for first ion, spin component:           1
 12.178   0.000 -14.817   0.000   0.000   0.000  -0.003   0.000  -0.000   0.000  -0.000   0.000   0.004   0.000   0.000   0.000
-14.817   0.000  18.048   0.000  -0.000   0.000   0.004   0.000   0.000   0.000   0.000   0.000  -0.005   0.000  -0.000   0.000
  0.000   0.000  -0.000   0.000  -8.319   0.000  -0.000   0.000   0.000   0.000   9.961   0.000   0.000   0.000  -0.000   0.000
 -0.003   0.000   0.004   0.000  -0.000   0.000  -8.326   0.000   0.000   0.000   0.000   0.000   9.971   0.000  -0.000   0.000
 -0.000   0.000   0.000   0.000   0.000   0.000   0.000   0.000  -8.319   0.000  -0.000   0.000  -0.000   0.000   9.961   0.000
 -0.000   0.000   0.000   0.000   9.961   0.000   0.000   0.000  -0.000   0.000 -11.766   0.000  -0.000   0.000   0.000   0.000
  0.004   0.000  -0.005   0.000   0.000   0.000   9.971   0.000  -0.000   0.000  -0.000   0.000 -11.780   0.000   0.000   0.000
  0.000   0.000  -0.000   0.000  -0.000   0.000  -0.000   0.000   9.961   0.000   0.000   0.000   0.000   0.000 -11.766   0.000
 total augmentation occupancy for first ion, spin component:           1
  2.577   0.351   0.000   0.011  -0.000   0.000   0.001  -0.000
  0.351   0.075  -0.000   0.008  -0.000   0.000  -0.003   0.000
  0.000   0.000   2.134  -0.000  -0.000   0.250  -0.000  -0.000
  0.011   0.008   0.000   2.116  -0.000  -0.000   0.254  -0.000
 -0.000  -0.000  -0.000  -0.000   2.134  -0.000  -0.000   0.250
  0.000   0.000   0.250  -0.000  -0.000   0.032   0.000  -0.000
  0.001  -0.003   0.000   0.254  -0.000   0.000   0.034  -0.000
 -0.000   0.000  -0.000  -0.000   0.250  -0.000  -0.000   0.032


------------------------ aborting loop because EDIFF is reached ----------------------------------------


    CHARGE:  cpu time    0.40: real time    0.40
    FORLOC:  cpu time    0.04: real time    0.04
    FORNL :  cpu time    3.56: real time    3.56
    STRESS:  cpu time    4.60: real time    4.60
    FORCOR:  cpu time    0.14: real time    0.14
    FORHAR:  cpu time    0.06: real time    0.06
    MIXING:  cpu time    0.00: real time    0.00
    OFIELD:  cpu time    0.00: real time    0.00

  FORCE on cell =-STRESS in cart. coord.  units (eV):
  Direction    XX          YY          ZZ          XY          YZ          ZX
  --------------------------------------------------------------------------------------
  Alpha Z   139.07099   139.07099   139.07099
  Ewald   19891.54367 19891.54406-22587.74056    -0.00009     0.00006    -0.00020
  Hartree 21668.94018 21668.94009-20717.83944    -0.00000     0.00000     0.00004
  E(xc)    -424.36463  -424.36464  -424.42620    -0.00000     0.00000     0.00000
  Local  -42807.28658-42807.28611 42056.99642    -0.00012    -0.00005     0.00010
  n-local   -44.58239   -59.06859   -49.24849     3.06297    -1.67061     5.40646
  augment    60.38516    60.38491    59.62186     0.00018    -0.00000     0.00000
  Kinetic  1539.16417  1498.59305  1506.60591     0.08432    -0.48469     1.66318
  Fock        0.00000     0.00000     0.00000     0.00000     0.00000     0.00000
  -------------------------------------------------------------------------------------
  Total      -4.65785    -4.65785   -16.95950     0.00000     0.00000     0.00000
  in kB     -21.38020   -21.38019   -77.84657     0.00000     0.00000     0.00000
  external pressure =      -40.20 kB  Pullay stress =        0.00 kB


 VOLUME and BASIS-vectors are now :
 -----------------------------------------------------------------------------
  energy-cutoff  :      520.00
  volume of cell :      349.05
      direct lattice vectors                 reciprocal lattice vectors
     2.592201318 -1.496607673  0.000000000     0.385772507  0.000000000  0.000000000
     0.000000000  2.993215347  0.000000000     0.192886253  0.334088892  0.000000000
    -0.000000000  0.000000000 44.986017283     0.000000000  0.000000000  0.022229129

  length of vectors
     2.993216030  2.993215347 44.986017283     0.385772507  0.385772595  0.022229129


 FORCES acting on ions
    electron-ion (+dipol)            ewald-force                    non-local-force                 convergence-correction
 -----------------------------------------------------------------------------------------------
   0.263E-05 -.468E-06 0.141E+04   -.358E-05 0.282E-05 -.141E+04   -.605E-17 0.434E-18 0.113E+01   0.275E-09 -.279E-09 0.799E-01
   0.106E-02 -.184E-02 0.110E+04   0.553E-04 -.958E-04 -.110E+04   -.170E-19 0.000E+00 0.230E-01   0.164E-07 -.282E-07 0.814E-01
   -.497E-08 0.158E-08 0.471E+03   -.536E-07 0.623E-07 -.471E+03   -.320E-19 0.339E-20 0.775E-02   0.186E-09 -.203E-09 0.350E-01
   0.106E-02 -.184E-02 0.157E+03   0.553E-04 -.958E-04 -.157E+03   0.197E-19 0.271E-19 -.175E-01   -.163E-08 0.261E-08 -.214E-02
   0.502E-08 -.174E-08 -.471E+03   0.465E-07 -.544E-07 0.471E+03   0.624E-20 0.508E-20 -.156E-02   -.288E-09 0.306E-09 -.490E-01
   0.106E-02 -.184E-02 -.786E+03   0.553E-04 -.957E-04 0.786E+03   -.155E-19 0.407E-19 0.720E-02   -.167E-07 0.288E-07 -.639E-01
   -.263E-05 0.468E-06 -.141E+04   0.358E-05 -.282E-05 0.141E+04   0.453E-17 -.651E-18 -.114E+01   -.277E-09 0.338E-09 -.623E-01
   -.106E-02 0.184E-02 0.786E+03   -.553E-04 0.957E-04 -.786E+03   0.295E-19 -.136E-19 -.777E-02   0.134E-07 -.231E-07 0.659E-01
   -.106E-02 0.184E-02 -.157E+03   -.553E-04 0.958E-04 0.157E+03   -.980E-19 -.542E-19 0.226E-01   0.635E-08 -.109E-07 -.215E-01
   -.106E-02 0.184E-02 -.110E+04   -.553E-04 0.958E-04 0.110E+04   0.746E-19 0.000E+00 -.276E-01   -.151E-07 0.260E-07 -.651E-01
   -.939E-08 -.222E-07 0.314E+03   0.683E-07 -.763E-07 -.314E+03   -.101E-18 0.217E-18 -.972E-02   -.129E-08 0.243E-08 0.245E-01
   -.136E-07 0.253E-07 0.285E-01   -.348E-08 0.390E-08 -.252E-01   0.614E-20 -.136E-19 0.856E-03   -.456E-09 0.827E-09 -.473E-02
   0.318E-07 -.176E-07 -.314E+03   -.665E-07 0.744E-07 0.314E+03   0.210E-18 -.108E-18 0.917E-02   0.138E-08 -.259E-08 -.212E-01
   0.425E-04 -.736E-04 0.419E+03   -.476E-04 0.825E-04 -.419E+03   0.264E-18 0.000E+00 -.637E-01   0.126E-08 -.241E-08 0.294E-01
   0.424E-04 -.735E-04 0.105E+03   -.475E-04 0.823E-04 -.105E+03   0.291E-20 0.271E-19 -.393E-02   -.587E-09 0.116E-08 0.505E-02
   0.425E-04 -.735E-04 -.209E+03   -.476E-04 0.824E-04 0.209E+03   -.586E-19 0.163E-18 0.597E-02   -.142E-08 0.272E-08 -.200E-01
   0.310E-04 -.394E-04 -.504E+03   -.246E-04 0.264E-04 0.504E+03   -.122E-16 -.139E-16 0.344E-01   0.546E-09 -.105E-08 -.184E-01
   -.310E-04 0.394E-04 0.504E+03   0.246E-04 -.264E-04 -.504E+03   0.122E-16 -.694E-17 -.344E-01   -.425E-09 0.827E-09 0.246E-01
   -.425E-04 0.735E-04 0.209E+03   0.476E-04 -.824E-04 -.210E+03   0.510E-20 0.163E-18 -.689E-02   0.128E-08 -.246E-08 0.183E-01
   -.424E-04 0.734E-04 -.105E+03   0.475E-04 -.823E-04 0.105E+03   0.385E-20 0.271E-19 0.395E-02   0.109E-08 -.205E-08 -.118E-01
   -.425E-04 0.737E-04 -.419E+03   0.476E-04 -.825E-04 0.419E+03   -.156E-17 0.000E+00 0.628E-01   -.135E-08 0.258E-08 -.235E-01
   0.231E-09 -.331E-09 -.382E-02   -.370E-10 0.365E-10 0.722E-02   -.247E-20 0.339E-20 -.901E-04   0.354E-12 -.484E-13 -.338E-02
   -.210E-06 -.247E-07 0.536E+03   0.746E-06 -.689E-06 -.536E+03   -.203E-16 0.000E+00 -.710E+00   0.237E-11 -.930E-12 0.291E-01
   0.148E-04 -.258E-04 0.348E+03   -.251E-05 0.453E-05 -.348E+03   0.107E-16 -.139E-16 0.159E+00   0.112E-10 -.302E-10 0.208E-01
   -.148E-04 0.256E-04 0.172E+03   0.287E-05 -.489E-05 -.172E+03   0.349E-17 0.000E+00 -.222E-01   -.246E-10 0.451E-10 0.105E-01
   0.210E-06 0.253E-07 -.537E+03   -.746E-06 0.689E-06 0.536E+03   -.526E-18 -.555E-16 0.710E+00   0.655E-12 0.202E-11 -.237E-01
   0.148E-04 -.256E-04 -.172E+03   -.287E-05 0.488E-05 0.172E+03   -.161E-19 -.347E-17 0.217E-01   0.149E-10 -.347E-10 -.161E-01
   -.148E-04 0.258E-04 -.348E+03   0.251E-05 -.453E-05 0.348E+03   0.207E-17 0.139E-16 -.160E+00   0.358E-11 0.951E-12 -.215E-01
 -----------------------------------------------------------------------------------------------
   -.193E-07 0.276E-07 0.645E-02   -.851E-13 -.390E-14 -.171E-11   -.733E-17 -.795E-16 -.253E-02   0.269E-08 -.469E-08 -.374E-02
 
 
 POSITION                                       TOTAL-FORCE (eV/Angst)
 -----------------------------------------------------------------------------------
     -0.00000      0.00000     12.27884         0.000000     -0.000000     -0.000317
      0.86407      1.49661     14.79041        -0.000000     -0.000000      0.000516
     -0.00000      0.00000     19.81716        -0.000000     -0.000000      0.006905
      0.86407      1.49661     22.33160         0.000000     -0.000000     -0.010642
     -0.00000      0.00000     27.35731         0.000000     -0.000000     -0.004876
      0.86407      1.49661     29.87033        -0.000000     -0.000000      0.000585
     -0.00000      0.00000     34.89501         0.000000     -0.000000     -0.001571
      1.72814     -0.00000     17.30392         0.000000     -0.000000     -0.000861
      1.72814     -0.00000     24.84308        -0.000000      0.000000      0.012179
      1.72814     -0.00000     32.38352        -0.000000      0.000000     -0.001257
     -0.00000      0.00000     16.04790        -0.000000     -0.000000      0.004444
     -0.00000      0.00000     23.58730         0.000000     -0.000000     -0.000593
     -0.00000      0.00000     31.12621         0.000000     -0.000000     -0.003026
      1.72814     -0.00000     13.53497        -0.000000     -0.000000      0.002199
      1.72814     -0.00000     21.07469         0.000000     -0.000000     -0.004416
      1.72814     -0.00000     28.61338         0.000000     -0.000000     -0.002276
      1.72814     -0.00000     36.19409        -0.000000     -0.000000      0.002887
      0.86407      1.49661     10.97969         0.000000     -0.000000     -0.000862
      0.86407      1.49661     18.56109         0.000000     -0.000000     -0.000103
      0.86407      1.49661     26.09994        -0.000000     -0.000000      0.001533
      0.86407      1.49661     33.63895         0.000000     -0.000000     -0.000395
     -0.00000      0.00000      1.09404         0.000000     -0.000000     -0.000081
     -0.00000      0.00000      8.36642        -0.000000     -0.000000      0.006475
      1.72814     -0.00000      5.88649        -0.000000     -0.000000      0.006531
      0.86407      1.49661      3.47570        -0.000000     -0.000000      0.016470
     -0.00000      0.00000     38.80745         0.000000     -0.000000     -0.006580
      1.72814     -0.00000     43.69839         0.000000     -0.000000     -0.016328
      0.86407      1.49661     41.28753         0.000000     -0.000000     -0.006541
 -----------------------------------------------------------------------------------
    total drift:                               -0.000000      0.000000      0.000180


--------------------------------------------------------------------------------------------------------



  FREE ENERGIE OF THE ION-ELECTRON SYSTEM (eV)
  ---------------------------------------------------
  free  energy   TOTEN  =      -145.35983629 eV

  energy  without entropy=     -145.35444465  energy(sigma->0) =     -145.35714047
 
 d Force = 0.1634248E-03[ 0.703E-04, 0.257E-03]  d Energy = 0.1560694E-03 0.736E-05
 d Force =-0.8518394E+00[-0.852E+00,-0.851E+00]  d Ewald  =-0.8518394E+00-0.895E-09


--------------------------------------------------------------------------------------------------------


    POTLOK:  cpu time    0.21: real time    0.21


--------------------------------------------------------------------------------------------------------


 Conjugate gradient step on ions:
 trial-energy change:   -0.000156  1 .order   -0.000163   -0.000257   -0.000070
  (g-gl).g = 0.892E-04      g.g   = 0.258E-03  gl.gl    = 0.713E-03
 g(Force)  = 0.258E-03   g(Stress)= 0.000E+00 ortho     =-0.294E-04
 gamma     =   0.12504
 trial     =   1.00727
 opt step  =   1.38729  (harmonic =   1.38729) maximal distance =0.00203581
 next E    =  -145.359857   (d E  =  -0.00018)


--------------------------------------------------------------------------------------------------------


  
 reached required accuracy - stopping structural energy minimisation
     LOOP+:  cpu time   37.84: real time   37.87
    4ORBIT:  cpu time    0.00: real time    0.00

 total amount of memory used by VASP on root node   155569. kBytes
========================================================================

   base      :      30000. kBytes
   nonl-proj :      16856. kBytes
   fftplans  :      57935. kBytes
   grid      :      23224. kBytes
   one-center:         56. kBytes
   wavefun   :      27498. kBytes
 
  
  
 General timing and accounting informations for this job:
 ========================================================
  
                  Total CPU time used (sec):     1607.534
                            User time (sec):     1588.030
                          System time (sec):       19.504
                         Elapsed time (sec):     1609.584
  
                   Maximum memory used (kb):      261556.
                   Average memory used (kb):           0.
  
                          Minor page faults:       406454
                          Major page faults:            0
                 Voluntary context switches:          199
