       N       E                     dE             d eps       ncg     rms          rms(c)
DAV:   1     0.525679294263E+03    0.52568E+03   -0.44894E+04  2780   0.134E+03
DAV:   2    -0.970308940006E+02   -0.62271E+03   -0.59020E+03  3602   0.254E+02
DAV:   3    -0.159835969783E+03   -0.62805E+02   -0.62470E+02  3232   0.878E+01
DAV:   4    -0.160696126599E+03   -0.86016E+00   -0.85872E+00  3208   0.111E+01
DAV:   5    -0.160710011291E+03   -0.13885E-01   -0.13878E-01  3312   0.137E+00    0.231E+01
DAV:   6    -0.144616377938E+03    0.16094E+02   -0.94538E+01  3182   0.301E+01    0.791E+00
DAV:   7    -0.144498476128E+03    0.11790E+00   -0.21571E+00  3050   0.534E+00    0.481E+00
DAV:   8    -0.144386086400E+03    0.11239E+00   -0.58193E-01  3196   0.406E+00    0.883E-01
DAV:   9    -0.144370031860E+03    0.16055E-01   -0.85202E-02  3134   0.119E+00    0.500E-01
DAV:  10    -0.144370029641E+03    0.22191E-05   -0.46046E-02  3074   0.850E-01    0.246E-01
DAV:  11    -0.144370528627E+03   -0.49899E-03   -0.38434E-03  3094   0.264E-01    0.179E-01
DAV:  12    -0.144370559753E+03   -0.31125E-04   -0.26950E-03  3928   0.288E-01    0.838E-02
DAV:  13    -0.144370529563E+03    0.30190E-04   -0.14434E-03  3068   0.155E-01    0.369E-02
DAV:  14    -0.144370498616E+03    0.30947E-04   -0.15749E-04  3136   0.663E-02    0.130E-02
DAV:  15    -0.144370496323E+03    0.22928E-05   -0.35019E-05  2734   0.282E-02
   1 F= -.14437050E+03 E0= -.14436743E+03  d E =-.144370E+03
       N       E                     dE             d eps       ncg     rms          rms(c)
DAV:   1    -0.144372001843E+03   -0.15032E-02   -0.54108E-02  2860   0.102E+00    0.469E-02
DAV:   2    -0.144372096807E+03   -0.94965E-04   -0.22127E-03  3180   0.214E-01    0.336E-02
DAV:   3    -0.144372072653E+03    0.24154E-04   -0.16569E-04  3116   0.610E-02    0.280E-02
DAV:   4    -0.144372045017E+03    0.27637E-04   -0.35569E-05  2764   0.318E-02    0.146E-02
DAV:   5    -0.144372004385E+03    0.40632E-04   -0.51081E-05  2990   0.715E-02    0.114E-02
DAV:   6    -0.144371983922E+03    0.20463E-04   -0.33546E-05  2622   0.696E-02    0.109E-02
DAV:   7    -0.144371973165E+03    0.10757E-04   -0.62556E-05  2886   0.702E-02    0.793E-03
DAV:   8    -0.144371964244E+03    0.89203E-05   -0.15856E-05  2130   0.510E-02
   2 F= -.14437196E+03 E0= -.14436886E+03  d E =-.146792E-02
       N       E                     dE             d eps       ncg     rms          rms(c)
DAV:   1    -0.144372437435E+03   -0.46427E-03   -0.65700E-02  2864   0.114E+00    0.530E-02
DAV:   2    -0.144372600779E+03   -0.16334E-03   -0.32195E-03  3180   0.252E-01    0.443E-02
DAV:   3    -0.144372564682E+03    0.36097E-04   -0.19034E-04  3124   0.605E-02    0.340E-02
DAV:   4    -0.144372520210E+03    0.44472E-04   -0.90308E-05  3060   0.392E-02    0.137E-02
DAV:   5    -0.144372488154E+03    0.32056E-04   -0.44056E-05  3022   0.570E-02    0.142E-02
DAV:   6    -0.144372465111E+03    0.23043E-04   -0.26003E-05  2510   0.689E-02    0.968E-03
DAV:   7    -0.144372456847E+03    0.82634E-05   -0.79666E-05  3040   0.683E-02
   3 F= -.14437246E+03 E0= -.14436932E+03  d E =-.196052E-02
       N       E                     dE             d eps       ncg     rms          rms(c)
DAV:   1    -0.144373369079E+03   -0.90397E-03   -0.13142E-01  2780   0.153E+00    0.484E-02
DAV:   2    -0.144373664210E+03   -0.29513E-03   -0.33058E-03  3056   0.214E-01    0.304E-02
DAV:   3    -0.144373649226E+03    0.14984E-04   -0.33063E-05  2820   0.290E-02    0.202E-02
DAV:   4    -0.144373644713E+03    0.45124E-05   -0.45401E-05  2820   0.352E-02    0.671E-03
DAV:   5    -0.144373647431E+03   -0.27172E-05   -0.12862E-05  1678   0.144E-02    0.457E-03
DAV:   6    -0.144373651735E+03   -0.43046E-05   -0.40591E-06  1472   0.950E-03
   4 F= -.14437365E+03 E0= -.14437051E+03  d E =-.119489E-02
       N       E                     dE             d eps       ncg     rms          rms(c)
DAV:   1    -0.144373528738E+03    0.11869E-03   -0.11858E+00  2772   0.457E+00    0.146E-01
DAV:   2    -0.144376078183E+03   -0.25494E-02   -0.29632E-02  3078   0.634E-01    0.882E-02
DAV:   3    -0.144375893347E+03    0.18484E-03   -0.30322E-04  3222   0.107E-01    0.578E-02
DAV:   4    -0.144375734171E+03    0.15918E-03   -0.35509E-04  3378   0.153E-01    0.180E-02
DAV:   5    -0.144375714739E+03    0.19431E-04   -0.26029E-04  3096   0.826E-02    0.170E-02
DAV:   6    -0.144375681151E+03    0.33589E-04   -0.26960E-05  2444   0.392E-02    0.808E-03
DAV:   7    -0.144375622009E+03    0.59142E-04   -0.17305E-05  2124   0.807E-02    0.837E-03
DAV:   8    -0.144375563762E+03    0.58247E-04   -0.33383E-05  2754   0.996E-02    0.681E-03
DAV:   9    -0.144375463428E+03    0.10033E-03   -0.10002E-04  3584   0.229E-01    0.502E-03
DAV:  10    -0.144375412032E+03    0.51396E-04   -0.32114E-04  4352   0.373E-01    0.512E-03
DAV:  11    -0.144375460944E+03   -0.48912E-04   -0.49060E-04  2946   0.696E-02    0.168E-02
DAV:  12    -0.144375462308E+03   -0.13645E-05   -0.17524E-05  2142   0.147E-02
   5 F= -.14437546E+03 E0= -.14437230E+03  d E =-.300546E-02
       N       E                     dE             d eps       ncg     rms          rms(c)
DAV:   1    -0.144375950235E+03   -0.48929E-03   -0.40471E-01  2876   0.272E+00    0.856E-02
DAV:   2    -0.144376781663E+03   -0.83143E-03   -0.94464E-03  3006   0.382E-01    0.480E-02
DAV:   3    -0.144376733608E+03    0.48055E-04   -0.13368E-04  3152   0.547E-02    0.348E-02
DAV:   4    -0.144376697215E+03    0.36393E-04   -0.13553E-04  3102   0.571E-02    0.144E-02
DAV:   5    -0.144376690396E+03    0.68189E-05   -0.37993E-05  2722   0.354E-02    0.136E-02
DAV:   6    -0.144376683915E+03    0.64811E-05   -0.26129E-05  2216   0.344E-02
   6 F= -.14437668E+03 E0= -.14437351E+03  d E =-.122161E-02
       N       E                     dE             d eps       ncg     rms          rms(c)
DAV:   1    -0.144371559297E+03    0.51311E-02   -0.36416E+00  2852   0.817E+00    0.243E-01
DAV:   2    -0.144379286946E+03   -0.77276E-02   -0.84721E-02  2998   0.114E+00    0.142E-01
DAV:   3    -0.144378868118E+03    0.41883E-03   -0.91392E-04  3168   0.143E-01    0.101E-01
DAV:   4    -0.144378535575E+03    0.33254E-03   -0.11563E-03  3226   0.182E-01    0.379E-02
DAV:   5    -0.144378493254E+03    0.42322E-04   -0.36510E-04  3132   0.929E-02    0.348E-02
DAV:   6    -0.144378436257E+03    0.56997E-04   -0.15505E-04  3216   0.754E-02    0.160E-02
DAV:   7    -0.144378400121E+03    0.36135E-04   -0.88955E-05  3184   0.720E-02    0.185E-02
DAV:   8    -0.144378326048E+03    0.74074E-04   -0.62652E-05  3496   0.109E-01    0.104E-02
DAV:   9    -0.144378281580E+03    0.44467E-04   -0.72183E-05  3234   0.828E-02    0.148E-02
DAV:  10    -0.144378211994E+03    0.69586E-04   -0.52446E-05  2966   0.103E-01    0.105E-02
DAV:  11    -0.144378133308E+03    0.78687E-04   -0.88626E-05  3408   0.194E-01    0.148E-02
DAV:  12    -0.144378089234E+03    0.44073E-04   -0.28074E-04  4400   0.296E-01    0.632E-03
DAV:  13    -0.144378121919E+03   -0.32684E-04   -0.34154E-04  2832   0.549E-02    0.152E-02
DAV:  14    -0.144378117925E+03    0.39940E-05   -0.37550E-06  1766   0.211E-02
   7 F= -.14437812E+03 E0= -.14437496E+03  d E =-.265562E-02
       N       E                     dE             d eps       ncg     rms          rms(c)
DAV:   1    -0.144378325731E+03   -0.20381E-03   -0.41930E-01  2826   0.275E+00    0.812E-02
DAV:   2    -0.144379185154E+03   -0.85942E-03   -0.93342E-03  3062   0.371E-01    0.442E-02
DAV:   3    -0.144379143403E+03    0.41751E-04   -0.11252E-04  3172   0.544E-02    0.309E-02
DAV:   4    -0.144379112111E+03    0.31292E-04   -0.99707E-05  3142   0.609E-02    0.125E-02
DAV:   5    -0.144379108925E+03    0.31862E-05   -0.49623E-05  2824   0.384E-02    0.125E-02
DAV:   6    -0.144379106378E+03    0.25465E-05   -0.15160E-05  1720   0.197E-02
   8 F= -.14437911E+03 E0= -.14437595E+03  d E =-.988454E-03
       N       E                     dE             d eps       ncg     rms          rms(c)
DAV:   1    -0.144373776510E+03    0.53324E-02   -0.37694E+00  2820   0.826E+00    0.240E-01
DAV:   2    -0.144381492324E+03   -0.77158E-02   -0.83593E-02  3068   0.111E+00    0.137E-01
DAV:   3    -0.144381063423E+03    0.42890E-03   -0.83105E-04  3254   0.157E-01    0.936E-02
DAV:   4    -0.144380718881E+03    0.34454E-03   -0.10951E-03  3298   0.223E-01    0.311E-02
DAV:   5    -0.144380733646E+03   -0.14765E-04   -0.62574E-04  3138   0.115E-01    0.390E-02
DAV:   6    -0.144380732790E+03    0.85683E-06   -0.62822E-05  2754   0.303E-02
   9 F= -.14438073E+03 E0= -.14437760E+03  d E =-.261486E-02
       N       E                     dE             d eps       ncg     rms          rms(c)
DAV:   1    -0.144379746714E+03    0.98693E-03   -0.59899E-01  2824   0.332E+00    0.113E-01
DAV:   2    -0.144380912811E+03   -0.11661E-02   -0.13686E-02  3074   0.459E-01    0.534E-02
DAV:   3    -0.144380825101E+03    0.87710E-04   -0.21544E-04  3230   0.907E-02    0.383E-02
DAV:   4    -0.144380748493E+03    0.76608E-04   -0.16910E-04  3378   0.104E-01    0.182E-02
DAV:   5    -0.144380710311E+03    0.38182E-04   -0.10434E-04  3372   0.951E-02    0.171E-02
DAV:   6    -0.144380692441E+03    0.17870E-04   -0.88665E-05  3052   0.639E-02    0.109E-02
DAV:   7    -0.144380679631E+03    0.12810E-04   -0.25660E-05  2474   0.375E-02    0.901E-03
DAV:   8    -0.144380660035E+03    0.19595E-04   -0.80128E-06  1954   0.507E-02    0.720E-03
DAV:   9    -0.144380643995E+03    0.16040E-04   -0.29825E-05  2586   0.633E-02    0.514E-03
DAV:  10    -0.144380633136E+03    0.10859E-04   -0.16720E-05  2220   0.663E-02    0.579E-03
DAV:  11    -0.144380630068E+03    0.30680E-05   -0.28734E-05  2418   0.419E-02
  10 F= -.14438063E+03 E0= -.14437752E+03  d E =-.251214E-02
       N       E                     dE             d eps       ncg     rms          rms(c)
DAV:   1    -0.144380671433E+03   -0.38297E-04   -0.71349E-01  2804   0.362E+00    0.102E-01
DAV:   2    -0.144382076608E+03   -0.14052E-02   -0.15397E-02  3124   0.494E-01    0.576E-02
DAV:   3    -0.144382002620E+03    0.73989E-04   -0.19185E-04  3316   0.636E-02    0.396E-02
DAV:   4    -0.144381938964E+03    0.63656E-04   -0.24294E-04  3230   0.837E-02    0.171E-02
DAV:   5    -0.144381936356E+03    0.26081E-05   -0.83536E-05  3036   0.457E-02    0.203E-02
DAV:   6    -0.144381931720E+03    0.46367E-05   -0.22046E-05  2008   0.223E-02
  11 F= -.14438193E+03 E0= -.14437884E+03  d E =-.130165E-02
       N       E                     dE             d eps       ncg     rms          rms(c)
DAV:   1    -0.144376886208E+03    0.50501E-02   -0.33668E+00  2804   0.787E+00    0.227E-01
DAV:   2    -0.144383608957E+03   -0.67227E-02   -0.73543E-02  3128   0.108E+00    0.126E-01
DAV:   3    -0.144383258903E+03    0.35005E-03   -0.90364E-04  3284   0.141E-01    0.861E-02
DAV:   4    -0.144382962494E+03    0.29641E-03   -0.11123E-03  3284   0.184E-01    0.366E-02
DAV:   5    -0.144382952432E+03    0.10062E-04   -0.41916E-04  3124   0.104E-01    0.432E-02
DAV:   6    -0.144382933280E+03    0.19152E-04   -0.11553E-04  2990   0.490E-02    0.281E-02
DAV:   7    -0.144382905951E+03    0.27329E-04   -0.43581E-05  2940   0.401E-02    0.172E-02
DAV:   8    -0.144382884418E+03    0.21533E-04   -0.58828E-05  3106   0.625E-02    0.118E-02
DAV:   9    -0.144382884933E+03   -0.51511E-06   -0.11183E-04  2968   0.548E-02    0.176E-02
DAV:  10    -0.144382878527E+03    0.64062E-05   -0.19857E-05  2132   0.278E-02
  12 F= -.14438288E+03 E0= -.14437988E+03  d E =-.224846E-02
       N       E                     dE             d eps       ncg     rms          rms(c)
DAV:   1    -0.144382513193E+03    0.37174E-03   -0.99083E-01  2816   0.425E+00    0.120E-01
DAV:   2    -0.144384500537E+03   -0.19873E-02   -0.21368E-02  3072   0.572E-01    0.687E-02
DAV:   3    -0.144384396572E+03    0.10397E-03   -0.20589E-04  3280   0.685E-02    0.472E-02
DAV:   4    -0.144384315502E+03    0.81071E-04   -0.29710E-04  3252   0.106E-01    0.146E-02
DAV:   5    -0.144384323643E+03   -0.81412E-05   -0.13599E-04  2916   0.463E-02    0.182E-02
DAV:   6    -0.144384318951E+03    0.46920E-05   -0.99541E-06  1576   0.142E-02
  13 F= -.14438432E+03 E0= -.14438134E+03  d E =-.144042E-02
       N       E                     dE             d eps       ncg     rms          rms(c)
DAV:   1    -0.144376527532E+03    0.77961E-02   -0.50404E+00  2804   0.959E+00    0.269E-01
DAV:   2    -0.144386693054E+03   -0.10166E-01   -0.10900E-01  3080   0.129E+00    0.159E-01
DAV:   3    -0.144386127241E+03    0.56581E-03   -0.99107E-04  3304   0.158E-01    0.108E-01
DAV:   4    -0.144385657692E+03    0.46955E-03   -0.17006E-03  3308   0.264E-01    0.307E-02
DAV:   5    -0.144385703513E+03   -0.45821E-04   -0.78517E-04  3078   0.111E-01    0.398E-02
DAV:   6    -0.144385684311E+03    0.19202E-04   -0.36897E-05  2632   0.253E-02    0.280E-02
DAV:   7    -0.144385642757E+03    0.41553E-04   -0.12452E-04  3022   0.461E-02    0.135E-02
DAV:   8    -0.144385624755E+03    0.18002E-04   -0.16448E-05  2024   0.327E-02    0.161E-02
DAV:   9    -0.144385593279E+03    0.31476E-04   -0.40292E-05  2590   0.643E-02    0.116E-02
DAV:  10    -0.144385568521E+03    0.24758E-04   -0.77987E-05  3442   0.768E-02    0.130E-02
DAV:  11    -0.144385539805E+03    0.28716E-04   -0.64624E-05  3224   0.942E-02    0.181E-02
DAV:  12    -0.144385520203E+03    0.19602E-04   -0.49492E-05  3000   0.667E-02    0.212E-02
DAV:  13    -0.144385496708E+03    0.23494E-04   -0.25421E-05  2394   0.629E-02    0.125E-02
DAV:  14    -0.144385488146E+03    0.85629E-05   -0.83302E-05  3026   0.743E-02
  14 F= -.14438549E+03 E0= -.14438256E+03  d E =-.260962E-02
       N       E                     dE             d eps       ncg     rms          rms(c)
DAV:   1    -0.144385330076E+03    0.16663E-03   -0.88907E-01  2776   0.406E+00    0.117E-01
DAV:   2    -0.144387064800E+03   -0.17347E-02   -0.19170E-02  3088   0.558E-01    0.633E-02
DAV:   3    -0.144386998544E+03    0.66255E-04   -0.39946E-04  3272   0.856E-02    0.470E-02
DAV:   4    -0.144386948228E+03    0.50316E-04   -0.12127E-04  3018   0.503E-02    0.238E-02
DAV:   5    -0.144386923957E+03    0.24271E-04   -0.84323E-05  3008   0.551E-02    0.161E-02
DAV:   6    -0.144386918368E+03    0.55892E-05   -0.50540E-05  2832   0.425E-02
  15 F= -.14438692E+03 E0= -.14438398E+03  d E =-.143022E-02
       N       E                     dE             d eps       ncg     rms          rms(c)
DAV:   1    -0.144384634828E+03    0.22891E-02   -0.16476E+00  2780   0.552E+00    0.163E-01
DAV:   2    -0.144387940795E+03   -0.33060E-02   -0.36647E-02  3086   0.770E-01    0.875E-02
DAV:   3    -0.144387800930E+03    0.13986E-03   -0.69707E-04  3256   0.115E-01    0.664E-02
DAV:   4    -0.144387685766E+03    0.11516E-03   -0.30364E-04  3118   0.755E-02    0.309E-02
DAV:   5    -0.144387632726E+03    0.53040E-04   -0.14152E-04  3128   0.798E-02    0.268E-02
DAV:   6    -0.144387603946E+03    0.28780E-04   -0.11213E-04  3248   0.800E-02    0.157E-02
DAV:   7    -0.144387597445E+03    0.65011E-05   -0.10786E-04  2930   0.543E-02    0.150E-02
DAV:   8    -0.144387578718E+03    0.18727E-04   -0.41223E-05  2684   0.289E-02    0.871E-03
DAV:   9    -0.144387549383E+03    0.29335E-04   -0.92526E-06  1980   0.656E-02    0.108E-02
DAV:  10    -0.144387531293E+03    0.18090E-04   -0.22322E-05  2402   0.553E-02    0.107E-02
DAV:  11    -0.144387499933E+03    0.31360E-04   -0.61791E-05  3330   0.130E-01    0.796E-03
DAV:  12    -0.144387489888E+03    0.10045E-04   -0.10555E-04  3618   0.140E-01    0.166E-02
DAV:  13    -0.144387498957E+03   -0.90699E-05   -0.11675E-04  2696   0.337E-02    0.258E-02
DAV:  14    -0.144387494785E+03    0.41726E-05   -0.21989E-06  1552   0.142E-02
  16 F= -.14438749E+03 E0= -.14438457E+03  d E =-.200664E-02
       N       E                     dE             d eps       ncg     rms          rms(c)
DAV:   1    -0.144385708734E+03    0.17902E-02   -0.17942E+00  2816   0.565E+00    0.161E-01
DAV:   2    -0.144389282143E+03   -0.35734E-02   -0.38316E-02  3064   0.763E-01    0.920E-02
DAV:   3    -0.144389108787E+03    0.17336E-03   -0.41125E-04  3294   0.896E-02    0.650E-02
DAV:   4    -0.144388978960E+03    0.12983E-03   -0.60341E-04  3288   0.142E-01    0.238E-02
DAV:   5    -0.144388991887E+03   -0.12927E-04   -0.22209E-04  2992   0.617E-02    0.284E-02
DAV:   6    -0.144388981678E+03    0.10209E-04   -0.46146E-05  2538   0.292E-02    0.136E-02
DAV:   7    -0.144388978667E+03    0.30118E-05   -0.35735E-05  2760   0.254E-02
  17 F= -.14438898E+03 E0= -.14438605E+03  d E =-.148388E-02
       N       E                     dE             d eps       ncg     rms          rms(c)
DAV:   1    -0.144382970144E+03    0.60115E-02   -0.36258E+00  2812   0.804E+00    0.225E-01
DAV:   2    -0.144390232621E+03   -0.72625E-02   -0.77398E-02  3070   0.108E+00    0.136E-01
DAV:   3    -0.144389848227E+03    0.38439E-03   -0.71959E-04  3336   0.129E-01    0.945E-02
DAV:   4    -0.144389555861E+03    0.29237E-03   -0.17313E-03  3296   0.259E-01    0.372E-02
DAV:   5    -0.144389589781E+03   -0.33920E-04   -0.62237E-04  3006   0.101E-01    0.445E-02
DAV:   6    -0.144389570096E+03    0.19685E-04   -0.57443E-05  2818   0.293E-02    0.279E-02
DAV:   7    -0.144389553394E+03    0.16702E-04   -0.20987E-04  3066   0.580E-02    0.201E-02
DAV:   8    -0.144389548088E+03    0.53061E-05   -0.20625E-05  2074   0.292E-02
  18 F= -.14438955E+03 E0= -.14438662E+03  d E =-.205330E-02
       N       E                     dE             d eps       ncg     rms          rms(c)
DAV:   1    -0.144389428277E+03    0.12512E-03   -0.62743E-02  2804   0.106E+00    0.382E-02
DAV:   2    -0.144389564919E+03   -0.13664E-03   -0.16273E-03  3134   0.162E-01    0.197E-02
DAV:   3    -0.144389557527E+03    0.73923E-05   -0.35445E-05  2540   0.264E-02    0.149E-02
DAV:   4    -0.144389550426E+03    0.71011E-05   -0.31151E-05  2450   0.229E-02    0.630E-03
DAV:   5    -0.144389547345E+03    0.30805E-05   -0.46398E-06  1684   0.164E-02    0.761E-03
DAV:   6    -0.144389543145E+03    0.42007E-05   -0.18359E-06  1736   0.221E-02
  19 F= -.14438954E+03 E0= -.14438661E+03  d E =-.204836E-02
       N       E                     dE             d eps       ncg     rms          rms(c)
DAV:   1    -0.144389384704E+03    0.16264E-03   -0.36090E-01  2916   0.253E+00    0.700E-02
DAV:   2    -0.144389995571E+03   -0.61087E-03   -0.73602E-03  3088   0.342E-01    0.457E-02
DAV:   3    -0.144389933995E+03    0.61575E-04   -0.99251E-05  3142   0.488E-02    0.321E-02
DAV:   4    -0.144389881370E+03    0.52626E-04   -0.11496E-04  2914   0.627E-02    0.120E-02
DAV:   5    -0.144389874758E+03    0.66115E-05   -0.60209E-05  2932   0.384E-02    0.934E-03
DAV:   6    -0.144389871811E+03    0.29473E-05   -0.10498E-05  1638   0.152E-02
  20 F= -.14438987E+03 E0= -.14438694E+03  d E =-.328666E-03
