 vasp.5.3.5 31Mar14 (build Apr 08 2024 10:12:10) complex                        
  
 executed on             LinuxIFC date 2024.07.29  20:52:03
 running on    8 total cores
 distrk:  each k-point on    8 cores,    1 groups
 distr:  one band on NCORES_PER_BAND=   4 cores,    2 groups


--------------------------------------------------------------------------------------------------------


 INCAR:
 POTCAR:    PAW_PBE O 08Apr2002                   
 POTCAR:    PAW_PBE Mg 13Apr2007                  
 POTCAR:    PAW_PBE Al 04Jan2001                  
 POTCAR:    PAW_PBE O 08Apr2002                   
   VRHFIN =O: s2p4                                                              
   LEXCH  = PE                                                                  
   EATOM  =   432.3788 eV,   31.7789 Ry                                         
                                                                                
   TITEL  = PAW_PBE O 08Apr2002                                                 
   LULTRA =        F    use ultrasoft PP ?                                      
   IUNSCR =        1    unscreen: 0-lin 1-nonlin 2-no                           
   RPACOR =    1.200    partial core radius                                     
   POMASS =   16.000; ZVAL   =    6.000    mass and valenz                      
   RCORE  =    1.520    outmost cutoff radius                                   
   RWIGS  =    1.550; RWIGS  =    0.820    wigner-seitz radius (au A)           
   ENMAX  =  400.000; ENMIN  =  300.000 eV                                      
   ICORE  =        2    local potential                                         
   LCOR   =        T    correct aug charges                                     
   LPAW   =        T    paw PP                                                  
   EAUG   =  605.392                                                            
   DEXC   =    0.000                                                            
   RMAX   =    1.553    core radius for proj-oper                               
   RAUG   =    1.300    factor for augmentation sphere                          
   RDEP   =    1.550    radius for radial grids                                 
   RDEPT  =    1.329    core radius for aug-charge                              
                                                                                
   Atomic configuration                                                         
    4 entries                                                                   
     n  l   j            E        occ.                                          
     1  0  0.50      -514.6923   2.0000                                         
     2  0  0.50       -23.9615   2.0000                                         
     2  1  0.50        -9.0305   4.0000                                         
     3  2  1.50        -9.5241   0.0000                                         
   Description                                                                  
     l       E           TYP  RCUT    TYP  RCUT                                 
     0    -23.9615318     23  1.200                                             
     0     -9.5240782     23  1.200                                             
     1     -9.0304911     23  1.520                                             
     1      8.1634956     23  1.520                                             
     2     -9.5240782      7  1.500                                             
  local pseudopotential read in
  partial core-charges read in
  partial kinetic energy density read in
  kinetic energy density of atom read in
  atomic valenz-charges read in
  non local Contribution for L=           0  read in
    real space projection operators read in
  non local Contribution for L=           0  read in
    real space projection operators read in
  non local Contribution for L=           1  read in
    real space projection operators read in
  non local Contribution for L=           1  read in
    real space projection operators read in
    PAW grid and wavefunctions read in
 
   number of l-projection  operators is LMAX  =           4
   number of lm-projection operators is LMMAX =           8
 
 POTCAR:    PAW_PBE Mg 13Apr2007                  
   VRHFIN =Mg: s2p0                                                             
   LEXCH  = PE                                                                  
   EATOM  =    23.0369 eV,    1.6932 Ry                                         
                                                                                
   TITEL  = PAW_PBE Mg 13Apr2007                                                
   LULTRA =        F    use ultrasoft PP ?                                      
   IUNSCR =        1    unscreen: 0-lin 1-nonlin 2-no                           
   RPACOR =    1.500    partial core radius                                     
   POMASS =   24.305; ZVAL   =    2.000    mass and valenz                      
   RCORE  =    2.000    outmost cutoff radius                                   
   RWIGS  =    2.880; RWIGS  =    1.524    wigner-seitz radius (au A)           
   ENMAX  =  200.000; ENMIN  =  100.000 eV                                      
   RCLOC  =    1.506    cutoff for local pot                                    
   LCOR   =        T    correct aug charges                                     
   LPAW   =        T    paw PP                                                  
   EAUG   =  454.734                                                            
   DEXC   =    0.000                                                            
   RMAX   =    2.045    core radius for proj-oper                               
   RAUG   =    1.300    factor for augmentation sphere                          
   RDEP   =    2.025    radius for radial grids                                 
   RDEPT  =    1.942    core radius for aug-charge                              
                                                                                
   Atomic configuration                                                         
    6 entries                                                                   
     n  l   j            E        occ.                                          
     1  0  0.50     -1259.6230   2.0000                                         
     2  0  0.50       -79.8442   2.0000                                         
     2  1  1.50       -46.6121   6.0000                                         
     3  0  0.50        -4.7055   2.0000                                         
     3  1  0.50        -1.3660   0.0000                                         
     3  2  1.50        -1.3606   0.0000                                         
   Description                                                                  
     l       E           TYP  RCUT    TYP  RCUT                                 
     0     -4.7054661     23  2.000                                             
     0     27.2116520     23  2.000                                             
     1      1.3605826     23  2.000                                             
     1     27.2116520     23  2.000                                             
     2     -1.3605826     23  2.000                                             
  local pseudopotential read in
  partial core-charges read in
  partial kinetic energy density read in
  atomic valenz-charges read in
  non local Contribution for L=           0  read in
    real space projection operators read in
  non local Contribution for L=           0  read in
    real space projection operators read in
  non local Contribution for L=           1  read in
    real space projection operators read in
  non local Contribution for L=           1  read in
    real space projection operators read in
  non local Contribution for L=           2  read in
    real space projection operators read in
    PAW grid and wavefunctions read in
 
   number of l-projection  operators is LMAX  =           5
   number of lm-projection operators is LMMAX =          13
 
 POTCAR:    PAW_PBE Al 04Jan2001                  
   VRHFIN =Al: s2p1                                                             
   LEXCH  = PE                                                                  
   EATOM  =    53.5387 eV,    3.9350 Ry                                         
                                                                                
   TITEL  = PAW_PBE Al 04Jan2001                                                
   LULTRA =        F    use ultrasoft PP ?                                      
   IUNSCR =        1    unscreen: 0-lin 1-nonlin 2-no                           
   RPACOR =    1.500    partial core radius                                     
   POMASS =   26.981; ZVAL   =    3.000    mass and valenz                      
   RCORE  =    1.900    outmost cutoff radius                                   
   RWIGS  =    2.650; RWIGS  =    1.402    wigner-seitz radius (au A)           
   ENMAX  =  240.300; ENMIN  =  180.225 eV                                      
   ICORE  =        2    local potential                                         
   LCOR   =        T    correct aug charges                                     
   LPAW   =        T    paw PP                                                  
   EAUG   =  291.052                                                            
   DEXC   =    0.000                                                            
   RMAX   =    1.939    core radius for proj-oper                               
   RAUG   =    1.300    factor for augmentation sphere                          
   RDEP   =    1.966    radius for radial grids                                 
   RDEPT  =    1.856    core radius for aug-charge                              
                                                                                
   Atomic configuration                                                         
    6 entries                                                                   
     n  l   j            E        occ.                                          
     1  0  0.50     -1511.1048   2.0000                                         
     2  0  0.50      -108.1629   2.0000                                         
     2  1  1.50       -69.6402   6.0000                                         
     3  0  0.50        -7.7528   2.0000                                         
     3  1  1.50        -2.7121   1.0000                                         
     3  2  2.50        -2.7212   0.0000                                         
   Description                                                                  
     l       E           TYP  RCUT    TYP  RCUT                                 
     0     -7.7528455     23  1.900                                             
     0     -3.3096929     23  1.900                                             
     1     -2.7120682     23  1.900                                             
     1     13.6058260     23  1.900                                             
     2     -2.7211652      7  1.900                                             
  local pseudopotential read in
  partial core-charges read in
  partial kinetic energy density read in
  atomic valenz-charges read in
  non local Contribution for L=           0  read in
    real space projection operators read in
  non local Contribution for L=           0  read in
    real space projection operators read in
  non local Contribution for L=           1  read in
    real space projection operators read in
  non local Contribution for L=           1  read in
    real space projection operators read in
    PAW grid and wavefunctions read in
 
   number of l-projection  operators is LMAX  =           4
   number of lm-projection operators is LMMAX =           8
 

 ----------------------------------------------------------------------------- 
|                                                                             |
|  ADVICE TO THIS USER RUNNING 'VASP/VAMP'   (HEAR YOUR MASTER'S VOICE ...):  |
|                                                                             |
|      You have a (more or less) 'large supercell' and for larger cells       |
|      it might be more efficient to use real space projection opertators     |
|      So try LREAL= Auto  in the INCAR   file.                               |
|      Mind: At the moment your POTCAR file does not contain real space       |
|       projectors, and has to be modified,  BUT if you                       |
|      want to do an extremely  accurate calculation you might also keep the  |
|      reciprocal projection scheme          (i.e. LREAL=.FALSE.)             |
|                                                                             |
 ----------------------------------------------------------------------------- 

  PAW_PBE O 08Apr2002                   :
 energy of atom  1       EATOM= -432.3788
 kinetic energy error for atom=    0.0208 (will be added to EATOM!!)
  PAW_PBE Mg 13Apr2007                  :
 energy of atom  2       EATOM=  -23.0369
 kinetic energy error for atom=    0.0000 (will be added to EATOM!!)
  PAW_PBE Al 04Jan2001                  :
 energy of atom  3       EATOM=  -53.5387
 kinetic energy error for atom=    0.0002 (will be added to EATOM!!)
 
 
 POSCAR: Layer                                   
  positions in direct lattice
  velocities in cartesian coordinates
 exchange correlation table for  LEXCH =        8
   RHO(1)=    0.500       N(1)  =     2000
   RHO(2)=  100.500       N(2)  =     4000
 


--------------------------------------------------------------------------------------------------------


 ion  position               nearest neighbor table
   1  0.000  0.000  0.280-  14 2.15  14 2.15  14 2.15  18 2.18  18 2.18  18 2.18
   2  0.333  0.667  0.334-  14 2.15  14 2.15  14 2.15  11 2.15  11 2.15  11 2.15
   3  0.000  0.000  0.443-  19 2.15  19 2.15  19 2.15  15 2.15  15 2.15  15 2.15
   4  0.333  0.667  0.497-  15 2.15  15 2.15  15 2.15  12 2.15  12 2.15  12 2.15
   5  0.000  0.000  0.606-  16 2.15  16 2.15  16 2.15  20 2.15  20 2.15  20 2.15
   6  0.333  0.667  0.660-  13 2.15  13 2.15  13 2.15  16 2.15  16 2.15  16 2.15
   7  0.000  0.000  0.768-  21 2.15  21 2.15  21 2.15  17 2.18  17 2.18  17 2.18
   8  0.667  0.333  0.389-  11 2.15  11 2.15  11 2.15  19 2.15  19 2.15  19 2.15
   9  0.667  0.333  0.551-  20 2.15  20 2.15  20 2.15  12 2.15  12 2.15  12 2.15
  10  0.667  0.333  0.714-  21 2.15  21 2.15  21 2.15  13 2.15  13 2.15  13 2.15
  11  0.000  0.000  0.362-   8 2.15   8 2.15   8 2.15   2 2.15   2 2.15   2 2.15  14 3.08  14 3.08
                            14 3.08  19 3.09  19 3.09  19 3.09
  12  0.000  0.000  0.524-   9 2.15   9 2.15   9 2.15   4 2.15   4 2.15   4 2.15  15 3.09  15 3.09
                            15 3.09  20 3.09  20 3.09  20 3.09
  13  0.000  0.000  0.687-   6 2.15   6 2.15   6 2.15  10 2.15  10 2.15  10 2.15  21 3.08  21 3.08
                            21 3.08  16 3.09  16 3.09  16 3.09
  14  0.667  0.333  0.307-   2 2.15   2 2.15   2 2.15   1 2.15   1 2.15   1 2.15  11 3.08  11 3.08
                            11 3.08  18 3.12  18 3.12  18 3.12
  15  0.667  0.333  0.470-   4 2.15   4 2.15   4 2.15   3 2.15   3 2.15   3 2.15  12 3.09  12 3.09
                            12 3.09  19 3.09  19 3.09  19 3.09
  16  0.667  0.333  0.633-   5 2.15   5 2.15   5 2.15   6 2.15   6 2.15   6 2.15  13 3.09  13 3.09
                            13 3.09  20 3.09  20 3.09  20 3.09
  17  0.667  0.333  0.796-   7 2.18   7 2.18   7 2.18  21 3.12  21 3.12  21 3.12  26 3.26  26 3.26
                            26 3.26
  18  0.333  0.667  0.252-   1 2.18   1 2.18   1 2.18  14 3.12  14 3.12  14 3.12  23 3.26  23 3.26
                            23 3.26
  19  0.333  0.667  0.416-   3 2.15   3 2.15   3 2.15   8 2.15   8 2.15   8 2.15  11 3.09  11 3.09
                            11 3.09  15 3.09  15 3.09  15 3.09
  20  0.333  0.667  0.579-   9 2.15   9 2.15   9 2.15   5 2.15   5 2.15   5 2.15  12 3.09  12 3.09
                            12 3.09  16 3.09  16 3.09  16 3.09
  21  0.333  0.667  0.741-  10 2.15  10 2.15  10 2.15   7 2.15   7 2.15   7 2.15  13 3.08  13 3.08
                            13 3.08  17 3.12  17 3.12  17 3.12
  22  0.000  0.000  0.024-  25 3.09  25 3.09  25 3.09  27 3.09  27 3.09  27 3.09
  23  0.000  0.000  0.193-  24 3.24  24 3.24  24 3.24  18 3.26  18 3.26  18 3.26
  24  0.667  0.333  0.135-  25 3.18  25 3.18  25 3.18  23 3.24  23 3.24  23 3.24
  25  0.333  0.667  0.079-  22 3.09  22 3.09  22 3.09  24 3.18  24 3.18  24 3.18
  26  0.000  0.000  0.855-  28 3.24  28 3.24  28 3.24  17 3.26  17 3.26  17 3.26
  27  0.667  0.333  0.970-  22 3.09  22 3.09  22 3.09  28 3.18  28 3.18  28 3.18
  28  0.333  0.667  0.913-  27 3.18  27 3.18  27 3.18  26 3.24  26 3.24  26 3.24
 
  LATTYP: Found a hexagonal cell.
 ALAT       =     2.9932160299
 C/A-ratio  =    15.7450074136
  
  Lattice vectors:
  
 A1 = (   2.5922013181,  -1.4966076735,   0.0000000000)
 A2 = (   0.0000000000,   2.9932153469,   0.0000000000)
 A3 = (  -0.0000000000,   0.0000000000,  47.1282085819)


Analysis of symmetry for initial positions (statically):
=====================================================================
 Subroutine PRICEL returns:
 Original cell was already a primitive cell.
 

 Routine SETGRP: Setting up the symmetry group for a 
 hexagonal supercell.


 Subroutine GETGRP returns: Found 12 space group operations
 (whereof  6 operations were pure point group operations)
 out of a pool of 24 trial point group operations.


The static configuration has the point symmetry C_3v.
 The point group associated with its full space group is D_3d.


Analysis of symmetry for dynamics (positions and initial velocities):
=====================================================================
 Subroutine PRICEL returns:
 Original cell was already a primitive cell.
 

 Routine SETGRP: Setting up the symmetry group for a 
 hexagonal supercell.


 Subroutine GETGRP returns: Found 12 space group operations
 (whereof  6 operations were pure point group operations)
 out of a pool of 24 trial point group operations.


The dynamic configuration has the point symmetry C_3v.
 The point group associated with its full space group is D_3d.


Analysis of constrained symmetry for selective dynamics:
=====================================================================
 Subroutine PRICEL returns:
 Original cell was already a primitive cell.
 

 Routine SETGRP: Setting up the symmetry group for a 
 hexagonal supercell.


 Subroutine GETGRP returns: Found 12 space group operations
 (whereof  6 operations were pure point group operations)
 out of a pool of 24 trial point group operations.


The constrained configuration has the point symmetry C_3v.
 The point group associated with its full space group is D_3d.
 
 
 KPOINTS: K-Spacing Value to Generate K-Mesh: 0.02

Automatic generation of k-mesh.
Space group operators:
 irot       det(A)        alpha          n_x          n_y          n_z        tau_x        tau_y        tau_z
    1     1.000000     0.000001     1.000000     0.000000     0.000000     0.000000     0.000000     0.000000
    2     1.000000   120.000000     0.000000     0.000000    -1.000000     0.000000     0.000000     0.000000
    3     1.000000   120.000000    -0.000000     0.000000     1.000000     0.000000     0.000000     0.000000
    4    -1.000000   180.000000    -0.866025     0.500000    -0.000000     0.000000     0.000000     0.000000
    5    -1.000000   180.000000     0.000000     1.000000     0.000000     0.000000     0.000000     0.000000
    6    -1.000000   180.000000    -0.866025    -0.500000    -0.000000     0.000000     0.000000     0.000000
    7    -1.000000     0.000001     1.000000     0.000000     0.000000     0.000000     0.000000     0.048638
    8    -1.000000   120.000000     0.000000     0.000000    -1.000000     0.000000     0.000000     0.048638
    9    -1.000000   120.000000    -0.000000     0.000000     1.000000     0.000001     0.000000     0.048638
   10     1.000000   180.000000    -0.866025     0.500000    -0.000000     0.000001     0.000000     0.048638
   11     1.000000   180.000000     0.000000     1.000000     0.000000     0.000000     0.000000     0.048638
   12     1.000000   180.000000    -0.866025    -0.500000    -0.000000     0.000000     0.000000     0.048638
 
 Subroutine IBZKPT returns following result:
 ===========================================
 
 Found     21 irreducible k-points:
 
 Following reciprocal coordinates:
            Coordinates               Weight
  0.000000  0.000000  0.000000      1.000000
  0.076923  0.000000  0.000000      6.000000
  0.153846  0.000000  0.000000      6.000000
  0.230769  0.000000  0.000000      6.000000
  0.307692  0.000000 -0.000000      6.000000
  0.384615  0.000000  0.000000      6.000000
  0.461538  0.000000  0.000000      6.000000
  0.076923  0.076923  0.000000      6.000000
  0.153846  0.076923  0.000000     12.000000
  0.230769  0.076923  0.000000     12.000000
  0.307692  0.076923  0.000000     12.000000
  0.384615  0.076923  0.000000     12.000000
  0.461538  0.076923  0.000000      6.000000
  0.153846  0.153846  0.000000      6.000000
  0.230769  0.153846 -0.000000     12.000000
  0.307692  0.153846  0.000000     12.000000
  0.384615  0.153846  0.000000     12.000000
  0.230769  0.230769  0.000000      6.000000
  0.307692  0.230769 -0.000000     12.000000
  0.384615  0.230769 -0.000000      6.000000
  0.307692  0.307692  0.000000      6.000000
 
 Following cartesian coordinates:
            Coordinates               Weight
  0.000000  0.000000  0.000000      1.000000
  0.029675  0.000000  0.000000      6.000000
  0.059350  0.000000  0.000000      6.000000
  0.089024  0.000000  0.000000      6.000000
  0.118699  0.000000  0.000000      6.000000
  0.148374  0.000000  0.000000      6.000000
  0.178049  0.000000  0.000000      6.000000
  0.044512  0.025699  0.000000      6.000000
  0.074187  0.025699  0.000000     12.000000
  0.103862  0.025699  0.000000     12.000000
  0.133537  0.025699  0.000000     12.000000
  0.163211  0.025699  0.000000     12.000000
  0.192886  0.025699  0.000000      6.000000
  0.089024  0.051398  0.000000      6.000000
  0.118699  0.051398  0.000000     12.000000
  0.148374  0.051398  0.000000     12.000000
  0.178049  0.051398  0.000000     12.000000
  0.133537  0.077097  0.000000      6.000000
  0.163211  0.077097  0.000000     12.000000
  0.192886  0.077097  0.000000      6.000000
  0.178049  0.102797  0.000000      6.000000
 


--------------------------------------------------------------------------------------------------------




 Dimension of arrays:
   k-points           NKPTS =     21   k-points in BZ     NKDIM =     21   number of bands    NBANDS=     66
   number of dos      NEDOS =    301   number of ions     NIONS =     28
   non local maximal  LDIM  =      5   non local SUM 2l+1 LMDIM =     13
   total plane-waves  NPLWV = 207360
   max r-space proj   IRMAX =      1   max aug-charges    IRDMAX= 192890
   dimension x,y,z NGX =    24 NGY =   24 NGZ =  360
   dimension x,y,z NGXF=    48 NGYF=   48 NGZF=  720
   support grid    NGXF=    96 NGYF=   96 NGZF= 1440
   ions per type =              10  11   7
 NGX,Y,Z   is equivalent  to a cutoff of  13.33, 13.33, 12.70 a.u.
 NGXF,Y,Z  is equivalent  to a cutoff of  26.66, 26.66, 25.40 a.u.


 I would recommend the setting:
   dimension x,y,z NGX =    22 NGY =   22 NGZ =  351
 SYSTEM =  unknown system                          
 POSCAR =  Layer                                   

 Startparameter for this run:
   NWRITE =      2    write-flag & timer
   PREC   = accura    normal or accurate (medium, high low for compatibility)
   ISTART =      0    job   : 0-new  1-cont  2-samecut
   ICHARG =      2    charge: 1-file 2-atom 10-const
   ISPIN  =      1    spin polarized calculation?
   LNONCOLLINEAR =      F non collinear calculations
   LSORBIT =      F    spin-orbit coupling
   INIWAV =      1    electr: 0-lowe 1-rand  2-diag
   LASPH  =      F    aspherical Exc in radial PAW
   METAGGA=      F    non-selfconsistent MetaGGA calc.

 Electronic Relaxation 1
   ENCUT  =  520.0 eV  38.22 Ry    6.18 a.u.   5.57  5.57 87.63*2*pi/ulx,y,z
   ENINI  =  520.0     initial cutoff
   ENAUG  =  605.4 eV  augmentation charge cutoff
   NELM   =    100;   NELMIN=  6; NELMDL=  0     # of ELM steps 
   EDIFF  = 0.1E-04   stopping-criterion for ELM
   LREAL  =      F    real-space projection
   NLSPLINE    = F    spline interpolate recip. space projectors
   LCOMPAT=      F    compatible to vasp.4.4
   GGA_COMPAT  = T    GGA compatible to vasp.4.4-vasp.4.6
   LMAXPAW     = -100 max onsite density
   LMAXMIX     =    2 max onsite mixed and CHGCAR
   VOSKOWN=      0    Vosko Wilk Nusair interpolation
   ROPT   =    0.00000   0.00000   0.00000
 Ionic relaxation
   EDIFFG = -.2E-01   stopping-criterion for IOM
   NSW    =    500    number of steps for IOM
   NBLOCK =      1;   KBLOCK =    500    inner block; outer block 
   IBRION =      2    ionic relax: 0-MD 1-quasi-New 2-CG
   NFREE  =      1    steps in history (QN), initial steepest desc. (CG)
   ISIF   =      2    stress and relaxation
   IWAVPR =     11    prediction:  0-non 1-charg 2-wave 3-comb
   ISYM   =      2    0-nonsym 1-usesym 2-fastsym
   LCORR  =      T    Harris-Foulkes like correction to forces

   POTIM  = 0.5000    time-step for ionic-motion
   TEIN   =    0.0    initial temperature
   TEBEG  =    0.0;   TEEND  =   0.0 temperature during run
   SMASS  =  -3.00    Nose mass-parameter (am)
   estimated Nose-frequenzy (Omega)   =  0.10E-29 period in steps =****** mass=  -0.205E-27a.u.
   SCALEE = 1.0000    scale energy and forces
   NPACO  =    256;   APACO  = 16.0  distance and # of slots for P.C.
   PSTRESS=    0.0 pullay stress

  Mass of Ions in am
   POMASS =  16.00 24.30 26.98
  Ionic Valenz
   ZVAL   =   6.00  2.00  3.00
  Atomic Wigner-Seitz radii
   RWIGS  =  -1.00 -1.00 -1.00
  virtual crystal weights 
   VCA    =   1.00  1.00  1.00
   NELECT =     103.0000    total number of electrons
   NUPDOWN=      -1.0000    fix difference up-down

 DOS related values:
   EMIN   =  10.00;   EMAX   =-10.00  energy-range for DOS
   EFERMI =   0.00
   ISMEAR =     0;   SIGMA  =   0.05  broadening in eV -4-tet -1-fermi 0-gaus

 Electronic relaxation 2 (details)
   IALGO  =     38    algorithm
   LDIAG  =      T    sub-space diagonalisation (order eigenvalues)
   LSUBROT=      F    optimize rotation matrix (better conditioning)
   TURBO    =      0    0=normal 1=particle mesh
   IRESTART =      0    0=no restart 2=restart with 2 vectors
   NREBOOT  =      0    no. of reboots
   NMIN     =      0    reboot dimension
   EREF     =   0.00    reference energy to select bands
   IMIX   =      4    mixing-type and parameters
     AMIX     =   0.40;   BMIX     =  1.00
     AMIX_MAG =   1.60;   BMIX_MAG =  1.00
     AMIN     =   0.01
     WC   =   100.;   INIMIX=   1;  MIXPRE=   1;  MAXMIX= -45

 Intra band minimization:
   WEIMIN = 0.0010     energy-eigenvalue tresh-hold
   EBREAK =  0.38E-07  absolut break condition
   DEPER  =   0.30     relativ break condition  

   TIME   =   0.40     timestep for ELM

  volume/ion in A,a.u.               =      13.06        88.13
  Fermi-wavevector in a.u.,A,eV,Ry     =   1.073144  2.027948 15.668989  1.151638
  Thomas-Fermi vector in A             =   2.208935
 
 Write flags
   LWAVE  =      F    write WAVECAR
   LCHARG =      T    write CHGCAR
   LVTOT  =      F    write LOCPOT, total local potential
   LVHAR  =      F    write LOCPOT, Hartree potential only
   LELF   =      F    write electronic localiz. function (ELF)
   LORBIT =      0    0 simple, 1 ext, 2 COOP (PROOUT)


 Dipole corrections
   LMONO  =      F    monopole corrections only (constant potential shift)
   LDIPOL =      F    correct potential (dipole corrections)
   IDIPOL =      0    1-x, 2-y, 3-z, 4-all directions 
   EPSILON=  1.0000000 bulk dielectric constant

 Exchange correlation treatment:
   GGA     =    --    GGA type
   LEXCH   =     8    internal setting for exchange type
   VOSKOWN=      0    Vosko Wilk Nusair interpolation
   LHFCALC =     F    Hartree Fock is set to
   LHFONE  =     F    Hartree Fock one center treatment
   AEXX    =    0.0000 exact exchange contribution

 Linear response parameters
   LEPSILON=     F    determine dielectric tensor
   LRPA    =     F    only Hartree local field effects (RPA)
   LNABLA  =     F    use nabla operator in PAW spheres
   LVEL    =     F    velocity operator in full k-point grid
   LINTERFAST=   F  fast interpolation
   KINTER  =     0    interpolate to denser k-point grid
   CSHIFT  =0.1000    complex shift for real part using Kramers Kronig
   OMEGAMAX=  -1.0    maximum frequency
   DEG_THRESHOLD= 0.2000000E-02 threshold for treating states as degnerate
   RTIME   =    0.100 relaxation time in fs

 Orbital magnetization related:
   ORBITALMAG=     F  switch on orbital magnetization
   LCHIMAG   =     F  perturbation theory with respect to B field
   DQ        =  0.001000  dq finite difference perturbation B field



--------------------------------------------------------------------------------------------------------


 conjugate gradient relaxation of ions
   using selective dynamics as specified on POSCAR
 charge density and potential will be updated during run
 non-spin polarized calculation
 Variant of blocked Davidson
 Davidson routine will perform the subspace rotation
 perform sub-space diagonalisation
    after iterative eigenvector-optimisation
 modified Broyden-mixing scheme, WC =      100.0
 initial mixing is a Kerker type mixing with AMIX =  0.4000 and BMIX =      1.0000
 Hartree-type preconditioning will be used
 using additional bands           14
 reciprocal scheme for non local part
 use partial core corrections
 calculate Harris-corrections to forces 
   (improved forces if not selfconsistent)
 use gradient corrections 
 use of overlap-Matrix (Vanderbilt PP)
 Gauss-broadening in eV      SIGMA  =   0.05


--------------------------------------------------------------------------------------------------------


  energy-cutoff  :      520.00
  volume of cell :      365.67
      direct lattice vectors                 reciprocal lattice vectors
     2.592201318 -1.496607673  0.000000000     0.385772507  0.000000000  0.000000000
     0.000000000  2.993215347  0.000000000     0.192886253  0.334088892  0.000000000
    -0.000000000  0.000000000 47.128208582     0.000000000  0.000000000  0.021218714

  length of vectors
     2.993216030  2.993215347 47.128208582     0.385772507  0.385772595  0.021218714


 
 k-points in units of 2pi/SCALE and weight: K-Spacing Value to Generate K-Mesh: 0.02
   0.00000000  0.00000000  0.00000000       0.006
   0.02967481  0.00000000  0.00000000       0.036
   0.05934962  0.00000000  0.00000000       0.036
   0.08902442  0.00000000  0.00000000       0.036
   0.11869923  0.00000000  0.00000000       0.036
   0.14837404  0.00000000  0.00000000       0.036
   0.17804885  0.00000000  0.00000000       0.036
   0.04451221  0.02569915  0.00000000       0.036
   0.07418702  0.02569915  0.00000000       0.071
   0.10386183  0.02569915  0.00000000       0.071
   0.13353664  0.02569915  0.00000000       0.071
   0.16321145  0.02569915  0.00000000       0.071
   0.19288625  0.02569915  0.00000000       0.036
   0.08902442  0.05139829  0.00000000       0.036
   0.11869923  0.05139829  0.00000000       0.071
   0.14837404  0.05139829  0.00000000       0.071
   0.17804885  0.05139829  0.00000000       0.071
   0.13353664  0.07709744  0.00000000       0.036
   0.16321145  0.07709744  0.00000000       0.071
   0.19288625  0.07709744  0.00000000       0.036
   0.17804885  0.10279658  0.00000000       0.036
 
 k-points in reciprocal lattice and weights: K-Spacing Value to Generate K-Mesh: 0.02
   0.00000000  0.00000000  0.00000000       0.006
   0.07692308  0.00000000  0.00000000       0.036
   0.15384615  0.00000000  0.00000000       0.036
   0.23076923  0.00000000  0.00000000       0.036
   0.30769231  0.00000000 -0.00000000       0.036
   0.38461538  0.00000000  0.00000000       0.036
   0.46153846  0.00000000  0.00000000       0.036
   0.07692308  0.07692308  0.00000000       0.036
   0.15384615  0.07692308  0.00000000       0.071
   0.23076923  0.07692308  0.00000000       0.071
   0.30769231  0.07692308  0.00000000       0.071
   0.38461538  0.07692308  0.00000000       0.071
   0.46153846  0.07692308  0.00000000       0.036
   0.15384615  0.15384615  0.00000000       0.036
   0.23076923  0.15384615 -0.00000000       0.071
   0.30769231  0.15384615  0.00000000       0.071
   0.38461538  0.15384615  0.00000000       0.071
   0.23076923  0.23076923  0.00000000       0.036
   0.30769231  0.23076923 -0.00000000       0.071
   0.38461538  0.23076923 -0.00000000       0.036
   0.30769231  0.30769231  0.00000000       0.036
 
 position of ions in fractional coordinates (direct lattice) 
   0.00000000  0.00000000  0.28027673
   0.33333300  0.66666700  0.33446785
   0.00000000  0.00000000  0.44294384
   0.33333300  0.66666700  0.49719228
   0.00000000  0.00000000  0.60569335
   0.33333300  0.66666700  0.65994010
   0.00000000  0.00000000  0.76836846
   0.66666700  0.33333300  0.38870013
   0.66666700  0.33333300  0.55144327
   0.66666700  0.33333300  0.71417537
   0.00000000  0.00000000  0.36159350
   0.00000000  0.00000000  0.52431823
   0.00000000  0.00000000  0.68704777
   0.66666700  0.33333300  0.30737698
   0.66666700  0.33333300  0.47007493
   0.66666700  0.33333300  0.63280834
   0.66666700  0.33333300  0.79643183
   0.33333300  0.66666700  0.25221350
   0.33333300  0.66666700  0.41583104
   0.33333300  0.66666700  0.57856221
   0.33333300  0.66666700  0.74126629
   0.00000000  0.00000000  0.02431958
   0.00000000  0.00000000  0.19344793
   0.66666700  0.33333300  0.13533609
   0.33333300  0.66666700  0.07862895
   0.00000000  0.00000000  0.85519833
   0.66666700  0.33333300  0.97000932
   0.33333300  0.66666700  0.91330479
 
 position of ions in cartesian coordinates  (Angst):
  -0.00000000  0.00000000 13.20894030
   0.86406624  1.49660917 15.76287058
  -0.00000000  0.00000000 20.87514971
   0.86406624  1.49660917 23.43178127
  -0.00000000  0.00000000 28.54524256
   0.86406624  1.49660917 31.10179476
  -0.00000000  0.00000000 36.21182904
   1.72813508 -0.00000150 18.31874101
   1.72813508 -0.00000150 25.98853355
   1.72813508 -0.00000150 33.65780582
  -0.00000000  0.00000000 17.04125370
  -0.00000000  0.00000000 24.71017909
  -0.00000000  0.00000000 32.37933082
   1.72813508 -0.00000150 14.48612649
   1.72813508 -0.00000150 22.15378914
   1.72813508 -0.00000150 29.82312332
   1.72813508 -0.00000150 37.53440541
   0.86406624  1.49660917 11.88637062
   0.86406624  1.49660917 19.59737193
   0.86406624  1.49660917 27.26660062
   0.86406624  1.49660917 34.93455222
  -0.00000000  0.00000000  1.14613830
  -0.00000000  0.00000000  9.11685450
   1.72813508 -0.00000150  6.37814750
   0.86406624  1.49660917  3.70564135
  -0.00000000  0.00000000 40.30396505
   1.72813508 -0.00000150 45.71480172
   0.86406624  1.49660917 43.04241882
 


--------------------------------------------------------------------------------------------------------


 k-point  1 :   0.0000 0.0000 0.0000  plane waves:    9991
 k-point  2 :   0.0769 0.0000 0.0000  plane waves:    9979
 k-point  3 :   0.1538 0.0000 0.0000  plane waves:    9937
 k-point  4 :   0.2308 0.0000 0.0000  plane waves:    9910
 k-point  5 :   0.3077 0.0000-0.0000  plane waves:    9854
 k-point  6 :   0.3846 0.0000 0.0000  plane waves:    9782
 k-point  7 :   0.4615 0.0000 0.0000  plane waves:    9810
 k-point  8 :   0.0769 0.0769 0.0000  plane waves:    9961
 k-point  9 :   0.1538 0.0769 0.0000  plane waves:    9922
 k-point 10 :   0.2308 0.0769 0.0000  plane waves:    9871
 k-point 11 :   0.3077 0.0769 0.0000  plane waves:    9844
 k-point 12 :   0.3846 0.0769 0.0000  plane waves:    9794
 k-point 13 :   0.4615 0.0769 0.0000  plane waves:    9758
 k-point 14 :   0.1538 0.1538 0.0000  plane waves:    9871
 k-point 15 :   0.2308 0.1538-0.0000  plane waves:    9840
 k-point 16 :   0.3077 0.1538 0.0000  plane waves:    9834
 k-point 17 :   0.3846 0.1538 0.0000  plane waves:    9784
 k-point 18 :   0.2308 0.2308 0.0000  plane waves:    9848
 k-point 19 :   0.3077 0.2308-0.0000  plane waves:    9787
 k-point 20 :   0.3846 0.2308-0.0000  plane waves:    9816
 k-point 21 :   0.3077 0.3077 0.0000  plane waves:    9834

 maximum and minimum number of plane-waves per node :      2540     2424

 maximum number of plane-waves:      9991
 maximum index in each direction: 
   IXMAX=    5   IYMAX=    5   IZMAX=   87
   IXMIN=   -6   IYMIN=   -5   IZMIN=  -87

 NGX is ok and might be reduce to  24
 NGY is ok and might be reduce to  22
 NGZ is ok and might be reduce to 350

 parallel 3D FFT for wavefunctions:
    minimum data exchange during FFTs selected (reduces bandwidth)
 parallel 3D FFT for charge:
    minimum data exchange during FFTs selected (reduces bandwidth)


 total amount of memory used by VASP on root node   162559. kBytes
========================================================================

   base      :      30000. kBytes
   nonl-proj :      17318. kBytes
   fftplans  :      62072. kBytes
   grid      :      24883. kBytes
   one-center:         56. kBytes
   wavefun   :      28230. kBytes
 
     INWAV:  cpu time    0.00: real time    0.00
 Broyden mixing: mesh for mixing (old mesh)
   NGX = 11   NGY = 11   NGZ =175
  (NGX  = 48   NGY  = 48   NGZ  =720)
  gives a total of  21175 points

 initial charge density was supplied:
 charge density of overlapping atoms calculated
 number of electron     103.0000000 magnetization 
 keeping initial charge density in first step


--------------------------------------------------------------------------------------------------------


 Maximum index for augmentation-charges        23223 (set IRDMAX)


--------------------------------------------------------------------------------------------------------


 First call to EWALD:  gamma=   0.248
 Maximum number of real-space cells 7x 7x 1
 Maximum number of reciprocal cells 1x 1x15

 FEWALD executed in parallel
    FEWALD:  cpu time    0.00: real time    0.00


----------------------------------------- Iteration    1(   1)  ---------------------------------------


    POTLOK:  cpu time    0.12: real time    0.12
    SETDIJ:  cpu time    0.11: real time    0.11
     EDDAV:  cpu time    5.19: real time    5.21
       DOS:  cpu time    0.00: real time    0.00
    --------------------------------------------
      LOOP:  cpu time    5.42: real time    5.44

 eigenvalue-minimisations  :  2780
 total energy-change (2. order) : 0.5256793E+03  (-0.4489399E+04)
 number of electron     103.0000000 magnetization 
 augmentation part      103.0000000 magnetization 

 Free energy of the ion-electron system (eV)
  ---------------------------------------------------
  alpha Z        PSCENC =       132.74958321
  Ewald energy   TEWEN  =     21799.70220783
  -Hartree energ DENC   =    -26981.76407538
  -exchange      EXHF   =         0.00000000
  -V(xc)+E(xc)   XCENC  =      -441.55377962
  PAW double counting   =      4647.26951674    -3871.08436696
  entropy T*S    EENTRO =        -0.00419810
  eigenvalues    EBANDS =       288.60984042
  atomic energy  EATOM  =      4951.75456612
  ---------------------------------------------------
  free energy    TOTEN  =       525.67929426 eV

  energy without entropy =      525.68349236  energy(sigma->0) =      525.68139331


--------------------------------------------------------------------------------------------------------




----------------------------------------- Iteration    1(   2)  ---------------------------------------


     EDDAV:  cpu time    6.24: real time    6.25
       DOS:  cpu time    0.00: real time    0.00
    --------------------------------------------
      LOOP:  cpu time    6.24: real time    6.25

 eigenvalue-minimisations  :  3602
 total energy-change (2. order) :-0.6227102E+03  (-0.5901978E+03)
 number of electron     103.0000000 magnetization 
 augmentation part      103.0000000 magnetization 

 Free energy of the ion-electron system (eV)
  ---------------------------------------------------
  alpha Z        PSCENC =       132.74958321
  Ewald energy   TEWEN  =     21799.70220783
  -Hartree energ DENC   =    -26981.76407538
  -exchange      EXHF   =         0.00000000
  -V(xc)+E(xc)   XCENC  =      -441.55377962
  PAW double counting   =      4647.26951674    -3871.08436696
  entropy T*S    EENTRO =        -0.00436173
  eigenvalues    EBANDS =      -334.10018421
  atomic energy  EATOM  =      4951.75456612
  ---------------------------------------------------
  free energy    TOTEN  =       -97.03089400 eV

  energy without entropy =      -97.02653227  energy(sigma->0) =      -97.02871314


--------------------------------------------------------------------------------------------------------




----------------------------------------- Iteration    1(   3)  ---------------------------------------


     EDDAV:  cpu time    5.72: real time    5.72
       DOS:  cpu time    0.00: real time    0.00
    --------------------------------------------
      LOOP:  cpu time    5.72: real time    5.73

 eigenvalue-minimisations  :  3232
 total energy-change (2. order) :-0.6280508E+02  (-0.6247007E+02)
 number of electron     103.0000000 magnetization 
 augmentation part      103.0000000 magnetization 

 Free energy of the ion-electron system (eV)
  ---------------------------------------------------
  alpha Z        PSCENC =       132.74958321
  Ewald energy   TEWEN  =     21799.70220783
  -Hartree energ DENC   =    -26981.76407538
  -exchange      EXHF   =         0.00000000
  -V(xc)+E(xc)   XCENC  =      -441.55377962
  PAW double counting   =      4647.26951674    -3871.08436696
  entropy T*S    EENTRO =        -0.00418132
  eigenvalues    EBANDS =      -396.90544040
  atomic energy  EATOM  =      4951.75456612
  ---------------------------------------------------
  free energy    TOTEN  =      -159.83596978 eV

  energy without entropy =     -159.83178846  energy(sigma->0) =     -159.83387912


--------------------------------------------------------------------------------------------------------




----------------------------------------- Iteration    1(   4)  ---------------------------------------


     EDDAV:  cpu time    5.61: real time    5.61
       DOS:  cpu time    0.00: real time    0.00
    --------------------------------------------
      LOOP:  cpu time    5.61: real time    5.62

 eigenvalue-minimisations  :  3208
 total energy-change (2. order) :-0.8601568E+00  (-0.8587187E+00)
 number of electron     103.0000000 magnetization 
 augmentation part      103.0000000 magnetization 

 Free energy of the ion-electron system (eV)
  ---------------------------------------------------
  alpha Z        PSCENC =       132.74958321
  Ewald energy   TEWEN  =     21799.70220783
  -Hartree energ DENC   =    -26981.76407538
  -exchange      EXHF   =         0.00000000
  -V(xc)+E(xc)   XCENC  =      -441.55377962
  PAW double counting   =      4647.26951674    -3871.08436696
  entropy T*S    EENTRO =        -0.00436452
  eigenvalues    EBANDS =      -397.76541402
  atomic energy  EATOM  =      4951.75456612
  ---------------------------------------------------
  free energy    TOTEN  =      -160.69612660 eV

  energy without entropy =     -160.69176208  energy(sigma->0) =     -160.69394434


--------------------------------------------------------------------------------------------------------




----------------------------------------- Iteration    1(   5)  ---------------------------------------


     EDDAV:  cpu time    5.75: real time    5.75
       DOS:  cpu time    0.00: real time    0.00
    CHARGE:  cpu time    0.44: real time    0.44
    MIXING:  cpu time    0.01: real time    0.01
    --------------------------------------------
      LOOP:  cpu time    6.19: real time    6.20

 eigenvalue-minimisations  :  3312
 total energy-change (2. order) :-0.1388469E-01  (-0.1387817E-01)
 number of electron     103.0000001 magnetization 
 augmentation part        7.6923098 magnetization 

 Broyden mixing:
  rms(total) = 0.23106E+01    rms(broyden)= 0.23101E+01
  rms(prec ) = 0.23576E+01
  weight for this iteration     100.00

 Free energy of the ion-electron system (eV)
  ---------------------------------------------------
  alpha Z        PSCENC =       132.74958321
  Ewald energy   TEWEN  =     21799.70220783
  -Hartree energ DENC   =    -26981.76407538
  -exchange      EXHF   =         0.00000000
  -V(xc)+E(xc)   XCENC  =      -441.55377962
  PAW double counting   =      4647.26951674    -3871.08436696
  entropy T*S    EENTRO =        -0.00436606
  eigenvalues    EBANDS =      -397.77929717
  atomic energy  EATOM  =      4951.75456612
  ---------------------------------------------------
  free energy    TOTEN  =      -160.71001129 eV

  energy without entropy =     -160.70564523  energy(sigma->0) =     -160.70782826


--------------------------------------------------------------------------------------------------------




----------------------------------------- Iteration    1(   6)  ---------------------------------------


    POTLOK:  cpu time    0.11: real time    0.11
    SETDIJ:  cpu time    0.11: real time    0.11
     EDDAV:  cpu time    5.54: real time    5.55
       DOS:  cpu time    0.00: real time    0.00
    CHARGE:  cpu time    0.43: real time    0.43
    MIXING:  cpu time    0.00: real time    0.00
    --------------------------------------------
      LOOP:  cpu time    6.21: real time    6.21

 eigenvalue-minimisations  :  3182
 total energy-change (2. order) : 0.1609363E+02  (-0.9453843E+01)
 number of electron     103.0000001 magnetization 
 augmentation part        6.1974309 magnetization 

 Broyden mixing:
  rms(total) = 0.79083E+00    rms(broyden)= 0.78989E+00
  rms(prec ) = 0.79644E+00
  weight for this iteration     100.00

 eigenvalues of (default mixing * dielectric matrix)
  average eigenvalue GAMMA=   0.8321
  0.8321

 Free energy of the ion-electron system (eV)
  ---------------------------------------------------
  alpha Z        PSCENC =       132.74958321
  Ewald energy   TEWEN  =     21799.70220783
  -Hartree energ DENC   =    -27177.51135981
  -exchange      EXHF   =         0.00000000
  -V(xc)+E(xc)   XCENC  =      -428.04397532
  PAW double counting   =      5459.98423158    -4687.20081819
  entropy T*S    EENTRO =        -0.00451457
  eigenvalues    EBANDS =      -196.04629878
  atomic energy  EATOM  =      4951.75456612
  ---------------------------------------------------
  free energy    TOTEN  =      -144.61637794 eV

  energy without entropy =     -144.61186336  energy(sigma->0) =     -144.61412065


--------------------------------------------------------------------------------------------------------




----------------------------------------- Iteration    1(   7)  ---------------------------------------


    POTLOK:  cpu time    0.12: real time    0.12
    SETDIJ:  cpu time    0.11: real time    0.11
     EDDAV:  cpu time    5.32: real time    5.33
       DOS:  cpu time    0.00: real time    0.00
    CHARGE:  cpu time    0.43: real time    0.43
    MIXING:  cpu time    0.01: real time    0.01
    --------------------------------------------
      LOOP:  cpu time    5.99: real time    5.99

 eigenvalue-minimisations  :  3050
 total energy-change (2. order) : 0.1179018E+00  (-0.2157143E+00)
 number of electron     103.0000001 magnetization 
 augmentation part        6.2472408 magnetization 

 Broyden mixing:
  rms(total) = 0.48077E+00    rms(broyden)= 0.48075E+00
  rms(prec ) = 0.48488E+00
  weight for this iteration     100.00

 eigenvalues of (default mixing * dielectric matrix)
  average eigenvalue GAMMA=   1.6423
  0.9713  2.3134

 Free energy of the ion-electron system (eV)
  ---------------------------------------------------
  alpha Z        PSCENC =       132.74958321
  Ewald energy   TEWEN  =     21799.70220783
  -Hartree energ DENC   =    -27174.33046292
  -exchange      EXHF   =         0.00000000
  -V(xc)+E(xc)   XCENC  =      -427.78123945
  PAW double counting   =      5719.13009735    -4945.83778239
  entropy T*S    EENTRO =        -0.00630337
  eigenvalues    EBANDS =      -199.87914251
  atomic energy  EATOM  =      4951.75456612
  ---------------------------------------------------
  free energy    TOTEN  =      -144.49847613 eV

  energy without entropy =     -144.49217276  energy(sigma->0) =     -144.49532444


--------------------------------------------------------------------------------------------------------




----------------------------------------- Iteration    1(   8)  ---------------------------------------


    POTLOK:  cpu time    0.11: real time    0.11
    SETDIJ:  cpu time    0.11: real time    0.11
     EDDAV:  cpu time    5.53: real time    5.54
       DOS:  cpu time    0.00: real time    0.00
    CHARGE:  cpu time    0.46: real time    0.47
    MIXING:  cpu time    0.01: real time    0.01
    --------------------------------------------
      LOOP:  cpu time    6.23: real time    6.24

 eigenvalue-minimisations  :  3196
 total energy-change (2. order) : 0.1123897E+00  (-0.5819276E-01)
 number of electron     103.0000001 magnetization 
 augmentation part        6.3103468 magnetization 

 Broyden mixing:
  rms(total) = 0.88309E-01    rms(broyden)= 0.88249E-01
  rms(prec ) = 0.94364E-01
  weight for this iteration     100.00

 eigenvalues of (default mixing * dielectric matrix)
  average eigenvalue GAMMA=   1.3693
  2.4318  0.9077  0.7683

 Free energy of the ion-electron system (eV)
  ---------------------------------------------------
  alpha Z        PSCENC =       132.74958321
  Ewald energy   TEWEN  =     21799.70220783
  -Hartree energ DENC   =    -27179.55055156
  -exchange      EXHF   =         0.00000000
  -V(xc)+E(xc)   XCENC  =      -426.34575573
  PAW double counting   =      6179.53924093    -5405.85499227
  entropy T*S    EENTRO =        -0.00708450
  eigenvalues    EBANDS =      -196.37330042
  atomic energy  EATOM  =      4951.75456612
  ---------------------------------------------------
  free energy    TOTEN  =      -144.38608640 eV

  energy without entropy =     -144.37900190  energy(sigma->0) =     -144.38254415


--------------------------------------------------------------------------------------------------------




----------------------------------------- Iteration    1(   9)  ---------------------------------------


    POTLOK:  cpu time    0.12: real time    0.12
    SETDIJ:  cpu time    0.12: real time    0.12
     EDDAV:  cpu time    5.51: real time    5.52
       DOS:  cpu time    0.00: real time    0.00
    CHARGE:  cpu time    0.43: real time    0.43
    MIXING:  cpu time    0.00: real time    0.00
    --------------------------------------------
      LOOP:  cpu time    6.19: real time    6.20

 eigenvalue-minimisations  :  3134
 total energy-change (2. order) : 0.1605454E-01  (-0.8520204E-02)
 number of electron     103.0000001 magnetization 
 augmentation part        6.2834373 magnetization 

 Broyden mixing:
  rms(total) = 0.50010E-01    rms(broyden)= 0.50008E-01
  rms(prec ) = 0.50752E-01
  weight for this iteration     100.00

 eigenvalues of (default mixing * dielectric matrix)
  average eigenvalue GAMMA=   1.4651
  2.4656  1.0136  1.0136  1.3677

 Free energy of the ion-electron system (eV)
  ---------------------------------------------------
  alpha Z        PSCENC =       132.74958321
  Ewald energy   TEWEN  =     21799.70220783
  -Hartree energ DENC   =    -27184.37296967
  -exchange      EXHF   =         0.00000000
  -V(xc)+E(xc)   XCENC  =      -425.94766419
  PAW double counting   =      6194.87317078    -5421.25032361
  entropy T*S    EENTRO =        -0.00616211
  eigenvalues    EBANDS =      -191.87244022
  atomic energy  EATOM  =      4951.75456612
  ---------------------------------------------------
  free energy    TOTEN  =      -144.37003186 eV

  energy without entropy =     -144.36386975  energy(sigma->0) =     -144.36695081


--------------------------------------------------------------------------------------------------------




----------------------------------------- Iteration    1(  10)  ---------------------------------------


    POTLOK:  cpu time    0.11: real time    0.11
    SETDIJ:  cpu time    0.11: real time    0.11
     EDDAV:  cpu time    5.37: real time    5.38
       DOS:  cpu time    0.00: real time    0.00
    CHARGE:  cpu time    0.44: real time    0.44
    MIXING:  cpu time    0.01: real time    0.01
    --------------------------------------------
      LOOP:  cpu time    6.04: real time    6.05

 eigenvalue-minimisations  :  3074
 total energy-change (2. order) : 0.2219051E-05  (-0.4604607E-02)
 number of electron     103.0000001 magnetization 
 augmentation part        6.2638830 magnetization 

 Broyden mixing:
  rms(total) = 0.24625E-01    rms(broyden)= 0.24599E-01
  rms(prec ) = 0.25502E-01
  weight for this iteration     100.00

 eigenvalues of (default mixing * dielectric matrix)
  average eigenvalue GAMMA=   1.2859
  2.5225  1.6248  0.9170  0.9170  0.4481

 Free energy of the ion-electron system (eV)
  ---------------------------------------------------
  alpha Z        PSCENC =       132.74958321
  Ewald energy   TEWEN  =     21799.70220783
  -Hartree energ DENC   =    -27186.36479052
  -exchange      EXHF   =         0.00000000
  -V(xc)+E(xc)   XCENC  =      -425.76612519
  PAW double counting   =      6180.48716418    -5406.89618465
  entropy T*S    EENTRO =        -0.00609381
  eigenvalues    EBANDS =      -190.03035681
  atomic energy  EATOM  =      4951.75456612
  ---------------------------------------------------
  free energy    TOTEN  =      -144.37002964 eV

  energy without entropy =     -144.36393583  energy(sigma->0) =     -144.36698274


--------------------------------------------------------------------------------------------------------




----------------------------------------- Iteration    1(  11)  ---------------------------------------


    POTLOK:  cpu time    0.12: real time    0.12
    SETDIJ:  cpu time    0.11: real time    0.11
     EDDAV:  cpu time    5.48: real time    5.48
       DOS:  cpu time    0.00: real time    0.00
    CHARGE:  cpu time    0.43: real time    0.43
    MIXING:  cpu time    0.01: real time    0.01
    --------------------------------------------
      LOOP:  cpu time    6.14: real time    6.15

 eigenvalue-minimisations  :  3094
 total energy-change (2. order) :-0.4989862E-03  (-0.3843427E-03)
 number of electron     103.0000001 magnetization 
 augmentation part        6.2648009 magnetization 

 Broyden mixing:
  rms(total) = 0.17862E-01    rms(broyden)= 0.17861E-01
  rms(prec ) = 0.18112E-01
  weight for this iteration     100.00

 eigenvalues of (default mixing * dielectric matrix)
  average eigenvalue GAMMA=   1.4016
  2.7656  2.2078  0.9509  0.8170  0.8342  0.8342

 Free energy of the ion-electron system (eV)
  ---------------------------------------------------
  alpha Z        PSCENC =       132.74958321
  Ewald energy   TEWEN  =     21799.70220783
  -Hartree energ DENC   =    -27186.65951337
  -exchange      EXHF   =         0.00000000
  -V(xc)+E(xc)   XCENC  =      -425.71532606
  PAW double counting   =      6163.70232363    -5390.11638950
  entropy T*S    EENTRO =        -0.00608639
  eigenvalues    EBANDS =      -189.78189409
  atomic energy  EATOM  =      4951.75456612
  ---------------------------------------------------
  free energy    TOTEN  =      -144.37052863 eV

  energy without entropy =     -144.36444224  energy(sigma->0) =     -144.36748543


--------------------------------------------------------------------------------------------------------




----------------------------------------- Iteration    1(  12)  ---------------------------------------


    POTLOK:  cpu time    0.11: real time    0.11
    SETDIJ:  cpu time    0.11: real time    0.11
     EDDAV:  cpu time    6.50: real time    6.50
       DOS:  cpu time    0.00: real time    0.00
    CHARGE:  cpu time    0.43: real time    0.43
    MIXING:  cpu time    0.01: real time    0.01
    --------------------------------------------
      LOOP:  cpu time    7.15: real time    7.16

 eigenvalue-minimisations  :  3928
 total energy-change (2. order) :-0.3112545E-04  (-0.2695004E-03)
 number of electron     103.0000001 magnetization 
 augmentation part        6.2625522 magnetization 

 Broyden mixing:
  rms(total) = 0.83783E-02    rms(broyden)= 0.83755E-02
  rms(prec ) = 0.85844E-02
  weight for this iteration     100.00

 eigenvalues of (default mixing * dielectric matrix)
  average eigenvalue GAMMA=   1.3916
  2.8679  2.5005  0.9480  0.9480  0.9034  0.9034  0.6697

 Free energy of the ion-electron system (eV)
  ---------------------------------------------------
  alpha Z        PSCENC =       132.74958321
  Ewald energy   TEWEN  =     21799.70220783
  -Hartree energ DENC   =    -27187.09596707
  -exchange      EXHF   =         0.00000000
  -V(xc)+E(xc)   XCENC  =      -425.66238212
  PAW double counting   =      6145.74054923    -5372.17022941
  entropy T*S    EENTRO =        -0.00611727
  eigenvalues    EBANDS =      -189.38277027
  atomic energy  EATOM  =      4951.75456612
  ---------------------------------------------------
  free energy    TOTEN  =      -144.37055975 eV

  energy without entropy =     -144.36444248  energy(sigma->0) =     -144.36750112


--------------------------------------------------------------------------------------------------------




----------------------------------------- Iteration    1(  13)  ---------------------------------------


    POTLOK:  cpu time    0.11: real time    0.11
    SETDIJ:  cpu time    0.11: real time    0.11
     EDDAV:  cpu time    5.43: real time    5.43
       DOS:  cpu time    0.00: real time    0.00
    CHARGE:  cpu time    0.43: real time    0.43
    MIXING:  cpu time    0.01: real time    0.01
    --------------------------------------------
      LOOP:  cpu time    6.09: real time    6.10

 eigenvalue-minimisations  :  3068
 total energy-change (2. order) : 0.3018973E-04  (-0.1443413E-03)
 number of electron     103.0000001 magnetization 
 augmentation part        6.2668431 magnetization 

 Broyden mixing:
  rms(total) = 0.36867E-02    rms(broyden)= 0.36823E-02
  rms(prec ) = 0.38510E-02
  weight for this iteration     100.00

 eigenvalues of (default mixing * dielectric matrix)
  average eigenvalue GAMMA=   1.3671
  2.8742  2.4577  0.9985  0.9985  1.0687  0.9152  0.9152  0.7084

 Free energy of the ion-electron system (eV)
  ---------------------------------------------------
  alpha Z        PSCENC =       132.74958321
  Ewald energy   TEWEN  =     21799.70220783
  -Hartree energ DENC   =    -27186.65294588
  -exchange      EXHF   =         0.00000000
  -V(xc)+E(xc)   XCENC  =      -425.69243094
  PAW double counting   =      6135.40980219    -5361.83487901
  entropy T*S    EENTRO =        -0.00613990
  eigenvalues    EBANDS =      -189.80029318
  atomic energy  EATOM  =      4951.75456612
  ---------------------------------------------------
  free energy    TOTEN  =      -144.37052956 eV

  energy without entropy =     -144.36438966  energy(sigma->0) =     -144.36745961


--------------------------------------------------------------------------------------------------------




----------------------------------------- Iteration    1(  14)  ---------------------------------------


    POTLOK:  cpu time    0.11: real time    0.11
    SETDIJ:  cpu time    0.11: real time    0.11
     EDDAV:  cpu time    5.49: real time    5.50
       DOS:  cpu time    0.00: real time    0.00
    CHARGE:  cpu time    0.43: real time    0.43
    MIXING:  cpu time    0.01: real time    0.01
    --------------------------------------------
      LOOP:  cpu time    6.16: real time    6.17

 eigenvalue-minimisations  :  3136
 total energy-change (2. order) : 0.3094692E-04  (-0.1574946E-04)
 number of electron     103.0000001 magnetization 
 augmentation part        6.2671798 magnetization 

 Broyden mixing:
  rms(total) = 0.13042E-02    rms(broyden)= 0.13031E-02
  rms(prec ) = 0.16087E-02
  weight for this iteration     100.00

 eigenvalues of (default mixing * dielectric matrix)
  average eigenvalue GAMMA=   1.3640
  2.9178  2.5523  1.0521  1.0521  1.1889  1.0903  0.8742  0.8742  0.6737

 Free energy of the ion-electron system (eV)
  ---------------------------------------------------
  alpha Z        PSCENC =       132.74958321
  Ewald energy   TEWEN  =     21799.70220783
  -Hartree energ DENC   =    -27186.67281071
  -exchange      EXHF   =         0.00000000
  -V(xc)+E(xc)   XCENC  =      -425.69408193
  PAW double counting   =      6135.56899690    -5361.99377659
  entropy T*S    EENTRO =        -0.00613443
  eigenvalues    EBANDS =      -189.77904901
  atomic energy  EATOM  =      4951.75456612
  ---------------------------------------------------
  free energy    TOTEN  =      -144.37049862 eV

  energy without entropy =     -144.36436418  energy(sigma->0) =     -144.36743140


--------------------------------------------------------------------------------------------------------




----------------------------------------- Iteration    1(  15)  ---------------------------------------


    POTLOK:  cpu time    0.11: real time    0.11
    SETDIJ:  cpu time    0.11: real time    0.11
     EDDAV:  cpu time    4.96: real time    4.97
       DOS:  cpu time    0.00: real time    0.00
    --------------------------------------------
      LOOP:  cpu time    5.18: real time    5.19

 eigenvalue-minimisations  :  2734
 total energy-change (2. order) : 0.2292848E-05  (-0.3501911E-05)
 number of electron     103.0000001 magnetization 
 augmentation part        6.2671798 magnetization 

 Free energy of the ion-electron system (eV)
  ---------------------------------------------------
  alpha Z        PSCENC =       132.74958321
  Ewald energy   TEWEN  =     21799.70220783
  -Hartree energ DENC   =    -27186.71200924
  -exchange      EXHF   =         0.00000000
  -V(xc)+E(xc)   XCENC  =      -425.69504297
  PAW double counting   =      6134.86393157    -5361.28897021
  entropy T*S    EENTRO =        -0.00613290
  eigenvalues    EBANDS =      -189.73862973
  atomic energy  EATOM  =      4951.75456612
  ---------------------------------------------------
  free energy    TOTEN  =      -144.37049632 eV

  energy without entropy =     -144.36436342  energy(sigma->0) =     -144.36742987


--------------------------------------------------------------------------------------------------------




 average (electrostatic) potential at core
  the test charge radii are     0.7215  1.0714  1.0406
  (the norm of the test charge is              1.0000)
       1 -70.4388       2 -70.3694       3 -70.4041       4 -70.4119       5 -70.3921
       6 -70.3728       7 -70.4410       8 -70.3872       9 -70.4075      10 -70.3589
      11 -36.0691      12 -36.1068      13 -36.0546      14 -36.0591      15 -36.1049
      16 -36.0757      17 -36.3484      18 -36.3370      19 -36.0908      20 -36.0958
      21 -36.0532      22 -74.9132      23 -74.9223      24 -75.0071      25 -74.9369
      26 -74.9287      27 -74.9395      28 -75.0137
 
 
 
 E-fermi :   5.9173     XC(G=0): -10.1090     alpha+bet :-11.8903


 k-point     1 :       0.0000    0.0000    0.0000
  band No.  band energies     occupation 
      1     -14.5960      2.00000
      2     -14.5262      2.00000
      3     -14.4420      2.00000
      4     -14.3303      2.00000
      5     -14.1957      2.00000
      6     -14.0484      2.00000
      7     -13.8998      2.00000
      8     -13.7637      2.00000
      9     -13.6502      2.00000
     10     -13.5933      2.00000
     11      -3.7586      2.00000
     12      -3.3679      2.00000
     13      -2.9977      2.00000
     14      -2.4971      2.00000
     15      -2.1382      2.00000
     16      -1.9380      2.00000
     17      -1.9240      2.00000
     18      -1.5460      2.00000
     19      -1.4060      2.00000
     20      -0.8928      2.00000
     21      -0.8369      2.00000
     22      -0.2298      2.00000
     23       0.0549      2.00000
     24       0.5043      2.00000
     25       0.8621      2.00000
     26       1.4827      2.00000
     27       1.8180      2.00000
     28       1.9608      2.00000
     29       1.9608      2.00000
     30       2.0068      2.00000
     31       2.0068      2.00000
     32       2.0530      2.00000
     33       2.0530      2.00000
     34       2.0987      2.00000
     35       2.1105      2.00000
     36       2.1105      2.00000
     37       2.1789      2.00000
     38       2.1789      2.00000
     39       2.2524      2.00000
     40       2.2524      2.00000
     41       2.3246      2.00000
     42       2.3246      2.00000
     43       2.3884      2.00000
     44       2.3884      2.00000
     45       2.4446      2.00000
     46       2.4446      2.00000
     47       2.4654      2.00000
     48       2.4654      2.00000
     49       2.7497      2.00000
     50       3.7878      2.00000
     51       5.0466      2.00000
     52       6.2059      0.00000
     53       6.6321      0.00000
     54       7.2039      0.00000
     55       7.2905      0.00000
     56       8.0783      0.00000
     57       8.2243      0.00000
     58       9.0162      0.00000
     59       9.0760      0.00000
     60       9.7320      0.00000
     61       9.7808      0.00000
     62      10.0977      0.00000
     63      10.1202      0.00000
     64      10.7282      0.00000
     65      11.9107      0.00000
     66      13.5071      0.00000

 k-point     2 :       0.0769    0.0000    0.0000
  band No.  band energies     occupation 
      1     -14.5438      2.00000
      2     -14.4752      2.00000
      3     -14.3930      2.00000
      4     -14.2840      2.00000
      5     -14.1528      2.00000
      6     -14.0093      2.00000
      7     -13.8649      2.00000
      8     -13.7327      2.00000
      9     -13.6224      2.00000
     10     -13.5677      2.00000
     11      -3.6284      2.00000
     12      -3.2379      2.00000
     13      -2.8685      2.00000
     14      -2.3708      2.00000
     15      -2.0533      2.00000
     16      -1.8584      2.00000
     17      -1.8208      2.00000
     18      -1.4622      2.00000
     19      -1.3341      2.00000
     20      -0.8009      2.00000
     21      -0.7927      2.00000
     22      -0.2064      2.00000
     23       0.0976      2.00000
     24       0.5505      2.00000
     25       0.8102      2.00000
     26       1.3830      2.00000
     27       1.7278      2.00000
     28       1.7339      2.00000
     29       1.7793      2.00000
     30       1.8326      2.00000
     31       1.9005      2.00000
     32       1.9169      2.00000
     33       1.9632      2.00000
     34       1.9767      2.00000
     35       2.0097      2.00000
     36       2.0585      2.00000
     37       2.0677      2.00000
     38       2.0897      2.00000
     39       2.1367      2.00000
     40       2.1506      2.00000
     41       2.1550      2.00000
     42       2.1989      2.00000
     43       2.2109      2.00000
     44       2.2364      2.00000
     45       2.2838      2.00000
     46       2.3482      2.00000
     47       2.4049      2.00000
     48       2.4260      2.00000
     49       2.8769      2.00000
     50       3.9211      2.00000
     51       5.1950      2.00000
     52       6.3911      0.00000
     53       6.9672      0.00000
     54       7.4673      0.00000
     55       7.5162      0.00000
     56       8.2729      0.00000
     57       8.4411      0.00000
     58       9.2174      0.00000
     59       9.2783      0.00000
     60       9.9634      0.00000
     61      10.0078      0.00000
     62      10.3593      0.00000
     63      10.3983      0.00000
     64      10.8971      0.00000
     65      12.0006      0.00000
     66      13.5979      0.00000

 k-point     3 :       0.1538    0.0000    0.0000
  band No.  band energies     occupation 
      1     -14.3941      2.00000
      2     -14.3292      2.00000
      3     -14.2529      2.00000
      4     -14.1522      2.00000
      5     -14.0313      2.00000
      6     -13.8992      2.00000
      7     -13.7668      2.00000
      8     -13.6461      2.00000
      9     -13.5453      2.00000
     10     -13.4967      2.00000
     11      -3.2383      2.00000
     12      -2.8487      2.00000
     13      -2.4820      2.00000
     14      -1.9971      2.00000
     15      -1.8115      2.00000
     16      -1.6304      2.00000
     17      -1.5395      2.00000
     18      -1.2065      2.00000
     19      -1.1493      2.00000
     20      -0.6854      2.00000
     21      -0.5649      2.00000
     22      -0.1388      2.00000
     23       0.0786      2.00000
     24       0.5596      2.00000
     25       0.7065      2.00000
     26       1.0052      2.00000
     27       1.1396      2.00000
     28       1.1575      2.00000
     29       1.2210      2.00000
     30       1.2666      2.00000
     31       1.3322      2.00000
     32       1.4260      2.00000
     33       1.5715      2.00000
     34       1.7052      2.00000
     35       1.7986      2.00000
     36       1.8322      2.00000
     37       1.8454      2.00000
     38       1.8927      2.00000
     39       1.9253      2.00000
     40       1.9520      2.00000
     41       1.9983      2.00000
     42       2.0225      2.00000
     43       2.0983      2.00000
     44       2.1729      2.00000
     45       2.2389      2.00000
     46       2.2968      2.00000
     47       2.3185      2.00000
     48       2.4312      2.00000
     49       3.1949      2.00000
     50       4.2748      2.00000
     51       5.5778      2.00000
     52       6.8306      0.00000
     53       7.7347      0.00000
     54       8.0456      0.00000
     55       8.1369      0.00000
     56       8.7620      0.00000
     57       8.9862      0.00000
     58       9.6898      0.00000
     59       9.7799      0.00000
     60      10.5020      0.00000
     61      10.5641      0.00000
     62      11.0047      0.00000
     63      11.0851      0.00000
     64      11.3492      0.00000
     65      11.4066      0.00000
     66      11.7516      0.00000

 k-point     4 :       0.2308    0.0000    0.0000
  band No.  band energies     occupation 
      1     -14.1689      2.00000
      2     -14.1098      2.00000
      3     -14.0434      2.00000
      4     -13.9564      2.00000
      5     -13.8521      2.00000
      6     -13.7386      2.00000
      7     -13.6254      2.00000
      8     -13.5231      2.00000
      9     -13.4371      2.00000
     10     -13.3981      2.00000
     11      -2.5903      2.00000
     12      -2.2026      2.00000
     13      -1.8433      2.00000
     14      -1.4566      2.00000
     15      -1.4154      2.00000
     16      -1.2851      2.00000
     17      -1.1930      2.00000
     18      -0.9534      2.00000
     19      -0.8588      2.00000
     20      -0.5647      2.00000
     21      -0.5076      2.00000
     22      -0.2294      2.00000
     23      -0.0521      2.00000
     24       0.1153      2.00000
     25       0.3088      2.00000
     26       0.3565      2.00000
     27       0.4156      2.00000
     28       0.4552      2.00000
     29       0.5971      2.00000
     30       0.7461      2.00000
     31       0.9927      2.00000
     32       1.1932      2.00000
     33       1.3815      2.00000
     34       1.5143      2.00000
     35       1.6061      2.00000
     36       1.6392      2.00000
     37       1.6866      2.00000
     38       1.7349      2.00000
     39       1.7582      2.00000
     40       1.7954      2.00000
     41       1.8676      2.00000
     42       1.8750      2.00000
     43       1.9451      2.00000
     44       2.0216      2.00000
     45       2.0893      2.00000
     46       2.1485      2.00000
     47       2.1710      2.00000
     48       2.9580      2.00000
     49       3.7261      2.00000
     50       4.8320      2.00000
     51       6.1465      0.00000
     52       7.4095      0.00000
     53       8.5369      0.00000
     54       8.6793      0.00000
     55       8.8834      0.00000
     56       9.0227      0.00000
     57       9.2224      0.00000
     58       9.3439      0.00000
     59       9.5484      0.00000
     60       9.7339      0.00000
     61      10.0371      0.00000
     62      10.2038      0.00000
     63      10.4417      0.00000
     64      10.6462      0.00000
     65      11.0067      0.00000
     66      11.2802      0.00000

 k-point     5 :       0.3077    0.0000   -0.0000
  band No.  band energies     occupation 
      1     -13.9041      2.00000
      2     -13.8533      2.00000
      3     -13.8001      2.00000
      4     -13.7319      2.00000
      5     -13.6499      2.00000
      6     -13.5612      2.00000
      7     -13.4733      2.00000
      8     -13.3946      2.00000
      9     -13.3274      2.00000
     10     -13.2999      2.00000
     11      -1.6875      2.00000
     12      -1.3074      2.00000
     13      -1.1798      2.00000
     14      -1.0982      2.00000
     15      -1.0722      2.00000
     16      -1.0164      2.00000
     17      -0.9955      2.00000
     18      -0.9463      2.00000
     19      -0.8601      2.00000
     20      -0.7822      2.00000
     21      -0.6329      2.00000
     22      -0.5545      2.00000
     23      -0.4367      2.00000
     24      -0.3796      2.00000
     25      -0.2469      2.00000
     26      -0.1673      2.00000
     27       0.1607      2.00000
     28       0.3052      2.00000
     29       0.5621      2.00000
     30       0.7884      2.00000
     31       1.0446      2.00000
     32       1.2409      2.00000
     33       1.2933      2.00000
     34       1.4353      2.00000
     35       1.4784      2.00000
     36       1.5262      2.00000
     37       1.5752      2.00000
     38       1.6062      2.00000
     39       1.6368      2.00000
     40       1.7101      2.00000
     41       1.7315      2.00000
     42       1.7891      2.00000
     43       1.8669      2.00000
     44       1.9360      2.00000
     45       1.9963      2.00000
     46       2.0195      2.00000
     47       2.2757      2.00000
     48       3.7312      2.00000
     49       4.4809      2.00000
     50       5.5689      2.00000
     51       6.4070      0.00000
     52       6.8304      0.00000
     53       7.0917      0.00000
     54       7.2660      0.00000
     55       7.7693      0.00000
     56       8.2038      0.00000
     57       8.4600      0.00000
     58       9.0998      0.00000
     59       9.3473      0.00000
     60       9.4747      0.00000
     61       9.6469      0.00000
     62       9.9563      0.00000
     63      10.1143      0.00000
     64      10.3757      0.00000
     65      10.5736      0.00000
     66      10.8556      0.00000

 k-point     6 :       0.3846    0.0000    0.0000
  band No.  band energies     occupation 
      1     -13.6495      2.00000
      2     -13.6087      2.00000
      3     -13.5712      2.00000
      4     -13.5256      2.00000
      5     -13.4702      2.00000
      6     -13.4102      2.00000
      7     -13.3508      2.00000
      8     -13.2989      2.00000
      9     -13.2518      2.00000
     10     -13.2354      2.00000
     11      -1.5772      2.00000
     12      -1.4739      2.00000
     13      -1.3407      2.00000
     14      -1.2963      2.00000
     15      -1.2013      2.00000
     16      -1.1693      2.00000
     17      -1.0776      2.00000
     18      -1.0059      2.00000
     19      -0.9505      2.00000
     20      -0.9098      2.00000
     21      -0.5335      2.00000
     22      -0.3258      2.00000
     23      -0.1446      2.00000
     24      -0.0945      2.00000
     25       0.1930      2.00000
     26       0.2730      2.00000
     27       0.5463      2.00000
     28       0.7720      2.00000
     29       0.8785      2.00000
     30       1.0486      2.00000
     31       1.0913      2.00000
     32       1.2246      2.00000
     33       1.3509      2.00000
     34       1.3990      2.00000
     35       1.4175      2.00000
     36       1.4484      2.00000
     37       1.5106      2.00000
     38       1.5525      2.00000
     39       1.5847      2.00000
     40       1.6051      2.00000
     41       1.6644      2.00000
     42       1.7431      2.00000
     43       1.8131      2.00000
     44       1.8740      2.00000
     45       1.8975      2.00000
     46       2.2769      2.00000
     47       3.3464      2.00000
     48       4.3476      2.00000
     49       4.6171      2.00000
     50       4.8387      2.00000
     51       5.1651      2.00000
     52       5.5283      2.00000
     53       5.7149      2.00000
     54       6.3261      0.00000
     55       6.6671      0.00000
     56       7.0739      0.00000
     57       7.9343      0.00000
     58       8.1193      0.00000
     59       8.9718      0.00000
     60       9.3648      0.00000
     61       9.7192      0.00000
     62       9.7662      0.00000
     63      10.0699      0.00000
     64      10.2741      0.00000
     65      10.7022      0.00000
     66      10.8566      0.00000

 k-point     7 :       0.4615    0.0000    0.0000
  band No.  band energies     occupation 
      1     -13.4690      2.00000
      2     -13.4387      2.00000
      3     -13.4153      2.00000
      4     -13.3915      2.00000
      5     -13.3616      2.00000
      6     -13.3278      2.00000
      7     -13.2935      2.00000
      8     -13.2649      2.00000
      9     -13.2336      2.00000
     10     -13.2227      2.00000
     11      -1.8806      2.00000
     12      -1.7756      2.00000
     13      -1.6406      2.00000
     14      -1.4756      2.00000
     15      -1.4416      2.00000
     16      -1.3606      2.00000
     17      -1.3054      2.00000
     18      -1.2657      2.00000
     19      -1.2018      2.00000
     20      -1.1897      2.00000
     21       0.1939      2.00000
     22       0.3230      2.00000
     23       0.4992      2.00000
     24       0.6673      2.00000
     25       0.7617      2.00000
     26       0.8295      2.00000
     27       0.8670      2.00000
     28       0.8922      2.00000
     29       1.0825      2.00000
     30       1.2598      2.00000
     31       1.2811      2.00000
     32       1.3293      2.00000
     33       1.3548      2.00000
     34       1.3788      2.00000
     35       1.4413      2.00000
     36       1.5157      2.00000
     37       1.5273      2.00000
     38       1.5958      2.00000
     39       1.6512      2.00000
     40       1.6749      2.00000
     41       1.7452      2.00000
     42       1.8064      2.00000
     43       1.8301      2.00000
     44       2.1759      2.00000
     45       2.5048      2.00000
     46       2.8467      2.00000
     47       2.8952      2.00000
     48       3.2529      2.00000
     49       3.5643      2.00000
     50       3.8435      2.00000
     51       4.4428      2.00000
     52       4.7821      2.00000
     53       5.2493      2.00000
     54       6.0197      0.00376
     55       6.3503      0.00000
     56       6.6949      0.00000
     57       7.6357      0.00000
     58       7.7590      0.00000
     59       8.2813      0.00000
     60       8.9703      0.00000
     61       9.3280      0.00000
     62       9.8228      0.00000
     63      10.0776      0.00000
[...]
     17      -1.0285      2.00000
     18      -0.9471      2.00000
     19      -0.8134      2.00000
     20      -0.6785      2.00000
     21      -0.2833      2.00000
     22      -0.1413      2.00000
     23      -0.0028      2.00000
     24       0.1418      2.00000
     25       0.3092      2.00000
     26       0.3173      2.00000
     27       0.4014      2.00000
     28       0.4618      2.00000
     29       0.5232      2.00000
     30       0.6467      2.00000
     31       0.7069      2.00000
     32       0.7732      2.00000
     33       0.8715      2.00000
     34       0.9566      2.00000
     35       1.0178      2.00000
     36       1.1355      2.00000
     37       1.1882      2.00000
     38       1.2837      2.00000
     39       1.3559      2.00000
     40       1.4445      2.00000
     41       1.4562      2.00000
     42       1.5451      2.00000
     43       1.8339      2.00000
     44       2.3423      2.00000
     45       3.0011      2.00000
     46       3.7014      2.00000
     47       4.2030      2.00000
     48       4.6508      2.00000
     49       4.8124      2.00000
     50       5.1143      2.00000
     51       5.5721      2.00000
     52       5.7834      1.99639
     53       6.0851      0.00000
     54       6.2634      0.00000
     55       6.3483      0.00000
     56       6.6520      0.00000
     57       6.7678      0.00000
     58       7.0383      0.00000
     59       7.2542      0.00000
     60       7.7834      0.00000
     61       7.8888      0.00000
     62       8.2077      0.00000
     63       8.5402      0.00000
     64       8.9970      0.00000
     65       9.3250      0.00000
     66       9.5876      0.00000

 k-point    20 :       0.3846    0.2308   -0.0000
  band No.  band energies     occupation 
      1     -13.3690      2.00000
      2     -13.3540      2.00000
      3     -13.3448      2.00000
      4     -13.3310      2.00000
      5     -13.3128      2.00000
      6     -13.2947      2.00000
      7     -13.2757      2.00000
      8     -13.2624      2.00000
      9     -13.2451      2.00000
     10     -13.2174      2.00000
     11      -1.4596      2.00000
     12      -1.3666      2.00000
     13      -1.2399      2.00000
     14      -1.0873      2.00000
     15      -1.0366      2.00000
     16      -0.9984      2.00000
     17      -0.9644      2.00000
     18      -0.9480      2.00000
     19      -0.9129      2.00000
     20      -0.8876      2.00000
     21      -0.0891      2.00000
     22      -0.0556      2.00000
     23      -0.0131      2.00000
     24       0.0023      2.00000
     25       0.0558      2.00000
     26       0.0844      2.00000
     27       0.1282      2.00000
     28       0.2739      2.00000
     29       0.4251      2.00000
     30       0.5771      2.00000
     31       0.7991      2.00000
     32       0.8192      2.00000
     33       0.9799      2.00000
     34       0.9946      2.00000
     35       1.0883      2.00000
     36       1.1274      2.00000
     37       1.2638      2.00000
     38       1.3538      2.00000
     39       1.4022      2.00000
     40       1.4222      2.00000
     41       2.4521      2.00000
     42       2.4770      2.00000
     43       2.9433      2.00000
     44       2.9646      2.00000
     45       3.3150      2.00000
     46       3.3432      2.00000
     47       3.7834      2.00000
     48       3.8481      2.00000
     49       4.3678      2.00000
     50       4.5738      2.00000
     51       5.1014      2.00000
     52       5.3317      2.00000
     53       5.6733      2.00000
     54       6.0924      0.00000
     55       6.2484      0.00000
     56       6.4009      0.00000
     57       6.6129      0.00000
     58       7.0787      0.00000
     59       7.5503      0.00000
     60       7.5623      0.00000
     61       7.7690      0.00000
     62       8.1299      0.00000
     63       8.3304      0.00000
     64       8.5662      0.00000
     65       9.0317      0.00000
     66       9.4672      0.00000

 k-point    21 :       0.3077    0.3077    0.0000
  band No.  band energies     occupation 
      1     -13.3376      2.00000
      2     -13.3267      2.00000
      3     -13.3204      2.00000
      4     -13.3052      2.00000
      5     -13.2910      2.00000
      6     -13.2767      2.00000
      7     -13.2648      2.00000
      8     -13.2577      2.00000
      9     -13.2407      2.00000
     10     -13.2175      2.00000
     11      -1.1104      2.00000
     12      -1.1056      2.00000
     13      -1.0288      2.00000
     14      -1.0193      2.00000
     15      -0.9286      2.00000
     16      -0.9174      2.00000
     17      -0.8102      2.00000
     18      -0.7148      2.00000
     19      -0.6695      2.00000
     20      -0.6031      2.00000
     21      -0.5009      2.00000
     22      -0.4538      2.00000
     23      -0.3163      2.00000
     24      -0.3106      2.00000
     25      -0.1738      2.00000
     26      -0.1287      2.00000
     27      -0.0349      2.00000
     28       0.0356      2.00000
     29       0.1181      2.00000
     30       0.1508      2.00000
     31       0.7967      2.00000
     32       0.8212      2.00000
     33       0.9844      2.00000
     34       1.1098      2.00000
     35       1.1658      2.00000
     36       1.1911      2.00000
     37       1.2331      2.00000
     38       1.2400      2.00000
     39       1.2838      2.00000
     40       1.3777      2.00000
     41       2.3406      2.00000
     42       2.8318      2.00000
     43       3.2025      2.00000
     44       3.6936      2.00000
     45       3.9488      2.00000
     46       3.9744      2.00000
     47       4.3307      2.00000
     48       4.4429      2.00000
     49       4.4455      2.00000
     50       4.7649      2.00000
     51       4.7960      2.00000
     52       5.0078      2.00000
     53       5.3043      2.00000
     54       5.3453      2.00000
     55       5.8888      0.94320
     56       5.9714      0.01602
     57       6.4080      0.00000
     58       6.6195      0.00000
     59       6.8600      0.00000
     60       7.4492      0.00000
     61       7.8033      0.00000
     62       7.9361      0.00000
     63       7.9972      0.00000
     64       8.7979      0.00000
     65       9.0762      0.00000
     66       9.0970      0.00000


--------------------------------------------------------------------------------------------------------


 soft charge-density along one line, spin component           1
         0         1         2         3         4         5         6         7         8         9
 total charge-density along one line
 
 pseudopotential strength for first ion, spin component:           1
 12.236   0.000 -14.892   0.000   0.000   0.000  -0.004   0.000  -0.000   0.000  -0.000   0.000   0.005   0.000   0.000   0.000
-14.892   0.000  18.145   0.000  -0.000   0.000   0.005   0.000   0.000   0.000   0.000   0.000  -0.006   0.000  -0.000   0.000
  0.000   0.000  -0.000   0.000  -8.395   0.000  -0.000   0.000   0.000   0.000  10.067   0.000   0.000   0.000  -0.000   0.000
 -0.004   0.000   0.005   0.000  -0.000   0.000  -8.405   0.000   0.000   0.000   0.000   0.000  10.081   0.000  -0.000   0.000
 -0.000   0.000   0.000   0.000   0.000   0.000   0.000   0.000  -8.395   0.000  -0.000   0.000  -0.000   0.000  10.067   0.000
 -0.000   0.000   0.000   0.000  10.067   0.000   0.000   0.000  -0.000   0.000 -11.916   0.000  -0.000   0.000   0.000   0.000
  0.005   0.000  -0.006   0.000   0.000   0.000  10.081   0.000  -0.000   0.000  -0.000   0.000 -11.934   0.000   0.000   0.000
  0.000   0.000  -0.000   0.000  -0.000   0.000  -0.000   0.000  10.067   0.000   0.000   0.000   0.000   0.000 -11.916   0.000
 total augmentation occupancy for first ion, spin component:           1
  2.572   0.348   0.000   0.012  -0.000   0.000   0.001  -0.000
  0.348   0.074  -0.000   0.009  -0.000   0.000  -0.003   0.000
  0.000  -0.000   2.129   0.000  -0.000   0.248  -0.000  -0.000
  0.012   0.009  -0.000   2.109  -0.000  -0.000   0.253  -0.000
 -0.000  -0.000  -0.000  -0.000   2.129  -0.000  -0.000   0.248
  0.000   0.000   0.248  -0.000  -0.000   0.032   0.000  -0.000
  0.001  -0.003   0.000   0.253  -0.000   0.000   0.034  -0.000
 -0.000   0.000  -0.000  -0.000   0.248  -0.000  -0.000   0.032


------------------------ aborting loop because EDIFF is reached ----------------------------------------


    CHARGE:  cpu time    0.43: real time    0.43
    FORLOC:  cpu time    0.04: real time    0.04
    FORNL :  cpu time    3.70: real time    3.71
    STRESS:  cpu time    4.81: real time    4.82
    FORCOR:  cpu time    0.15: real time    0.15
    FORHAR:  cpu time    0.07: real time    0.07
    MIXING:  cpu time    0.00: real time    0.00
    OFIELD:  cpu time    0.00: real time    0.00

  FORCE on cell =-STRESS in cart. coord.  units (eV):
  Direction    XX          YY          ZZ          XY          YZ          ZX
  --------------------------------------------------------------------------------------
  Alpha Z   132.74958   132.74958   132.74958
  Ewald   25515.57141 25515.57180-28202.86131    -0.00009     0.00006    -0.00021
  Hartree 27265.95424 27265.95415-26314.97400    -0.00000     0.00000     0.00004
  E(xc)    -422.66021  -422.66022  -422.27127    -0.00000     0.00000     0.00000
  Local  -54020.87250-54020.87203 53278.62770    -0.00013    -0.00005     0.00010
  n-local   -44.01942   -57.96304   -53.29580     2.92994    -1.45718     5.27397
  augment    59.81292    59.81267    59.09729     0.00018    -0.00000     0.00000
  Kinetic  1534.05105  1491.45445  1499.37086     1.63508    -0.36926     1.89686
  Fock        0.00000     0.00000     0.00000     0.00000     0.00000     0.00000
  -------------------------------------------------------------------------------------
  Total      -7.68280    -7.68279   -23.55694     0.00000     0.00000     0.00000
  in kB     -33.66220   -33.66217  -103.21476     0.00000     0.00000     0.00000
  external pressure =      -56.85 kB  Pullay stress =        0.00 kB


 VOLUME and BASIS-vectors are now :
 -----------------------------------------------------------------------------
  energy-cutoff  :      520.00
  volume of cell :      365.67
      direct lattice vectors                 reciprocal lattice vectors
     2.592201318 -1.496607673  0.000000000     0.385772507  0.000000000  0.000000000
     0.000000000  2.993215347  0.000000000     0.192886253  0.334088892  0.000000000
    -0.000000000  0.000000000 47.128208582     0.000000000  0.000000000  0.021218714

  length of vectors
     2.993216030  2.993215347 47.128208582     0.385772507  0.385772595  0.021218714


 FORCES acting on ions
    electron-ion (+dipol)            ewald-force                    non-local-force                 convergence-correction
 -----------------------------------------------------------------------------------------------
   -.473E-03 0.823E-03 0.155E+04   -.310E-05 0.233E-05 -.155E+04   -.551E-17 0.651E-18 0.125E+01   0.331E-08 -.560E-08 -.133E+00
   0.588E-03 -.102E-02 0.121E+04   0.540E-04 -.934E-04 -.121E+04   0.416E-18 -.867E-18 0.352E-01   -.200E-08 0.351E-08 -.135E+00
   -.474E-03 0.820E-03 0.518E+03   0.454E-07 -.534E-07 -.518E+03   -.627E-20 0.424E-21 0.287E-02   0.343E-08 -.617E-08 -.660E-01
   0.588E-03 -.102E-02 0.173E+03   0.541E-04 -.937E-04 -.173E+03   -.124E-20 0.593E-20 -.767E-03   0.138E-07 -.218E-07 -.295E-01
   -.474E-03 0.820E-03 -.518E+03   -.492E-07 0.578E-07 0.518E+03   0.592E-20 0.000E+00 -.287E-02   0.140E-07 -.241E-07 0.657E-01
   0.588E-03 -.102E-02 -.864E+03   0.540E-04 -.936E-04 0.863E+03   0.719E-19 0.271E-19 -.256E-01   -.166E-08 0.235E-08 0.994E-01
   -.478E-03 0.824E-03 -.155E+04   0.311E-05 -.233E-05 0.155E+04   0.513E-17 -.434E-18 -.125E+01   0.549E-08 -.963E-08 0.133E+00
   -.154E-02 0.266E-02 0.863E+03   -.540E-04 0.936E-04 -.863E+03   -.632E-19 -.271E-19 0.256E-01   -.196E-08 0.393E-08 -.996E-01
   -.154E-02 0.266E-02 -.173E+03   -.541E-04 0.937E-04 0.173E+03   -.917E-22 -.136E-19 0.767E-03   -.405E-07 0.681E-07 0.291E-01
   -.154E-02 0.266E-02 -.121E+04   -.540E-04 0.934E-04 0.121E+04   -.399E-18 0.867E-18 -.352E-01   0.859E-08 -.149E-07 0.135E+00
   0.215E-04 -.372E-04 0.345E+03   -.770E-07 0.857E-07 -.345E+03   -.495E-19 0.407E-19 0.900E-02   0.707E-11 -.139E-09 -.390E-01
   0.215E-04 -.373E-04 -.100E-02   0.205E-08 -.228E-08 0.115E-01   0.449E-20 0.000E+00 -.217E-18   0.115E-09 -.199E-09 -.651E-04
   0.215E-04 -.372E-04 -.345E+03   0.750E-07 -.835E-07 0.345E+03   0.449E-19 -.542E-19 -.900E-02   -.149E-10 0.152E-09 0.389E-01
   0.633E-04 -.110E-03 0.460E+03   -.466E-04 0.806E-04 -.460E+03   0.124E-18 0.000E+00 -.377E-01   -.221E-08 0.377E-08 -.464E-01
   0.634E-04 -.110E-03 0.115E+03   -.468E-04 0.810E-04 -.115E+03   -.427E-20 0.108E-18 0.689E-02   0.186E-08 -.358E-08 -.158E-01
   0.633E-04 -.110E-03 -.230E+03   -.467E-04 0.809E-04 0.230E+03   -.111E-19 0.131E-19 -.145E-02   -.617E-09 0.993E-09 0.264E-01
   0.417E-04 -.584E-04 -.556E+03   -.236E-04 0.254E-04 0.556E+03   -.531E-17 0.000E+00 0.287E+00   -.598E-09 0.102E-08 0.386E-01
   -.187E-04 0.185E-04 0.556E+03   0.237E-04 -.254E-04 -.556E+03   0.791E-17 0.000E+00 -.287E+00   0.556E-09 -.946E-09 -.386E-01
   -.203E-04 0.351E-04 0.230E+03   0.467E-04 -.809E-04 -.230E+03   0.108E-19 -.136E-19 0.145E-02   0.564E-09 -.903E-09 -.265E-01
   -.203E-04 0.352E-04 -.115E+03   0.468E-04 -.810E-04 0.115E+03   -.278E-20 -.949E-19 -.689E-02   -.182E-08 0.350E-08 0.157E-01
   -.203E-04 0.351E-04 -.460E+03   0.466E-04 -.806E-04 0.460E+03   -.110E-19 0.000E+00 0.377E-01   0.213E-08 -.363E-08 0.464E-01
   0.491E-05 -.850E-05 0.130E-02   -.128E-09 0.122E-09 0.536E-02   -.214E-19 0.000E+00 -.217E-18   -.874E-11 0.151E-10 0.856E-04
   0.447E-05 -.788E-05 0.597E+03   0.287E-06 -.251E-06 -.597E+03   0.363E-17 -.208E-16 -.472E+00   -.655E-10 0.981E-10 -.382E-01
   0.192E-04 -.333E-04 0.379E+03   -.121E-05 0.223E-05 -.379E+03   -.434E-17 -.104E-16 0.402E-02   -.624E-10 0.780E-10 -.225E-01
   -.970E-05 0.167E-04 0.175E+03   0.184E-05 -.283E-05 -.176E+03   0.676E-17 0.000E+00 0.522E+00   0.148E-10 -.349E-10 -.102E-01
   0.461E-05 -.786E-05 -.597E+03   -.287E-06 0.251E-06 0.597E+03   -.884E-17 0.694E-17 0.472E+00   -.153E-10 0.418E-10 0.382E-01
   0.193E-04 -.333E-04 -.175E+03   -.184E-05 0.283E-05 0.176E+03   -.501E-17 0.000E+00 -.522E+00   -.374E-10 0.741E-10 0.104E-01
   -.973E-05 0.169E-04 -.379E+03   0.121E-05 -.223E-05 0.379E+03   0.260E-17 0.104E-16 -.402E-02   0.308E-10 -.232E-10 0.226E-01
 -----------------------------------------------------------------------------------------------
   -.449E-02 0.778E-02 -.581E+00   -.277E-13 -.440E-13 -.114E-11   -.286E-17 -.137E-16 -.928E-16   0.237E-08 -.410E-08 -.742E-03
 
 
 POSITION                                       TOTAL-FORCE (eV/Angst)
 -----------------------------------------------------------------------------------
     -0.00000     -0.00000     13.31748        -0.000000     -0.000000      0.003952
      0.86407      1.49661     15.85069         0.000000     -0.000000     -0.015183
     -0.00000     -0.00000     20.91458         0.000000     -0.000000     -0.005100
      0.86407      1.49661     23.44501         0.000000      0.000000     -0.001957
     -0.00000      0.00000     28.50581        -0.000000      0.000000      0.005100
      0.86407      1.49661     31.03784         0.000000      0.000000     -0.002626
     -0.00000      0.00000     36.10329         0.000000      0.000000     -0.003952
      1.72814     -0.00000     18.38269        -0.000000     -0.000000      0.002626
      1.72814     -0.00000     25.97530        -0.000000     -0.000000      0.001957
      1.72814     -0.00000     33.56999        -0.000000      0.000000      0.015183
     -0.00000     -0.00000     17.11587        -0.000000     -0.000000      0.003577
     -0.00000     -0.00000     24.71018        -0.000000     -0.000000      0.000000
     -0.00000     -0.00000     32.30471         0.000000      0.000000     -0.003577
      1.72814     -0.00000     14.58211        -0.000000      0.000000      0.008650
      1.72814     -0.00000     22.17915        -0.000000     -0.000000      0.006288
      1.72814     -0.00000     29.77183        -0.000000     -0.000000      0.011795
      1.72814     -0.00000     37.41653         0.000000     -0.000000     -0.002713
      0.86407      1.49661     12.00425        -0.000000      0.000000      0.002713
      0.86407      1.49661     19.64866         0.000000     -0.000000     -0.011795
      0.86407      1.49661     27.24124         0.000000     -0.000000     -0.006288
      0.86407      1.49661     34.83857         0.000000     -0.000000     -0.008650
     -0.00000     -0.00000      1.14614        -0.000000     -0.000000      0.000000
     -0.00000     -0.00000      9.16498        -0.000000     -0.000000      0.011136
      1.72814     -0.00000      6.36719        -0.000000     -0.000000      0.011534
      0.86407      1.49661      3.66645        -0.000000     -0.000000      0.016585
     -0.00000     -0.00000     40.25584         0.000000     -0.000000     -0.011136
      1.72814     -0.00000     45.75400         0.000000     -0.000000     -0.016585
      0.86407      1.49661     43.05338         0.000000     -0.000000     -0.011534
 -----------------------------------------------------------------------------------
    total drift:                               -0.004491      0.007779     -0.582055


--------------------------------------------------------------------------------------------------------



  FREE ENERGIE OF THE ION-ELECTRON SYSTEM (eV)
  ---------------------------------------------------
  free  energy   TOTEN  =      -144.38987181 eV

  energy  without entropy=     -144.38401019  energy(sigma->0) =     -144.38694100
 
 d Force = 0.3656698E-03[ 0.368E-04, 0.695E-03]  d Energy = 0.3286663E-03 0.370E-04
 d Force =-0.2317792E+02[-0.232E+02,-0.232E+02]  d Ewald  =-0.2317792E+02 0.148E-05


--------------------------------------------------------------------------------------------------------


    POTLOK:  cpu time    0.23: real time    0.23


--------------------------------------------------------------------------------------------------------


 Conjugate gradient step on ions:
 trial-energy change:   -0.000329  1 .order   -0.000366   -0.000695   -0.000037
  (g-gl).g = 0.417E-03      g.g   = 0.516E-03  gl.gl    = 0.184E-02
 g(Force)  = 0.516E-03   g(Stress)= 0.000E+00 ortho     =-0.779E-04
 gamma     =   0.22720
 trial     =   1.39483
 opt step  =   1.47283  (harmonic =   1.47283) maximal distance =0.00477502
 next E    =  -144.389910   (d E  =  -0.00037)


--------------------------------------------------------------------------------------------------------


  
 reached required accuracy - stopping structural energy minimisation
     LOOP+:  cpu time   43.17: real time   43.23
    4ORBIT:  cpu time    0.00: real time    0.00

 total amount of memory used by VASP on root node   162559. kBytes
========================================================================

   base      :      30000. kBytes
   nonl-proj :      17318. kBytes
   fftplans  :      62072. kBytes
   grid      :      24883. kBytes
   one-center:         56. kBytes
   wavefun   :      28230. kBytes
 
  
  
 General timing and accounting informations for this job:
 ========================================================
  
                  Total CPU time used (sec):     1214.633
                            User time (sec):     1201.046
                          System time (sec):       13.587
                         Elapsed time (sec):     1216.271
  
                   Maximum memory used (kb):      272008.
                   Average memory used (kb):           0.
  
                          Minor page faults:       322610
                          Major page faults:            0
                 Voluntary context switches:          146
