       N       E                     dE             d eps       ncg     rms          rms(c)
DAV:   1     0.530659026017E+03    0.53066E+03   -0.43918E+04  2712   0.134E+03
DAV:   2    -0.942790410382E+02   -0.62494E+03   -0.59324E+03  3488   0.263E+02
DAV:   3    -0.156906457413E+03   -0.62627E+02   -0.62301E+02  3160   0.900E+01
DAV:   4    -0.157943878413E+03   -0.10374E+01   -0.10353E+01  3160   0.126E+01
DAV:   5    -0.157965505361E+03   -0.21627E-01   -0.21617E-01  3256   0.179E+00    0.237E+01
DAV:   6    -0.140501344091E+03    0.17464E+02   -0.92144E+01  3048   0.328E+01    0.788E+00
DAV:   7    -0.140453943650E+03    0.47400E-01   -0.31120E+00  3000   0.615E+00    0.495E+00
DAV:   8    -0.140281439724E+03    0.17250E+00   -0.78489E-01  3024   0.441E+00    0.142E+00
DAV:   9    -0.140236231123E+03    0.45209E-01   -0.14352E-01  3088   0.191E+00    0.715E-01
DAV:  10    -0.140228048541E+03    0.81826E-02   -0.62175E-02  3056   0.828E-01    0.355E-01
DAV:  11    -0.140218396816E+03    0.96517E-02   -0.25507E-02  3088   0.759E-01    0.276E-01
DAV:  12    -0.140211862573E+03    0.65342E-02   -0.58665E-03  3520   0.492E-01    0.194E-01
DAV:  13    -0.140197710555E+03    0.14152E-01   -0.16806E-02  4360   0.114E+00    0.132E-01
DAV:  14    -0.140193294893E+03    0.44157E-02   -0.11323E-02  3168   0.604E-01    0.191E-01
DAV:  15    -0.140181880009E+03    0.11415E-01   -0.16887E-02  3768   0.128E+00    0.220E-01
DAV:  16    -0.140175015897E+03    0.68641E-02   -0.10479E-02  3472   0.114E+00    0.176E-01
DAV:  17    -0.140172166515E+03    0.28494E-02   -0.15764E-02  3264   0.900E-01    0.803E-02
DAV:  18    -0.140170708449E+03    0.14581E-02   -0.62017E-03  3304   0.718E-01    0.135E-01
DAV:  19    -0.140169049805E+03    0.16586E-02   -0.47617E-03  3768   0.700E-01    0.472E-02
DAV:  20    -0.140167913668E+03    0.11361E-02   -0.28422E-03  4080   0.801E-01    0.297E-02
DAV:  21    -0.140168025485E+03   -0.11182E-03   -0.36726E-03  3248   0.446E-01    0.591E-02
DAV:  22    -0.140168150939E+03   -0.12545E-03   -0.17101E-03  2808   0.150E-01    0.706E-02
DAV:  23    -0.140168077864E+03    0.73075E-04   -0.22818E-04  2928   0.582E-02    0.340E-02
DAV:  24    -0.140168065131E+03    0.12733E-04   -0.10925E-04  2768   0.406E-02    0.142E-02
DAV:  25    -0.140168064620E+03    0.51049E-06   -0.98366E-06  1776   0.192E-02
   1 F= -.14016806E+03 E0= -.14016589E+03  d E =-.140168E+03
       N       E                     dE             d eps       ncg     rms          rms(c)
DAV:   1    -0.140164674269E+03    0.33909E-02   -0.17705E+00  2760   0.492E+00    0.280E-01
DAV:   2    -0.140169054050E+03   -0.43798E-02   -0.67687E-02  3024   0.787E-01    0.225E-01
DAV:   3    -0.140167570210E+03    0.14838E-02   -0.22538E-03  3064   0.200E-01    0.148E-01
DAV:   4    -0.140166910137E+03    0.66007E-03   -0.13963E-03  3032   0.148E-01    0.830E-02
DAV:   5    -0.140166403483E+03    0.50665E-03   -0.55145E-04  3136   0.136E-01    0.340E-02
DAV:   6    -0.140166183446E+03    0.22004E-03   -0.36027E-04  3096   0.100E-01    0.189E-02
DAV:   7    -0.140166034462E+03    0.14898E-03   -0.14587E-04  3528   0.865E-02    0.149E-02
DAV:   8    -0.140165885855E+03    0.14861E-03   -0.10779E-04  3336   0.902E-02    0.128E-02
DAV:   9    -0.140165809277E+03    0.76579E-04   -0.89665E-05  3000   0.653E-02    0.114E-02
DAV:  10    -0.140165705887E+03    0.10339E-03   -0.34110E-05  2712   0.971E-02    0.103E-02
DAV:  11    -0.140165576562E+03    0.12933E-03   -0.17134E-04  3664   0.186E-01    0.117E-02
DAV:  12    -0.140165541236E+03    0.35325E-04   -0.20566E-04  3312   0.132E-01    0.703E-03
DAV:  13    -0.140165531710E+03    0.95260E-05   -0.13016E-04  2776   0.878E-02    0.128E-02
DAV:  14    -0.140165516899E+03    0.14811E-04   -0.17073E-05  2128   0.750E-02    0.840E-03
DAV:  15    -0.140165513175E+03    0.37247E-05   -0.50394E-05  2584   0.537E-02
   2 F= -.14016551E+03 E0= -.14016317E+03  d E =0.255145E-02
       N       E                     dE             d eps       ncg     rms          rms(c)
DAV:   1    -0.140171671518E+03   -0.61546E-02   -0.55432E-01  2688   0.277E+00    0.157E-01
DAV:   2    -0.140172972154E+03   -0.13006E-02   -0.20658E-02  3016   0.447E-01    0.123E-01
DAV:   3    -0.140172488918E+03    0.48324E-03   -0.72712E-04  3112   0.113E-01    0.822E-02
DAV:   4    -0.140172273444E+03    0.21547E-03   -0.41436E-04  3040   0.833E-02    0.464E-02
DAV:   5    -0.140172109984E+03    0.16346E-03   -0.16731E-04  3064   0.805E-02    0.186E-02
DAV:   6    -0.140172040840E+03    0.69144E-04   -0.11638E-04  3072   0.602E-02    0.106E-02
DAV:   7    -0.140171991381E+03    0.49460E-04   -0.46310E-05  2936   0.551E-02    0.836E-03
DAV:   8    -0.140171941011E+03    0.50370E-04   -0.29688E-05  2856   0.595E-02    0.648E-03
DAV:   9    -0.140171917710E+03    0.23301E-04   -0.33522E-05  2664   0.441E-02    0.590E-03
DAV:  10    -0.140171889496E+03    0.28214E-04   -0.13736E-05  2080   0.590E-02    0.533E-03
DAV:  11    -0.140171863137E+03    0.26359E-04   -0.39595E-05  2928   0.816E-02    0.539E-03
DAV:  12    -0.140171854235E+03    0.89021E-05   -0.43976E-05  2624   0.588E-02
   3 F= -.14017185E+03 E0= -.14016959E+03  d E =-.378962E-02
       N       E                     dE             d eps       ncg     rms          rms(c)
DAV:   1    -0.140173041718E+03   -0.11786E-02   -0.74032E-02  2752   0.105E+00    0.495E-02
DAV:   2    -0.140173199458E+03   -0.15774E-03   -0.19975E-03  3048   0.148E-01    0.346E-02
DAV:   3    -0.140173152378E+03    0.47081E-04   -0.97641E-05  2872   0.294E-02    0.205E-02
DAV:   4    -0.140173144589E+03    0.77881E-05   -0.20977E-05  2264   0.180E-02    0.136E-02
DAV:   5    -0.140173136747E+03    0.78423E-05   -0.88448E-06  1800   0.168E-02    0.605E-03
DAV:   6    -0.140173132111E+03    0.46360E-05   -0.66276E-06  1744   0.194E-02
   4 F= -.14017313E+03 E0= -.14017094E+03  d E =-.127788E-02
       N       E                     dE             d eps       ncg     rms          rms(c)
DAV:   1    -0.140174370461E+03   -0.12337E-02   -0.66639E-01  2688   0.314E+00    0.147E-01
DAV:   2    -0.140175616655E+03   -0.12462E-02   -0.17557E-02  3040   0.443E-01    0.960E-02
DAV:   3    -0.140175299935E+03    0.31672E-03   -0.74031E-04  3016   0.889E-02    0.610E-02
DAV:   4    -0.140175223627E+03    0.76308E-04   -0.17157E-04  3024   0.503E-02    0.415E-02
DAV:   5    -0.140175145407E+03    0.78220E-04   -0.86558E-05  3112   0.524E-02    0.177E-02
DAV:   6    -0.140175105095E+03    0.40311E-04   -0.68891E-05  3088   0.576E-02    0.778E-03
DAV:   7    -0.140175089965E+03    0.15130E-04   -0.38666E-05  2648   0.289E-02    0.739E-03
DAV:   8    -0.140175081782E+03    0.81828E-05   -0.57179E-06  1736   0.133E-02
   5 F= -.14017508E+03 E0= -.14017304E+03  d E =-.322755E-02
       N       E                     dE             d eps       ncg     rms          rms(c)
DAV:   1    -0.140176001462E+03   -0.91150E-03   -0.45272E-02  2760   0.834E-01    0.363E-02
DAV:   2    -0.140176096544E+03   -0.95082E-04   -0.13228E-03  3000   0.133E-01    0.246E-02
DAV:   3    -0.140176080117E+03    0.16427E-04   -0.28752E-05  2256   0.245E-02    0.168E-02
DAV:   4    -0.140176072485E+03    0.76314E-05   -0.19502E-05  2056   0.233E-02    0.965E-03
DAV:   5    -0.140176063382E+03    0.91032E-05   -0.10610E-05  1776   0.235E-02    0.447E-03
DAV:   6    -0.140176055971E+03    0.74111E-05   -0.43217E-06  1680   0.299E-02
   6 F= -.14017606E+03 E0= -.14017407E+03  d E =-.974189E-03
       N       E                     dE             d eps       ncg     rms          rms(c)
DAV:   1    -0.140177290624E+03   -0.12272E-02   -0.40726E-01  2688   0.248E+00    0.112E-01
DAV:   2    -0.140178138948E+03   -0.84832E-03   -0.11463E-02  3000   0.382E-01    0.651E-02
DAV:   3    -0.140178034212E+03    0.10474E-03   -0.27304E-04  2992   0.728E-02    0.439E-02
DAV:   4    -0.140178002468E+03    0.31744E-04   -0.12079E-04  3072   0.494E-02    0.259E-02
DAV:   5    -0.140177977668E+03    0.24800E-04   -0.42857E-05  2832   0.388E-02    0.105E-02
DAV:   6    -0.140177971157E+03    0.65117E-05   -0.22326E-05  2464   0.409E-02
   7 F= -.14017797E+03 E0= -.14017612E+03  d E =-.288937E-02
       N       E                     dE             d eps       ncg     rms          rms(c)
DAV:   1    -0.140173583046E+03    0.43946E-02   -0.16311E+00  2688   0.498E+00    0.224E-01
DAV:   2    -0.140176889248E+03   -0.33062E-02   -0.45578E-02  3000   0.762E-01    0.127E-01
DAV:   3    -0.140176548268E+03    0.34098E-03   -0.90749E-04  3016   0.144E-01    0.855E-02
DAV:   4    -0.140176397493E+03    0.15077E-03   -0.68055E-04  3096   0.124E-01    0.398E-02
DAV:   5    -0.140176350905E+03    0.46588E-04   -0.17124E-04  3048   0.720E-02    0.213E-02
DAV:   6    -0.140176333890E+03    0.17015E-04   -0.12892E-04  3504   0.799E-02    0.141E-02
DAV:   7    -0.140176329507E+03    0.43828E-05   -0.44070E-05  2704   0.333E-02
   8 F= -.14017633E+03 E0= -.14017463E+03  d E =-.124772E-02
       N       E                     dE             d eps       ncg     rms          rms(c)
DAV:   1    -0.140176771865E+03   -0.43798E-03   -0.86423E-01  2712   0.366E+00    0.163E-01
DAV:   2    -0.140178606073E+03   -0.18342E-02   -0.24703E-02  3008   0.558E-01    0.997E-02
DAV:   3    -0.140178351787E+03    0.25429E-03   -0.58569E-04  2984   0.106E-01    0.672E-02
DAV:   4    -0.140178286169E+03    0.65618E-04   -0.29711E-04  3048   0.769E-02    0.371E-02
DAV:   5    -0.140178247084E+03    0.39086E-04   -0.88347E-05  2968   0.431E-02    0.153E-02
DAV:   6    -0.140178243519E+03    0.35646E-05   -0.49064E-05  2936   0.413E-02
   9 F= -.14017824E+03 E0= -.14017645E+03  d E =-.316174E-02
       N       E                     dE             d eps       ncg     rms          rms(c)
DAV:   1    -0.140178989525E+03   -0.74244E-03   -0.12045E-02  2704   0.459E-01    0.254E-02
DAV:   2    -0.140178998808E+03   -0.92835E-05   -0.33586E-04  3032   0.724E-02    0.142E-02
DAV:   3    -0.140178993756E+03    0.50520E-05   -0.21688E-05  2232   0.181E-02    0.964E-03
DAV:   4    -0.140178992345E+03    0.14107E-05   -0.42230E-06  1704   0.958E-03    0.656E-03
DAV:   5    -0.140178990779E+03    0.15665E-05   -0.29279E-06  1736   0.122E-02    0.232E-03
DAV:   6    -0.140178990150E+03    0.62872E-06   -0.16674E-06  1632   0.915E-03
  10 F= -.14017899E+03 E0= -.14017722E+03  d E =-.746631E-03
       N       E                     dE             d eps       ncg     rms          rms(c)
DAV:   1    -0.140180233668E+03   -0.12429E-02   -0.10876E-01  2696   0.138E+00    0.744E-02
DAV:   2    -0.140180290337E+03   -0.56669E-04   -0.29065E-03  3032   0.209E-01    0.437E-02
DAV:   3    -0.140180241696E+03    0.48641E-04   -0.17378E-04  3024   0.532E-02    0.296E-02
DAV:   4    -0.140180214283E+03    0.27412E-04   -0.39036E-05  2696   0.289E-02    0.194E-02
DAV:   5    -0.140180175294E+03    0.38990E-04   -0.16021E-05  2328   0.379E-02    0.765E-03
DAV:   6    -0.140180149120E+03    0.26174E-04   -0.23253E-05  2496   0.375E-02    0.540E-03
DAV:   7    -0.140180134720E+03    0.14400E-04   -0.16027E-05  2096   0.263E-02    0.596E-03
DAV:   8    -0.140180118843E+03    0.15878E-04   -0.30262E-06  1824   0.255E-02    0.413E-03
DAV:   9    -0.140180070550E+03    0.48292E-04   -0.43709E-05  3000   0.993E-02    0.768E-03
DAV:  10    -0.140180059938E+03    0.10613E-04   -0.47622E-05  2784   0.521E-02    0.611E-03
DAV:  11    -0.140180057989E+03    0.19487E-05   -0.28168E-05  2336   0.272E-02
  11 F= -.14018006E+03 E0= -.14017834E+03  d E =-.181447E-02
       N       E                     dE             d eps       ncg     rms          rms(c)
DAV:   1    -0.140180743592E+03   -0.68365E-03   -0.47293E-02  2856   0.933E-01    0.310E-02
DAV:   2    -0.140180819287E+03   -0.75696E-04   -0.10626E-03  2928   0.138E-01    0.191E-02
DAV:   3    -0.140180807895E+03    0.11392E-04   -0.34980E-05  2760   0.323E-02    0.147E-02
DAV:   4    -0.140180797140E+03    0.10755E-04   -0.14753E-05  1784   0.261E-02    0.755E-03
DAV:   5    -0.140180788972E+03    0.81676E-05   -0.13275E-05  1928   0.346E-02    0.594E-03
DAV:   6    -0.140180786705E+03    0.22677E-05   -0.14218E-05  1776   0.244E-02
  12 F= -.14018079E+03 E0= -.14017908E+03  d E =-.728716E-03
       N       E                     dE             d eps       ncg     rms          rms(c)
DAV:   1    -0.140181564073E+03   -0.77510E-03   -0.42506E-01  2808   0.280E+00    0.914E-02
DAV:   2    -0.140182281671E+03   -0.71760E-03   -0.93999E-03  2936   0.401E-01    0.562E-02
DAV:   3    -0.140182187459E+03    0.94212E-04   -0.22174E-04  3184   0.835E-02    0.414E-02
DAV:   4    -0.140182104549E+03    0.82910E-04   -0.17296E-04  3024   0.848E-02    0.193E-02
DAV:   5    -0.140182073469E+03    0.31080E-04   -0.90426E-05  3120   0.712E-02    0.157E-02
DAV:   6    -0.140182060964E+03    0.12506E-04   -0.79300E-05  2792   0.541E-02    0.765E-03
DAV:   7    -0.140182050363E+03    0.10600E-04   -0.13709E-05  1944   0.370E-02    0.781E-03
DAV:   8    -0.140182042848E+03    0.75155E-05   -0.98765E-06  1968   0.292E-02
  13 F= -.14018204E+03 E0= -.14018037E+03  d E =-.198486E-02
       N       E                     dE             d eps       ncg     rms          rms(c)
DAV:   1    -0.140182052946E+03   -0.25829E-05   -0.82295E-02  2784   0.123E+00    0.413E-02
DAV:   2    -0.140182185279E+03   -0.13233E-03   -0.18322E-03  2936   0.181E-01    0.237E-02
DAV:   3    -0.140182167222E+03    0.18057E-04   -0.56865E-05  3072   0.380E-02    0.182E-02
DAV:   4    -0.140182150900E+03    0.16322E-04   -0.23532E-05  2304   0.311E-02    0.919E-03
DAV:   5    -0.140182139155E+03    0.11745E-04   -0.17488E-05  1920   0.394E-02    0.696E-03
DAV:   6    -0.140182136141E+03    0.30137E-05   -0.20107E-05  2048   0.278E-02
  14 F= -.14018214E+03 E0= -.14018048E+03  d E =-.207815E-02
       N       E                     dE             d eps       ncg     rms          rms(c)
DAV:   1    -0.140182708046E+03   -0.56889E-03   -0.19865E-01  2704   0.192E+00    0.621E-02
DAV:   2    -0.140183104863E+03   -0.39682E-03   -0.44859E-03  2928   0.267E-01    0.332E-02
DAV:   3    -0.140183078949E+03    0.25915E-04   -0.55753E-05  3000   0.356E-02    0.226E-02
DAV:   4    -0.140183064024E+03    0.14924E-04   -0.61505E-05  3016   0.431E-02    0.858E-03
DAV:   5    -0.140183062917E+03    0.11069E-05   -0.21075E-05  2264   0.208E-02    0.668E-03
DAV:   6    -0.140183061978E+03    0.93904E-06   -0.47337E-06  1648   0.105E-02
  15 F= -.14018306E+03 E0= -.14018143E+03  d E =-.925837E-03
       N       E                     dE             d eps       ncg     rms          rms(c)
DAV:   1    -0.140181454716E+03    0.16082E-02   -0.17852E+00  2704   0.577E+00    0.182E-01
DAV:   2    -0.140185006622E+03   -0.35519E-02   -0.39840E-02  2920   0.797E-01    0.100E-01
DAV:   3    -0.140184763147E+03    0.24348E-03   -0.45351E-04  3240   0.106E-01    0.681E-02
DAV:   4    -0.140184568719E+03    0.19443E-03   -0.64019E-04  3080   0.153E-01    0.244E-02
DAV:   5    -0.140184555292E+03    0.13427E-04   -0.24251E-04  3040   0.747E-02    0.222E-02
DAV:   6    -0.140184535130E+03    0.20162E-04   -0.55012E-05  2816   0.363E-02    0.103E-02
DAV:   7    -0.140184494304E+03    0.40826E-04   -0.86849E-06  1872   0.491E-02    0.734E-03
DAV:   8    -0.140184462285E+03    0.32019E-04   -0.17752E-05  2160   0.451E-02    0.989E-03
DAV:   9    -0.140184410842E+03    0.51443E-04   -0.31344E-05  2584   0.807E-02    0.594E-03
DAV:  10    -0.140184339291E+03    0.71550E-04   -0.98240E-05  3864   0.147E-01    0.149E-02
DAV:  11    -0.140184273945E+03    0.65347E-04   -0.14914E-04  3568   0.196E-01    0.896E-03
DAV:  12    -0.140184286076E+03   -0.12131E-04   -0.20696E-04  2848   0.770E-02    0.774E-03
DAV:  13    -0.140184288390E+03   -0.23140E-05   -0.42793E-05  2488   0.253E-02
  16 F= -.14018429E+03 E0= -.14018276E+03  d E =-.215225E-02
       N       E                     dE             d eps       ncg     rms          rms(c)
DAV:   1    -0.140184880827E+03   -0.59475E-03   -0.61939E-02  2720   0.108E+00    0.323E-02
DAV:   2    -0.140184988574E+03   -0.10775E-03   -0.12762E-03  2992   0.145E-01    0.179E-02
DAV:   3    -0.140184981341E+03    0.72326E-05   -0.20152E-05  2296   0.229E-02    0.125E-02
DAV:   4    -0.140184974014E+03    0.73267E-05   -0.13731E-05  1920   0.292E-02    0.499E-03
DAV:   5    -0.140184973177E+03    0.83727E-06   -0.13104E-05  1664   0.200E-02    0.508E-03
DAV:   6    -0.140184972952E+03    0.22511E-06   -0.41928E-06  1616   0.959E-03
  17 F= -.14018497E+03 E0= -.14018346E+03  d E =-.684562E-03
       N       E                     dE             d eps       ncg     rms          rms(c)
DAV:   1    -0.140185577997E+03   -0.60482E-03   -0.55719E-01  2704   0.323E+00    0.101E-01
DAV:   2    -0.140186563932E+03   -0.98593E-03   -0.11495E-02  3000   0.434E-01    0.542E-02
DAV:   3    -0.140186499139E+03    0.64792E-04   -0.19600E-04  3240   0.686E-02    0.380E-02
DAV:   4    -0.140186438158E+03    0.60981E-04   -0.13154E-04  3120   0.780E-02    0.163E-02
DAV:   5    -0.140186427971E+03    0.10187E-04   -0.81007E-05  3128   0.535E-02    0.149E-02
DAV:   6    -0.140186422625E+03    0.53456E-05   -0.44383E-05  2632   0.351E-02
  18 F= -.14018642E+03 E0= -.14018496E+03  d E =-.213424E-02
       N       E                     dE             d eps       ncg     rms          rms(c)
DAV:   1    -0.140183106334E+03    0.33216E-02   -0.22272E+00  2696   0.646E+00    0.202E-01
DAV:   2    -0.140187097124E+03   -0.39908E-02   -0.46299E-02  3000   0.868E-01    0.110E-01
DAV:   3    -0.140186831770E+03    0.26535E-03   -0.78346E-04  3256   0.136E-01    0.766E-02
DAV:   4    -0.140186576025E+03    0.25575E-03   -0.53827E-04  3136   0.155E-01    0.328E-02
DAV:   5    -0.140186532721E+03    0.43304E-04   -0.31417E-04  3168   0.106E-01    0.293E-02
DAV:   6    -0.140186508110E+03    0.24611E-04   -0.20180E-04  2984   0.777E-02    0.148E-02
DAV:   7    -0.140186484133E+03    0.23977E-04   -0.26968E-05  2544   0.461E-02    0.877E-03
DAV:   8    -0.140186466893E+03    0.17240E-04   -0.13404E-05  2200   0.468E-02    0.664E-03
DAV:   9    -0.140186453585E+03    0.13308E-04   -0.16333E-05  2200   0.531E-02    0.505E-03
DAV:  10    -0.140186448874E+03    0.47110E-05   -0.24278E-05  2216   0.416E-02
  19 F= -.14018645E+03 E0= -.14018506E+03  d E =-.216048E-02
       N       E                     dE             d eps       ncg     rms          rms(c)
DAV:   1    -0.140186138847E+03    0.31474E-03   -0.48374E-01  2696   0.300E+00    0.950E-02
DAV:   2    -0.140187018408E+03   -0.87956E-03   -0.10134E-02  3008   0.402E-01    0.507E-02
DAV:   3    -0.140186963887E+03    0.54522E-04   -0.15892E-04  3256   0.606E-02    0.349E-02
DAV:   4    -0.140186917360E+03    0.46526E-04   -0.11231E-04  3136   0.677E-02    0.146E-02
DAV:   5    -0.140186912325E+03    0.50347E-05   -0.63770E-05  3024   0.418E-02    0.126E-02
DAV:   6    -0.140186908722E+03    0.36031E-05   -0.25207E-05  2032   0.264E-02
  20 F= -.14018691E+03 E0= -.14018549E+03  d E =-.262033E-02
       N       E                     dE             d eps       ncg     rms          rms(c)
DAV:   1    -0.140187660458E+03   -0.74813E-03   -0.25816E-01  2688   0.216E+00    0.754E-02
DAV:   2    -0.140188166062E+03   -0.50560E-03   -0.57905E-03  2968   0.296E-01    0.383E-02
DAV:   3    -0.140188137963E+03    0.28099E-04   -0.99120E-05  3224   0.490E-02    0.268E-02
DAV:   4    -0.140188116842E+03    0.21121E-04   -0.55936E-05  2976   0.456E-02    0.115E-02
DAV:   5    -0.140188111107E+03    0.57349E-05   -0.20381E-05  2144   0.336E-02    0.740E-03
DAV:   6    -0.140188106144E+03    0.49628E-05   -0.16184E-05  1944   0.327E-02
  21 F= -.14018811E+03 E0= -.14018671E+03  d E =-.119742E-02
       N       E                     dE             d eps       ncg     rms          rms(c)
DAV:   1    -0.140185950610E+03    0.21605E-02   -0.23198E+00  2688   0.649E+00    0.230E-01
DAV:   2    -0.140190578061E+03   -0.46275E-02   -0.52390E-02  2960   0.889E-01    0.114E-01
DAV:   3    -0.140190328472E+03    0.24959E-03   -0.84882E-04  3240   0.144E-01    0.782E-02
DAV:   4    -0.140190147224E+03    0.18125E-03   -0.44721E-04  3184   0.132E-01    0.330E-02
DAV:   5    -0.140190097084E+03    0.50140E-04   -0.18999E-04  3344   0.960E-02    0.218E-02
DAV:   6    -0.140190042381E+03    0.54703E-04   -0.10766E-04  3192   0.896E-02    0.132E-02
DAV:   7    -0.140190022999E+03    0.19382E-04   -0.67276E-05  2752   0.460E-02    0.140E-02
DAV:   8    -0.140189989695E+03    0.33305E-04   -0.33488E-05  2664   0.433E-02    0.851E-03
DAV:   9    -0.140189912711E+03    0.76984E-04   -0.46799E-05  2864   0.114E-01    0.152E-02
DAV:  10    -0.140189862331E+03    0.50381E-04   -0.56874E-05  2952   0.990E-02    0.161E-02
DAV:  11    -0.140189782637E+03    0.79693E-04   -0.16803E-04  3848   0.235E-01    0.608E-03
DAV:  12    -0.140189789556E+03   -0.69190E-05   -0.23087E-04  2824   0.951E-02    0.775E-03
DAV:  13    -0.140189791849E+03   -0.22930E-05   -0.65098E-05  2536   0.336E-02
  22 F= -.14018979E+03 E0= -.14018845E+03  d E =-.288313E-02
       N       E                     dE             d eps       ncg     rms          rms(c)
DAV:   1    -0.140190327410E+03   -0.53785E-03   -0.52918E-01  2696   0.313E+00    0.107E-01
DAV:   2    -0.140191404050E+03   -0.10766E-02   -0.11928E-02  2888   0.422E-01    0.563E-02
DAV:   3    -0.140191335401E+03    0.68649E-04   -0.15092E-04  3248   0.569E-02    0.376E-02
DAV:   4    -0.140191296107E+03    0.39294E-04   -0.93435E-05  3040   0.500E-02    0.136E-02
DAV:   5    -0.140191294614E+03    0.14924E-05   -0.44942E-05  2768   0.309E-02    0.671E-03
DAV:   6    -0.140191293660E+03    0.95482E-06   -0.79362E-06  1760   0.118E-02
  23 F= -.14019129E+03 E0= -.14018996E+03  d E =-.150181E-02
       N       E                     dE             d eps       ncg     rms          rms(c)
DAV:   1    -0.140184488278E+03    0.68063E-02   -0.47604E+00  2688   0.938E+00    0.323E-01
DAV:   2    -0.140194262019E+03   -0.97737E-02   -0.10858E-01  2864   0.128E+00    0.170E-01
DAV:   3    -0.140193615660E+03    0.64636E-03   -0.15021E-03  3232   0.179E-01    0.113E-01
DAV:   4    -0.140193243808E+03    0.37185E-03   -0.75239E-04  3040   0.140E-01    0.462E-02
DAV:   5    -0.140193165541E+03    0.78267E-04   -0.38757E-04  3112   0.107E-01    0.187E-02
DAV:   6    -0.140193144524E+03    0.21017E-04   -0.14055E-04  3056   0.526E-02    0.161E-02
DAV:   7    -0.140193117343E+03    0.27180E-04   -0.98755E-06  2024   0.269E-02    0.936E-03
DAV:   8    -0.140193068787E+03    0.48556E-04   -0.25571E-05  2600   0.555E-02    0.772E-03
DAV:   9    -0.140193022319E+03    0.46468E-04   -0.33087E-05  2776   0.691E-02    0.725E-03
DAV:  10    -0.140192970406E+03    0.51913E-04   -0.43144E-05  3080   0.103E-01    0.880E-03
DAV:  11    -0.140192931478E+03    0.38929E-04   -0.80504E-05  3344   0.132E-01    0.554E-03
DAV:  12    -0.140192930967E+03    0.51092E-06   -0.10841E-04  2848   0.645E-02    0.631E-03
DAV:  13    -0.140192932766E+03   -0.17992E-05   -0.30752E-05  2264   0.208E-02
  24 F= -.14019293E+03 E0= -.14019160E+03  d E =-.314092E-02
       N       E                     dE             d eps       ncg     rms          rms(c)
DAV:   1    -0.140193265685E+03   -0.33472E-03   -0.25911E-01  2688   0.222E+00    0.728E-02
DAV:   2    -0.140193777406E+03   -0.51172E-03   -0.55480E-03  2912   0.296E-01    0.390E-02
DAV:   3    -0.140193748591E+03    0.28815E-04   -0.69912E-05  3248   0.411E-02    0.261E-02
DAV:   4    -0.140193727481E+03    0.21110E-04   -0.38452E-05  2912   0.487E-02    0.103E-02
DAV:   5    -0.140193724243E+03    0.32381E-05   -0.32347E-05  2472   0.362E-02    0.614E-03
DAV:   6    -0.140193722155E+03    0.20882E-05   -0.93164E-06  1640   0.181E-02
  25 F= -.14019372E+03 E0= -.14019238E+03  d E =-.789389E-03
       N       E                     dE             d eps       ncg     rms          rms(c)
DAV:   1    -0.140191115763E+03    0.26085E-02   -0.18759E+00  2688   0.598E+00    0.197E-01
DAV:   2    -0.140194863929E+03   -0.37482E-02   -0.40456E-02  2872   0.799E-01    0.106E-01
DAV:   3    -0.140194656796E+03    0.20713E-03   -0.52347E-04  3256   0.108E-01    0.704E-02
DAV:   4    -0.140194524089E+03    0.13271E-03   -0.27745E-04  3120   0.115E-01    0.276E-02
DAV:   5    -0.140194511026E+03    0.13063E-04   -0.19940E-04  3136   0.824E-02    0.161E-02
DAV:   6    -0.140194502453E+03    0.85728E-05   -0.55928E-05  2864   0.397E-02
  26 F= -.14019450E+03 E0= -.14019313E+03  d E =-.156969E-02
       N       E                     dE             d eps       ncg     rms          rms(c)
DAV:   1    -0.140195021924E+03   -0.51090E-03   -0.99420E-02  2688   0.139E+00    0.450E-02
DAV:   2    -0.140195226431E+03   -0.20451E-03   -0.23028E-03  2928   0.198E-01    0.251E-02
DAV:   3    -0.140195210356E+03    0.16075E-04   -0.33090E-05  2584   0.333E-02    0.178E-02
DAV:   4    -0.140195191105E+03    0.19251E-04   -0.42376E-05  2848   0.486E-02    0.766E-03
DAV:   5    -0.140195188085E+03    0.30194E-05   -0.21563E-05  2032   0.281E-02    0.773E-03
DAV:   6    -0.140195185880E+03    0.22057E-05   -0.10796E-05  1672   0.172E-02
  27 F= -.14019519E+03 E0= -.14019382E+03  d E =-.683426E-03
       N       E                     dE             d eps       ncg     rms          rms(c)
DAV:   1    -0.140194521800E+03    0.66629E-03   -0.84503E-01  2696   0.404E+00    0.128E-01
DAV:   2    -0.140196313184E+03   -0.17914E-02   -0.19889E-02  2904   0.577E-01    0.750E-02
DAV:   3    -0.140196209537E+03    0.10365E-03   -0.27797E-04  3264   0.788E-02    0.537E-02
DAV:   4    -0.140196129327E+03    0.80210E-04   -0.48669E-04  3080   0.112E-01    0.265E-02
DAV:   5    -0.140196122508E+03    0.68191E-05   -0.10640E-04  2872   0.531E-02    0.237E-02
DAV:   6    -0.140196113858E+03    0.86498E-05   -0.51551E-05  2696   0.337E-02
  28 F= -.14019611E+03 E0= -.14019475E+03  d E =-.161140E-02
       N       E                     dE             d eps       ncg     rms          rms(c)
DAV:   1    -0.140196541217E+03   -0.41871E-03   -0.60331E-02  2712   0.106E+00    0.354E-02
DAV:   2    -0.140196658667E+03   -0.11745E-03   -0.14061E-03  3032   0.151E-01    0.222E-02
DAV:   3    -0.140196646738E+03    0.11929E-04   -0.23167E-05  2224   0.267E-02    0.144E-02
DAV:   4    -0.140196637891E+03    0.88469E-05   -0.24574E-05  2488   0.310E-02    0.544E-03
DAV:   5    -0.140196636836E+03    0.10548E-05   -0.12242E-05  1688   0.188E-02    0.447E-03
DAV:   6    -0.140196635406E+03    0.14303E-05   -0.36111E-06  1632   0.119E-02
  29 F= -.14019664E+03 E0= -.14019527E+03  d E =-.521548E-03
       N       E                     dE             d eps       ncg     rms          rms(c)
DAV:   1    -0.140196701015E+03   -0.64178E-04   -0.12867E-01  2720   0.156E+00    0.508E-02
DAV:   2    -0.140196935881E+03   -0.23487E-03   -0.29941E-03  3032   0.226E-01    0.317E-02
DAV:   3    -0.140196905868E+03    0.30013E-04   -0.77247E-05  3080   0.477E-02    0.216E-02
DAV:   4    -0.140196876378E+03    0.29490E-04   -0.32345E-05  2640   0.410E-02    0.101E-02
DAV:   5    -0.140196856060E+03    0.20318E-04   -0.19385E-05  2224   0.489E-02    0.685E-03
DAV:   6    -0.140196844926E+03    0.11133E-04   -0.21135E-05  2160   0.404E-02    0.633E-03
DAV:   7    -0.140196829391E+03    0.15535E-04   -0.78198E-06  1864   0.475E-02    0.420E-03
DAV:   8    -0.140196808482E+03    0.20909E-04   -0.15847E-05  2144   0.689E-02    0.570E-03
DAV:   9    -0.140196794414E+03    0.14068E-04   -0.24385E-05  2392   0.540E-02    0.313E-03
DAV:  10    -0.140196776958E+03    0.17456E-04   -0.20247E-05  2456   0.101E-01    0.458E-03
DAV:  11    -0.140196778079E+03   -0.11209E-05   -0.53350E-05  2656   0.415E-02
  30 F= -.14019678E+03 E0= -.14019541E+03  d E =-.664221E-03
       N       E                     dE             d eps       ncg     rms          rms(c)
DAV:   1    -0.140196800437E+03   -0.23479E-04   -0.89048E-03  2784   0.409E-01    0.141E-02
DAV:   2    -0.140196814973E+03   -0.14536E-04   -0.20199E-04  3016   0.602E-02    0.817E-03
DAV:   3    -0.140196812956E+03    0.20171E-05   -0.77147E-06  1704   0.164E-02    0.534E-03
DAV:   4    -0.140196811167E+03    0.17895E-05   -0.20713E-06  1680   0.116E-02    0.290E-03
DAV:   5    -0.140196809393E+03    0.17740E-05   -0.17530E-06  1720   0.170E-02    0.165E-03
DAV:   6    -0.140196808632E+03    0.76045E-06   -0.26660E-06  1648   0.152E-02
  31 F= -.14019681E+03 E0= -.14019544E+03  d E =-.694774E-03
       N       E                     dE             d eps       ncg     rms          rms(c)
DAV:   1    -0.140197087352E+03   -0.27796E-03   -0.70841E-02  2688   0.114E+00    0.335E-02
DAV:   2    -0.140197214592E+03   -0.12724E-03   -0.15032E-03  3072   0.158E-01    0.203E-02
DAV:   3    -0.140197205131E+03    0.94609E-05   -0.32801E-05  2576   0.271E-02    0.146E-02
DAV:   4    -0.140197198898E+03    0.62335E-05   -0.15771E-05  1736   0.204E-02    0.681E-03
DAV:   5    -0.140197196627E+03    0.22702E-05   -0.96727E-06  1736   0.191E-02    0.490E-03
DAV:   6    -0.140197196233E+03    0.39442E-06   -0.48682E-06  1656   0.126E-02
  32 F= -.14019720E+03 E0= -.14019583E+03  d E =-.387601E-03
       N       E                     dE             d eps       ncg     rms          rms(c)
DAV:   1    -0.140197030568E+03    0.16606E-03   -0.31526E-01  2696   0.240E+00    0.720E-02
DAV:   2    -0.140197606784E+03   -0.57622E-03   -0.67990E-03  3064   0.336E-01    0.428E-02
DAV:   3    -0.140197563596E+03    0.43188E-04   -0.14839E-04  3088   0.576E-02    0.312E-02
DAV:   4    -0.140197535890E+03    0.27706E-04   -0.81047E-05  2920   0.424E-02    0.145E-02
DAV:   5    -0.140197523425E+03    0.12465E-04   -0.29158E-05  2656   0.378E-02    0.101E-02
DAV:   6    -0.140197519866E+03    0.35592E-05   -0.21656E-05  2056   0.319E-02
  33 F= -.14019752E+03 E0= -.14019614E+03  d E =-.711234E-03
       N       E                     dE             d eps       ncg     rms          rms(c)
DAV:   1    -0.140197714704E+03   -0.19128E-03   -0.96110E-02  2776   0.130E+00    0.390E-02
DAV:   2    -0.140197898946E+03   -0.18424E-03   -0.20471E-03  3064   0.177E-01    0.236E-02
DAV:   3    -0.140197883513E+03    0.15432E-04   -0.25437E-05  2256   0.292E-02    0.155E-02
DAV:   4    -0.140197871802E+03    0.11711E-04   -0.33337E-05  2520   0.417E-02    0.548E-03
DAV:   5    -0.140197871615E+03    0.18788E-06   -0.22514E-05  2152   0.223E-02    0.599E-03
DAV:   6    -0.140197871608E+03    0.65274E-08   -0.26114E-06  1600   0.636E-03
  34 F= -.14019787E+03 E0= -.14019648E+03  d E =-.351742E-03
       N       E                     dE             d eps       ncg     rms          rms(c)
DAV:   1    -0.140197041915E+03    0.82970E-03   -0.74347E-01  2744   0.362E+00    0.105E-01
DAV:   2    -0.140198416676E+03   -0.13748E-02   -0.15546E-02  3048   0.490E-01    0.635E-02
DAV:   3    -0.140198284558E+03    0.13212E-03   -0.18242E-04  3144   0.828E-02    0.432E-02
DAV:   4    -0.140198153384E+03    0.13117E-03   -0.20356E-04  3400   0.125E-01    0.173E-02
DAV:   5    -0.140198123453E+03    0.29931E-04   -0.21451E-04  3080   0.857E-02    0.156E-02
DAV:   6    -0.140198119156E+03    0.42968E-05   -0.53671E-05  2632   0.302E-02
  35 F= -.14019812E+03 E0= -.14019671E+03  d E =-.599290E-03
       N       E                     dE             d eps       ncg     rms          rms(c)
DAV:   1    -0.140198074016E+03    0.49437E-04   -0.12457E-01  2696   0.152E+00    0.513E-02
DAV:   2    -0.140198302377E+03   -0.22836E-03   -0.28685E-03  3032   0.214E-01    0.297E-02
DAV:   3    -0.140198261074E+03    0.41303E-04   -0.26999E-05  2512   0.456E-02    0.205E-02
DAV:   4    -0.140198191297E+03    0.69777E-04   -0.74259E-05  3384   0.976E-02    0.820E-03
DAV:   5    -0.140198178494E+03    0.12804E-04   -0.77910E-05  2808   0.438E-02    0.110E-02
DAV:   6    -0.140198171132E+03    0.73620E-05   -0.94760E-06  1640   0.158E-02
  36 F= -.14019817E+03 E0= -.14019676E+03  d E =-.519756E-04
       N       E                     dE             d eps       ncg     rms          rms(c)
DAV:   1    -0.140198119088E+03    0.59405E-04   -0.17559E-03  2880   0.194E-01    0.198E-02
DAV:   2    -0.140198104225E+03    0.14863E-04   -0.12490E-04  2760   0.651E-02    0.969E-03
DAV:   3    -0.140198094072E+03    0.10152E-04   -0.28902E-05  2312   0.285E-02    0.616E-03
DAV:   4    -0.140198081263E+03    0.12809E-04   -0.17971E-06  1656   0.204E-02    0.467E-03
DAV:   5    -0.140198014911E+03    0.66353E-04   -0.56679E-05  2920   0.120E-01    0.925E-03
DAV:   6    -0.140197961518E+03    0.53393E-04   -0.13746E-04  3504   0.179E-01    0.787E-03
DAV:   7    -0.140197967685E+03   -0.61679E-05   -0.20355E-04  2792   0.101E-01    0.183E-02
DAV:   8    -0.140197969305E+03   -0.16191E-05   -0.73938E-05  2448   0.327E-02
  37 F= -.14019797E+03 E0= -.14019655E+03  d E =0.149851E-03
       N       E                     dE             d eps       ncg     rms          rms(c)
DAV:   1    -0.140197976576E+03   -0.88906E-05   -0.12099E-03  2896   0.149E-01    0.146E-02
DAV:   2    -0.140197974484E+03    0.20924E-05   -0.49956E-05  2776   0.350E-02    0.434E-03
DAV:   3    -0.140197974356E+03    0.12726E-06   -0.63202E-06  1576   0.115E-02    0.283E-03
DAV:   4    -0.140197973964E+03    0.39289E-06   -0.10397E-06  1552   0.510E-03    0.135E-03
DAV:   5    -0.140197973713E+03    0.25041E-06   -0.68145E-07  1608   0.566E-03    0.109E-03
DAV:   6    -0.140197973661E+03    0.51889E-07   -0.46121E-07  1552   0.354E-03
  38 F= -.14019797E+03 E0= -.14019655E+03  d E =0.145495E-03
       N       E                     dE             d eps       ncg     rms          rms(c)
DAV:   1    -0.140197975545E+03   -0.18319E-05   -0.35837E-05  2312   0.259E-02    0.128E-03
DAV:   2    -0.140197975605E+03   -0.60488E-07   -0.95049E-07  1440   0.406E-03    0.455E-04
DAV:   3    -0.140197975591E+03    0.14635E-07   -0.71488E-08  1440   0.159E-03    0.325E-04
DAV:   4    -0.140197975571E+03    0.19495E-07   -0.26246E-08  1440   0.153E-03    0.218E-04
DAV:   5    -0.140197975556E+03    0.15035E-07   -0.42259E-08  1464   0.239E-03    0.143E-04
DAV:   6    -0.140197975556E+03    0.51114E-09   -0.69052E-08  1424   0.133E-03
  39 F= -.14019798E+03 E0= -.14019655E+03  d E =0.143600E-03
       N       E                     dE             d eps       ncg     rms          rms(c)
DAV:   1    -0.140197975983E+03   -0.42632E-06   -0.17373E-06  1408   0.584E-03    0.313E-04
DAV:   2    -0.140197975992E+03   -0.92214E-08   -0.11119E-07  1400   0.164E-03    0.126E-04
DAV:   3    -0.140197975993E+03   -0.11851E-08   -0.14951E-08  1392   0.501E-04    0.780E-05
DAV:   4    -0.140197975992E+03    0.81491E-09   -0.31438E-09  1392   0.233E-04    0.628E-05
DAV:   5    -0.140197975993E+03   -0.51023E-09   -0.13453E-09  1392   0.290E-04    0.382E-05
DAV:   6    -0.140197975994E+03   -0.11860E-08   -0.16169E-09  1392   0.467E-04
  40 F= -.14019798E+03 E0= -.14019655E+03  d E =0.143162E-03
       N       E                     dE             d eps       ncg     rms          rms(c)
DAV:   1    -0.140197976094E+03   -0.10088E-06   -0.96994E-08  1392   0.138E-03    0.959E-05
DAV:   2    -0.140197976093E+03    0.28194E-09   -0.85541E-09  1392   0.434E-04    0.290E-05
DAV:   3    -0.140197976094E+03   -0.10295E-08   -0.13092E-09  1392   0.150E-04    0.287E-05
DAV:   4    -0.140197976094E+03   -0.13642E-09   -0.34653E-10  1392   0.774E-05    0.224E-05
DAV:   5    -0.140197976094E+03    0.37471E-09   -0.25836E-10  1392   0.143E-04    0.184E-05
DAV:   6    -0.140197976094E+03   -0.79126E-10   -0.22478E-10  1392   0.138E-04
  41 F= -.14019798E+03 E0= -.14019655E+03  d E =0.143062E-03
       N       E                     dE             d eps       ncg     rms          rms(c)
DAV:   1    -0.140197976118E+03   -0.24016E-07   -0.57090E-09  1392   0.478E-04    0.290E-05
DAV:   2    -0.140197976118E+03    0.19554E-09   -0.19612E-09  1384   0.180E-04    0.357E-05
DAV:   3    -0.140197976119E+03   -0.84401E-09   -0.23306E-10  1392   0.575E-05    0.285E-05
DAV:   4    -0.140197976119E+03   -0.28831E-09   -0.13498E-10  1384   0.494E-05    0.756E-06
DAV:   5    -0.140197976118E+03    0.81945E-09   -0.75326E-11  1392   0.475E-05    0.159E-05
DAV:   6    -0.140197976118E+03    0.42110E-09   -0.27072E-11  1392   0.290E-05
  42 F= -.14019798E+03 E0= -.14019655E+03  d E =0.143038E-03
       N       E                     dE             d eps       ncg     rms          rms(c)
DAV:   1    -0.140197976123E+03   -0.52632E-08   -0.31846E-10  1392   0.817E-05    0.115E-05
DAV:   2    -0.140197976124E+03   -0.19099E-09   -0.61253E-11  1392   0.428E-05    0.474E-06
DAV:   3    -0.140197976124E+03   -0.22465E-09   -0.19486E-11  1384   0.267E-05    0.497E-06
DAV:   4    -0.140197976124E+03    0.50022E-10   -0.49769E-12  1368   0.174E-05    0.447E-06
DAV:   5    -0.140197976124E+03    0.11278E-09   -0.30233E-11  1368   0.874E-05    0.890E-06
DAV:   6    -0.140197976124E+03   -0.24193E-09   -0.84340E-11  1368   0.136E-04
  43 F= -.14019798E+03 E0= -.14019655E+03  d E =0.143032E-03
       N       E                     dE             d eps       ncg     rms          rms(c)
DAV:   1    -0.140197976126E+03   -0.18254E-08   -0.21737E-10  1360   0.977E-05    0.650E-06
DAV:   2    -0.140197976126E+03   -0.49113E-10   -0.89160E-11  1368   0.334E-05    0.777E-06
DAV:   3    -0.140197976126E+03   -0.47203E-09   -0.12504E-11  1344   0.108E-05    0.670E-06
DAV:   4    -0.140197976126E+03    0.57844E-09   -0.36196E-12  1344   0.921E-06    0.358E-06
DAV:   5    -0.140197976125E+03    0.20464E-09   -0.12779E-11  1344   0.108E-05    0.434E-06
DAV:   6    -0.140197976126E+03   -0.32378E-09   -0.49745E-12  1344   0.526E-06
  44 F= -.14019798E+03 E0= -.14019655E+03  d E =0.143030E-03
       N       E                     dE             d eps       ncg     rms          rms(c)
DAV:   1    -0.140197976126E+03   -0.60027E-09   -0.73535E-12  1344   0.579E-06    0.215E-06
DAV:   2    -0.140197976126E+03    0.44565E-10   -0.24130E-12  1344   0.563E-06    0.482E-07
DAV:   3    -0.140197976126E+03    0.97316E-10   -0.24038E-12  1344   0.281E-06    0.541E-07
DAV:   4    -0.140197976126E+03   -0.24738E-09   -0.21704E-12  1344   0.115E-06    0.416E-07
DAV:   5    -0.140197976126E+03    0.27285E-11   -0.31337E-12  1344   0.146E-06    0.242E-07
DAV:   6    -0.140197976126E+03   -0.13370E-09    0.11967E-12  1344   0.541E-06
  45 F= -.14019798E+03 E0= -.14019655E+03  d E =0.143030E-03
       N       E                     dE             d eps       ncg     rms          rms(c)
DAV:   1    -0.140197976126E+03    0.24556E-10   -0.32491E-13  1344   0.383E-06    0.773E-07
DAV:   2    -0.140197976126E+03   -0.20009E-10   -0.61893E-12  1344   0.216E-06    0.325E-07
DAV:   3    -0.140197976126E+03    0.15734E-09   -0.32420E-12  1344   0.932E-07    0.194E-07
DAV:   4    -0.140197976126E+03   -0.19099E-10    0.80347E-14  1344   0.471E-07    0.132E-07
DAV:   5    -0.140197976126E+03    0.24738E-09   -0.15740E-13  1344   0.835E-07    0.110E-07
DAV:   6    -0.140197976126E+03   -0.36289E-09   -0.40247E-12  1344   0.222E-06
  46 F= -.14019798E+03 E0= -.14019655E+03  d E =0.143030E-03
       N       E                     dE             d eps       ncg     rms          rms(c)
DAV:   1    -0.140197976126E+03   -0.16098E-09   -0.13487E-12  1344   0.217E-06    0.202E-07
DAV:   2    -0.140197976126E+03   -0.34106E-09   -0.71186E-13  1344   0.933E-07    0.138E-07
DAV:   3    -0.140197976126E+03    0.36744E-09   -0.33317E-12  1344   0.339E-07    0.104E-07
DAV:   4    -0.140197976126E+03   -0.28649E-09   -0.37822E-12  1344   0.196E-07    0.539E-08
DAV:   5    -0.140197976126E+03   -0.18736E-09   -0.10478E-12  1344   0.485E-07    0.691E-08
DAV:   6    -0.140197976126E+03    0.34015E-09    0.23291E-12  1344   0.409E-07
  47 F= -.14019798E+03 E0= -.14019655E+03  d E =0.143030E-03
       N       E                     dE             d eps       ncg     rms          rms(c)
DAV:   1    -0.140197740177E+03    0.23595E-03   -0.12481E-01  2704   0.152E+00    0.480E-02
DAV:   2    -0.140197996132E+03   -0.25595E-03   -0.28592E-03  3032   0.210E-01    0.289E-02
DAV:   3    -0.140197975485E+03    0.20647E-04   -0.31469E-05  2544   0.305E-02    0.194E-02
DAV:   4    -0.140197957402E+03    0.18083E-04   -0.53724E-05  2936   0.507E-02    0.634E-03
DAV:   5    -0.140197956768E+03    0.63358E-06   -0.29251E-05  2408   0.241E-02    0.733E-03
DAV:   6    -0.140197955695E+03    0.10729E-05   -0.23889E-06  1656   0.706E-03
  48 F= -.14019796E+03 E0= -.14019654E+03  d E =0.163461E-03
       N       E                     dE             d eps       ncg     rms          rms(c)
DAV:   1    -0.140198232523E+03   -0.27576E-03   -0.27252E-02  2688   0.651E-01    0.306E-02
DAV:   2    -0.140198289387E+03   -0.56864E-04   -0.81475E-04  3024   0.102E-01    0.194E-02
DAV:   3    -0.140198277976E+03    0.11411E-04   -0.17674E-05  2064   0.252E-02    0.129E-02
DAV:   4    -0.140198266269E+03    0.11708E-04   -0.20436E-05  2408   0.322E-02    0.464E-03
DAV:   5    -0.140198263294E+03    0.29746E-05   -0.10664E-05  1944   0.213E-02    0.413E-03
DAV:   6    -0.140198260140E+03    0.31539E-05   -0.43351E-06  1656   0.186E-02
  49 F= -.14019826E+03 E0= -.14019684E+03  d E =-.304445E-03
       N       E                     dE             d eps       ncg     rms          rms(c)
DAV:   1    -0.140198289845E+03   -0.26551E-04   -0.11734E-02  2752   0.436E-01    0.202E-02
DAV:   2    -0.140198315242E+03   -0.25397E-04   -0.37999E-04  3032   0.741E-02    0.141E-02
DAV:   3    -0.140198308596E+03    0.66460E-05   -0.10821E-05  1744   0.196E-02    0.931E-03
DAV:   4    -0.140198300363E+03    0.82329E-05   -0.10081E-05  1968   0.245E-02    0.374E-03
DAV:   5    -0.140198296824E+03    0.35395E-05   -0.52202E-06  1672   0.204E-02    0.318E-03
DAV:   6    -0.140198292655E+03    0.41690E-05   -0.30104E-06  1728   0.246E-02
  50 F= -.14019829E+03 E0= -.14019687E+03  d E =-.336959E-03
       N       E                     dE             d eps       ncg     rms          rms(c)
DAV:   1    -0.140198444611E+03   -0.14779E-03   -0.24775E-03  2848   0.218E-01    0.890E-03
DAV:   2    -0.140198446421E+03   -0.18096E-05   -0.99349E-05  2880   0.466E-02    0.926E-03
DAV:   3    -0.140198442401E+03    0.40193E-05   -0.58229E-06  1680   0.132E-02    0.716E-03
DAV:   4    -0.140198434251E+03    0.81502E-05   -0.43269E-06  1656   0.179E-02    0.376E-03
DAV:   5    -0.140198424195E+03    0.10056E-04   -0.63554E-06  1696   0.297E-02    0.450E-03
DAV:   6    -0.140198418388E+03    0.58071E-05   -0.78665E-06  1760   0.250E-02
  51 F= -.14019842E+03 E0= -.14019699E+03  d E =-.125733E-03
       N       E                     dE             d eps       ncg     rms          rms(c)
DAV:   1    -0.140198507196E+03   -0.83001E-04   -0.71887E-03  2848   0.374E-01    0.149E-02
DAV:   2    -0.140198519739E+03   -0.12542E-04   -0.30844E-04  3064   0.781E-02    0.162E-02
DAV:   3    -0.140198509766E+03    0.99725E-05   -0.13073E-05  1696   0.191E-02    0.122E-02
DAV:   4    -0.140198488440E+03    0.21326E-04   -0.18714E-05  2000   0.303E-02    0.579E-03
DAV:   5    -0.140198473779E+03    0.14661E-04   -0.86622E-06  1680   0.310E-02    0.588E-03
DAV:   6    -0.140198456194E+03    0.17586E-04   -0.12284E-05  1992   0.440E-02    0.355E-03
DAV:   7    -0.140198418190E+03    0.38003E-04   -0.29385E-05  2504   0.104E-01    0.689E-03
DAV:   8    -0.140198389536E+03    0.28654E-04   -0.64346E-05  3008   0.105E-01    0.476E-03
DAV:   9    -0.140198382762E+03    0.67746E-05   -0.57963E-05  2680   0.627E-02
  52 F= -.14019838E+03 E0= -.14019695E+03  d E =-.901069E-04
       N       E                     dE             d eps       ncg     rms          rms(c)
DAV:   1    -0.140198416816E+03   -0.27279E-04   -0.94644E-04  2904   0.140E-01    0.700E-03
DAV:   2    -0.140198420863E+03   -0.40478E-05   -0.70347E-05  2704   0.318E-02    0.875E-03
DAV:   3    -0.140198419102E+03    0.17619E-05   -0.13096E-06  1632   0.893E-03    0.667E-03
DAV:   4    -0.140198416072E+03    0.30295E-05   -0.51547E-06  1640   0.229E-02    0.222E-03
DAV:   5    -0.140198415773E+03    0.29944E-06   -0.75740E-06  1624   0.154E-02    0.286E-03
DAV:   6    -0.140198415439E+03    0.33377E-06   -0.16261E-06  1600   0.578E-03
  53 F= -.14019842E+03 E0= -.14019699E+03  d E =-.122784E-03
       N       E                     dE             d eps       ncg     rms          rms(c)
DAV:   1    -0.140198429325E+03   -0.13552E-04   -0.75770E-04  2816   0.119E-01    0.535E-03
DAV:   2    -0.140198428773E+03    0.55177E-06   -0.22991E-05  2224   0.251E-02    0.359E-03
DAV:   3    -0.140198427532E+03    0.12409E-05   -0.35016E-06  1664   0.111E-02    0.307E-03
DAV:   4    -0.140198426293E+03    0.12386E-05   -0.71152E-07  1584   0.679E-03    0.229E-03
DAV:   5    -0.140198421315E+03    0.49787E-05   -0.26808E-06  1648   0.255E-02    0.246E-03
DAV:   6    -0.140198420243E+03    0.10717E-05   -0.42407E-06  1640   0.115E-02
  54 F= -.14019842E+03 E0= -.14019699E+03  d E =-.127588E-03
       N       E                     dE             d eps       ncg     rms          rms(c)
DAV:   1    -0.140198457453E+03   -0.36138E-04   -0.33349E-03  2704   0.237E-01    0.104E-02
DAV:   2    -0.140198463435E+03   -0.59820E-05   -0.94350E-05  2848   0.361E-02    0.699E-03
DAV:   3    -0.140198461401E+03    0.20336E-05   -0.16114E-06  1656   0.104E-02    0.479E-03
DAV:   4    -0.140198458021E+03    0.33805E-05   -0.28808E-06  1664   0.204E-02    0.160E-03
DAV:   5    -0.140198457050E+03    0.97042E-06   -0.32936E-06  1632   0.118E-02    0.173E-03
DAV:   6    -0.140198455366E+03    0.16845E-05   -0.70289E-07  1648   0.126E-02
  55 F= -.14019846E+03 E0= -.14019703E+03  d E =-.351227E-04
