 vasp.5.3.5 31Mar14 (build Apr 08 2024 10:12:10) complex                        
  
 executed on             LinuxIFC date 2024.07.31  09:44:47
 running on    8 total cores
 distrk:  each k-point on    8 cores,    1 groups
 distr:  one band on NCORES_PER_BAND=   4 cores,    2 groups


--------------------------------------------------------------------------------------------------------


 INCAR:
 POTCAR:    PAW_PBE O 08Apr2002                   
 POTCAR:    PAW_PBE Mg 13Apr2007                  
 POTCAR:    PAW_PBE Al 04Jan2001                  
 POTCAR:    PAW_PBE O 08Apr2002                   
   VRHFIN =O: s2p4                                                              
   LEXCH  = PE                                                                  
   EATOM  =   432.3788 eV,   31.7789 Ry                                         
                                                                                
   TITEL  = PAW_PBE O 08Apr2002                                                 
   LULTRA =        F    use ultrasoft PP ?                                      
   IUNSCR =        1    unscreen: 0-lin 1-nonlin 2-no                           
   RPACOR =    1.200    partial core radius                                     
   POMASS =   16.000; ZVAL   =    6.000    mass and valenz                      
   RCORE  =    1.520    outmost cutoff radius                                   
   RWIGS  =    1.550; RWIGS  =    0.820    wigner-seitz radius (au A)           
   ENMAX  =  400.000; ENMIN  =  300.000 eV                                      
   ICORE  =        2    local potential                                         
   LCOR   =        T    correct aug charges                                     
   LPAW   =        T    paw PP                                                  
   EAUG   =  605.392                                                            
   DEXC   =    0.000                                                            
   RMAX   =    1.553    core radius for proj-oper                               
   RAUG   =    1.300    factor for augmentation sphere                          
   RDEP   =    1.550    radius for radial grids                                 
   RDEPT  =    1.329    core radius for aug-charge                              
                                                                                
   Atomic configuration                                                         
    4 entries                                                                   
     n  l   j            E        occ.                                          
     1  0  0.50      -514.6923   2.0000                                         
     2  0  0.50       -23.9615   2.0000                                         
     2  1  0.50        -9.0305   4.0000                                         
     3  2  1.50        -9.5241   0.0000                                         
   Description                                                                  
     l       E           TYP  RCUT    TYP  RCUT                                 
     0    -23.9615318     23  1.200                                             
     0     -9.5240782     23  1.200                                             
     1     -9.0304911     23  1.520                                             
     1      8.1634956     23  1.520                                             
     2     -9.5240782      7  1.500                                             
  local pseudopotential read in
  partial core-charges read in
  partial kinetic energy density read in
  kinetic energy density of atom read in
  atomic valenz-charges read in
  non local Contribution for L=           0  read in
    real space projection operators read in
  non local Contribution for L=           0  read in
    real space projection operators read in
  non local Contribution for L=           1  read in
    real space projection operators read in
  non local Contribution for L=           1  read in
    real space projection operators read in
    PAW grid and wavefunctions read in
 
   number of l-projection  operators is LMAX  =           4
   number of lm-projection operators is LMMAX =           8
 
 POTCAR:    PAW_PBE Mg 13Apr2007                  
   VRHFIN =Mg: s2p0                                                             
   LEXCH  = PE                                                                  
   EATOM  =    23.0369 eV,    1.6932 Ry                                         
                                                                                
   TITEL  = PAW_PBE Mg 13Apr2007                                                
   LULTRA =        F    use ultrasoft PP ?                                      
   IUNSCR =        1    unscreen: 0-lin 1-nonlin 2-no                           
   RPACOR =    1.500    partial core radius                                     
   POMASS =   24.305; ZVAL   =    2.000    mass and valenz                      
   RCORE  =    2.000    outmost cutoff radius                                   
   RWIGS  =    2.880; RWIGS  =    1.524    wigner-seitz radius (au A)           
   ENMAX  =  200.000; ENMIN  =  100.000 eV                                      
   RCLOC  =    1.506    cutoff for local pot                                    
   LCOR   =        T    correct aug charges                                     
   LPAW   =        T    paw PP                                                  
   EAUG   =  454.734                                                            
   DEXC   =    0.000                                                            
   RMAX   =    2.045    core radius for proj-oper                               
   RAUG   =    1.300    factor for augmentation sphere                          
   RDEP   =    2.025    radius for radial grids                                 
   RDEPT  =    1.942    core radius for aug-charge                              
                                                                                
   Atomic configuration                                                         
    6 entries                                                                   
     n  l   j            E        occ.                                          
     1  0  0.50     -1259.6230   2.0000                                         
     2  0  0.50       -79.8442   2.0000                                         
     2  1  1.50       -46.6121   6.0000                                         
     3  0  0.50        -4.7055   2.0000                                         
     3  1  0.50        -1.3660   0.0000                                         
     3  2  1.50        -1.3606   0.0000                                         
   Description                                                                  
     l       E           TYP  RCUT    TYP  RCUT                                 
     0     -4.7054661     23  2.000                                             
     0     27.2116520     23  2.000                                             
     1      1.3605826     23  2.000                                             
     1     27.2116520     23  2.000                                             
     2     -1.3605826     23  2.000                                             
  local pseudopotential read in
  partial core-charges read in
  partial kinetic energy density read in
  atomic valenz-charges read in
  non local Contribution for L=           0  read in
    real space projection operators read in
  non local Contribution for L=           0  read in
    real space projection operators read in
  non local Contribution for L=           1  read in
    real space projection operators read in
  non local Contribution for L=           1  read in
    real space projection operators read in
  non local Contribution for L=           2  read in
    real space projection operators read in
    PAW grid and wavefunctions read in
 
   number of l-projection  operators is LMAX  =           5
   number of lm-projection operators is LMMAX =          13
 
 POTCAR:    PAW_PBE Al 04Jan2001                  
   VRHFIN =Al: s2p1                                                             
   LEXCH  = PE                                                                  
   EATOM  =    53.5387 eV,    3.9350 Ry                                         
                                                                                
   TITEL  = PAW_PBE Al 04Jan2001                                                
   LULTRA =        F    use ultrasoft PP ?                                      
   IUNSCR =        1    unscreen: 0-lin 1-nonlin 2-no                           
   RPACOR =    1.500    partial core radius                                     
   POMASS =   26.981; ZVAL   =    3.000    mass and valenz                      
   RCORE  =    1.900    outmost cutoff radius                                   
   RWIGS  =    2.650; RWIGS  =    1.402    wigner-seitz radius (au A)           
   ENMAX  =  240.300; ENMIN  =  180.225 eV                                      
   ICORE  =        2    local potential                                         
   LCOR   =        T    correct aug charges                                     
   LPAW   =        T    paw PP                                                  
   EAUG   =  291.052                                                            
   DEXC   =    0.000                                                            
   RMAX   =    1.939    core radius for proj-oper                               
   RAUG   =    1.300    factor for augmentation sphere                          
   RDEP   =    1.966    radius for radial grids                                 
   RDEPT  =    1.856    core radius for aug-charge                              
                                                                                
   Atomic configuration                                                         
    6 entries                                                                   
     n  l   j            E        occ.                                          
     1  0  0.50     -1511.1048   2.0000                                         
     2  0  0.50      -108.1629   2.0000                                         
     2  1  1.50       -69.6402   6.0000                                         
     3  0  0.50        -7.7528   2.0000                                         
     3  1  1.50        -2.7121   1.0000                                         
     3  2  2.50        -2.7212   0.0000                                         
   Description                                                                  
     l       E           TYP  RCUT    TYP  RCUT                                 
     0     -7.7528455     23  1.900                                             
     0     -3.3096929     23  1.900                                             
     1     -2.7120682     23  1.900                                             
     1     13.6058260     23  1.900                                             
     2     -2.7211652      7  1.900                                             
  local pseudopotential read in
  partial core-charges read in
  partial kinetic energy density read in
  atomic valenz-charges read in
  non local Contribution for L=           0  read in
    real space projection operators read in
  non local Contribution for L=           0  read in
    real space projection operators read in
  non local Contribution for L=           1  read in
    real space projection operators read in
  non local Contribution for L=           1  read in
    real space projection operators read in
    PAW grid and wavefunctions read in
 
   number of l-projection  operators is LMAX  =           4
   number of lm-projection operators is LMMAX =           8
 

 ----------------------------------------------------------------------------- 
|                                                                             |
|  ADVICE TO THIS USER RUNNING 'VASP/VAMP'   (HEAR YOUR MASTER'S VOICE ...):  |
|                                                                             |
|      You have a (more or less) 'large supercell' and for larger cells       |
|      it might be more efficient to use real space projection opertators     |
|      So try LREAL= Auto  in the INCAR   file.                               |
|      Mind: At the moment your POTCAR file does not contain real space       |
|       projectors, and has to be modified,  BUT if you                       |
|      want to do an extremely  accurate calculation you might also keep the  |
|      reciprocal projection scheme          (i.e. LREAL=.FALSE.)             |
|                                                                             |
 ----------------------------------------------------------------------------- 

  PAW_PBE O 08Apr2002                   :
 energy of atom  1       EATOM= -432.3788
 kinetic energy error for atom=    0.0208 (will be added to EATOM!!)
  PAW_PBE Mg 13Apr2007                  :
 energy of atom  2       EATOM=  -23.0369
 kinetic energy error for atom=    0.0000 (will be added to EATOM!!)
  PAW_PBE Al 04Jan2001                  :
 energy of atom  3       EATOM=  -53.5387
 kinetic energy error for atom=    0.0002 (will be added to EATOM!!)
 
 
 POSCAR: Layer                                   
  positions in direct lattice
  velocities in cartesian coordinates
 exchange correlation table for  LEXCH =        8
   RHO(1)=    0.500       N(1)  =     2000
   RHO(2)=  100.500       N(2)  =     4000
 


--------------------------------------------------------------------------------------------------------


 ion  position               nearest neighbor table
   1  0.000  0.000  0.273-  21 1.74  14 2.07  14 2.07  14 2.07
   2  0.333  0.667  0.328-  11 2.13  11 2.13  11 2.13  14 2.14  14 2.14  14 2.14
   3  0.000  0.000  0.441-  15 2.13  15 2.13  15 2.13  17 2.13  17 2.13  17 2.13
   4  0.333  0.667  0.498-  12 2.13  12 2.13  12 2.13  15 2.14  15 2.14  15 2.14
   5  0.000  0.000  0.611-  18 2.13  18 2.13  18 2.13  16 2.13  16 2.13  16 2.13
   6  0.333  0.667  0.668-  16 2.13  16 2.13  16 2.13  13 2.13  13 2.13  13 2.13
   7  0.000  0.000  0.779-  24 1.74  19 2.07  19 2.07  19 2.07
   8  0.667  0.333  0.384-  17 2.13  17 2.13  17 2.13  11 2.13  11 2.13  11 2.13
   9  0.667  0.333  0.554-  12 2.13  12 2.13  12 2.13  18 2.14  18 2.14  18 2.14
  10  0.667  0.333  0.724-  13 2.13  13 2.13  13 2.13  19 2.14  19 2.14  19 2.14
  11  0.000  0.000  0.356-   2 2.13   2 2.13   2 2.13   8 2.13   8 2.13   8 2.13  17 3.03  17 3.03
                            17 3.03  14 3.04  14 3.04  14 3.04
  12  0.000  0.000  0.526-   9 2.13   9 2.13   9 2.13   4 2.13   4 2.13   4 2.13  18 3.04  18 3.04
                            18 3.04  15 3.04  15 3.04  15 3.04
  13  0.000  0.000  0.696-  10 2.13  10 2.13  10 2.13   6 2.13   6 2.13   6 2.13  16 3.03  16 3.03
                            16 3.03  19 3.04  19 3.04  19 3.04
  14  0.667  0.333  0.299-   1 2.07   1 2.07   1 2.07   2 2.14   2 2.14   2 2.14  11 3.04  11 3.04
                            11 3.04  21 3.36  21 3.36  21 3.36
  15  0.667  0.333  0.469-   3 2.13   3 2.13   3 2.13   4 2.14   4 2.14   4 2.14  17 3.03  17 3.03
                            17 3.03  12 3.04  12 3.04  12 3.04
  16  0.667  0.333  0.639-   6 2.13   6 2.13   6 2.13   5 2.13   5 2.13   5 2.13  13 3.03  13 3.03
                            13 3.03  18 3.03  18 3.03  18 3.03
  17  0.333  0.667  0.413-   8 2.13   8 2.13   8 2.13   3 2.13   3 2.13   3 2.13  11 3.03  11 3.03
                            11 3.03  15 3.03  15 3.03  15 3.03
  18  0.333  0.667  0.583-   5 2.13   5 2.13   5 2.13   9 2.14   9 2.14   9 2.14  16 3.03  16 3.03
                            16 3.03  12 3.04  12 3.04  12 3.04
  19  0.333  0.667  0.753-   7 2.07   7 2.07   7 2.07  10 2.14  10 2.14  10 2.14  13 3.04  13 3.04
                            13 3.04  24 3.36  24 3.36  24 3.36
  20  0.000  0.000  0.027-  25 2.87  25 2.87  25 2.87  23 2.87  23 2.87  23 2.87
  21  0.000  0.000  0.234-   1 1.74  22 2.81  22 2.81  22 2.81  14 3.36  14 3.36  14 3.36
  22  0.667  0.333  0.183-  21 2.81  21 2.81  21 2.81
  23  0.333  0.667  0.079-  20 2.87  20 2.87  20 2.87
  24  0.000  0.000  0.818-   7 1.74  26 2.81  26 2.81  26 2.81  19 3.36  19 3.36  19 3.36
  25  0.667  0.333  0.975-  20 2.87  20 2.87  20 2.87
  26  0.333  0.667  0.869-  24 2.81  24 2.81  24 2.81
 
  LATTYP: Found a hexagonal cell.
 ALAT       =     3.0027496481
 C/A-ratio  =    14.6327636063
  
  Lattice vectors:
  
 A1 = (   2.6004576727,  -1.5013744842,   0.0000000000)
 A2 = (   0.0000000000,   3.0027489684,   0.0000000000)
 A3 = (   0.0000000000,  -0.0000000000,  43.9385257697)


Analysis of symmetry for initial positions (statically):
=====================================================================
 Subroutine PRICEL returns:
 Original cell was already a primitive cell.
 

 Routine SETGRP: Setting up the symmetry group for a 
 hexagonal supercell.


 Subroutine GETGRP returns: Found  6 space group operations
 (whereof  6 operations were pure point group operations)
 out of a pool of 24 trial point group operations.


The static configuration has the point symmetry C_3v.


Analysis of symmetry for dynamics (positions and initial velocities):
=====================================================================
 Subroutine PRICEL returns:
 Original cell was already a primitive cell.
 

 Routine SETGRP: Setting up the symmetry group for a 
 hexagonal supercell.


 Subroutine GETGRP returns: Found  6 space group operations
 (whereof  6 operations were pure point group operations)
 out of a pool of 24 trial point group operations.


The dynamic configuration has the point symmetry C_3v.


Analysis of constrained symmetry for selective dynamics:
=====================================================================
 Subroutine PRICEL returns:
 Original cell was already a primitive cell.
 

 Routine SETGRP: Setting up the symmetry group for a 
 hexagonal supercell.


 Subroutine GETGRP returns: Found  6 space group operations
 (whereof  6 operations were pure point group operations)
 out of a pool of 24 trial point group operations.


The constrained configuration has the point symmetry C_3v.
 
 
 KPOINTS: K-Spacing Value to Generate K-Mesh: 0.02

Automatic generation of k-mesh.
Space group operators:
 irot       det(A)        alpha          n_x          n_y          n_z        tau_x        tau_y        tau_z
    1     1.000000     0.000001     1.000000     0.000000     0.000000     0.000000     0.000000     0.000000
    2     1.000000   120.000000    -0.000000    -0.000000    -1.000000     0.000000     0.000000     0.000000
    3     1.000000   120.000000     0.000000    -0.000000     1.000000     0.000000     0.000000     0.000000
    4    -1.000000   180.000000    -0.866025     0.500000     0.000000     0.000000     0.000000     0.000000
    5    -1.000000   180.000000     0.000000     1.000000     0.000000     0.000000     0.000000     0.000000
    6    -1.000000   180.000000    -0.866025    -0.500000     0.000000     0.000000     0.000000     0.000000
 
 Subroutine IBZKPT returns following result:
 ===========================================
 
 Found     21 irreducible k-points:
 
 Following reciprocal coordinates:
            Coordinates               Weight
  0.000000  0.000000  0.000000      1.000000
  0.076923  0.000000  0.000000      6.000000
  0.153846  0.000000  0.000000      6.000000
  0.230769  0.000000  0.000000      6.000000
  0.307692  0.000000  0.000000      6.000000
  0.384615  0.000000  0.000000      6.000000
  0.461538  0.000000  0.000000      6.000000
  0.076923  0.076923  0.000000      6.000000
  0.153846  0.076923 -0.000000     12.000000
  0.230769  0.076923  0.000000     12.000000
  0.307692  0.076923 -0.000000     12.000000
  0.384615  0.076923  0.000000     12.000000
  0.461538  0.076923 -0.000000      6.000000
  0.153846  0.153846  0.000000      6.000000
  0.230769  0.153846  0.000000     12.000000
  0.307692  0.153846  0.000000     12.000000
  0.384615  0.153846 -0.000000     12.000000
  0.230769  0.230769  0.000000      6.000000
  0.307692  0.230769  0.000000     12.000000
  0.384615  0.230769  0.000000      6.000000
  0.307692  0.307692 -0.000000      6.000000
 
 Following cartesian coordinates:
            Coordinates               Weight
  0.000000  0.000000  0.000000      1.000000
  0.029581  0.000000 -0.000000      6.000000
  0.059161  0.000000 -0.000000      6.000000
  0.088742  0.000000 -0.000000      6.000000
  0.118322  0.000000 -0.000000      6.000000
  0.147903  0.000000 -0.000000      6.000000
  0.177484  0.000000 -0.000000      6.000000
  0.044371  0.025618 -0.000000      6.000000
  0.073951  0.025618 -0.000000     12.000000
  0.103532  0.025618 -0.000000     12.000000
  0.133113  0.025618 -0.000000     12.000000
  0.162693  0.025618 -0.000000     12.000000
  0.192274  0.025618 -0.000000      6.000000
  0.088742  0.051235 -0.000000      6.000000
  0.118322  0.051235 -0.000000     12.000000
  0.147903  0.051235 -0.000000     12.000000
  0.177484  0.051235 -0.000000     12.000000
  0.133113  0.076853 -0.000000      6.000000
  0.162693  0.076853 -0.000000     12.000000
  0.192274  0.076853 -0.000000      6.000000
  0.177484  0.102470 -0.000000      6.000000
 


--------------------------------------------------------------------------------------------------------




 Dimension of arrays:
   k-points           NKPTS =     21   k-points in BZ     NKDIM =     21   number of bands    NBANDS=     64
   number of dos      NEDOS =    301   number of ions     NIONS =     26
   non local maximal  LDIM  =      5   non local SUM 2l+1 LMDIM =     13
   total plane-waves  NPLWV = 193536
   max r-space proj   IRMAX =      1   max aug-charges    IRDMAX= 191876
   dimension x,y,z NGX =    24 NGY =   24 NGZ =  336
   dimension x,y,z NGXF=    48 NGYF=   48 NGZF=  672
   support grid    NGXF=    96 NGYF=   96 NGZF= 1344
   ions per type =              10   9   7
 NGX,Y,Z   is equivalent  to a cutoff of  13.29, 13.29, 12.71 a.u.
 NGXF,Y,Z  is equivalent  to a cutoff of  26.57, 26.57, 25.43 a.u.


 I would recommend the setting:
   dimension x,y,z NGX =    22 NGY =   22 NGZ =  327
 SYSTEM =  unknown system                          
 POSCAR =  Layer                                   

 Startparameter for this run:
   NWRITE =      2    write-flag & timer
   PREC   = accura    normal or accurate (medium, high low for compatibility)
   ISTART =      0    job   : 0-new  1-cont  2-samecut
   ICHARG =      2    charge: 1-file 2-atom 10-const
   ISPIN  =      1    spin polarized calculation?
   LNONCOLLINEAR =      F non collinear calculations
   LSORBIT =      F    spin-orbit coupling
   INIWAV =      1    electr: 0-lowe 1-rand  2-diag
   LASPH  =      F    aspherical Exc in radial PAW
   METAGGA=      F    non-selfconsistent MetaGGA calc.

 Electronic Relaxation 1
   ENCUT  =  520.0 eV  38.22 Ry    6.18 a.u.   5.58  5.58 81.70*2*pi/ulx,y,z
   ENINI  =  520.0     initial cutoff
   ENAUG  =  605.4 eV  augmentation charge cutoff
   NELM   =    100;   NELMIN=  6; NELMDL=  0     # of ELM steps 
   EDIFF  = 0.1E-04   stopping-criterion for ELM
   LREAL  =      F    real-space projection
   NLSPLINE    = F    spline interpolate recip. space projectors
   LCOMPAT=      F    compatible to vasp.4.4
   GGA_COMPAT  = T    GGA compatible to vasp.4.4-vasp.4.6
   LMAXPAW     = -100 max onsite density
   LMAXMIX     =    2 max onsite mixed and CHGCAR
   VOSKOWN=      0    Vosko Wilk Nusair interpolation
   ROPT   =    0.00000   0.00000   0.00000
 Ionic relaxation
   EDIFFG = -.2E-01   stopping-criterion for IOM
   NSW    =    500    number of steps for IOM
   NBLOCK =      1;   KBLOCK =    500    inner block; outer block 
   IBRION =      2    ionic relax: 0-MD 1-quasi-New 2-CG
   NFREE  =      1    steps in history (QN), initial steepest desc. (CG)
   ISIF   =      2    stress and relaxation
   IWAVPR =     11    prediction:  0-non 1-charg 2-wave 3-comb
   ISYM   =      2    0-nonsym 1-usesym 2-fastsym
   LCORR  =      T    Harris-Foulkes like correction to forces

   POTIM  = 0.5000    time-step for ionic-motion
   TEIN   =    0.0    initial temperature
   TEBEG  =    0.0;   TEEND  =   0.0 temperature during run
   SMASS  =  -3.00    Nose mass-parameter (am)
   estimated Nose-frequenzy (Omega)   =  0.10E-29 period in steps =****** mass=  -0.206E-27a.u.
   SCALEE = 1.0000    scale energy and forces
   NPACO  =    256;   APACO  = 16.0  distance and # of slots for P.C.
   PSTRESS=    0.0 pullay stress

  Mass of Ions in am
   POMASS =  16.00 24.30 26.98
  Ionic Valenz
   ZVAL   =   6.00  2.00  3.00
  Atomic Wigner-Seitz radii
   RWIGS  =  -1.00 -1.00 -1.00
  virtual crystal weights 
   VCA    =   1.00  1.00  1.00
   NELECT =      99.0000    total number of electrons
   NUPDOWN=      -1.0000    fix difference up-down

 DOS related values:
   EMIN   =  10.00;   EMAX   =-10.00  energy-range for DOS
   EFERMI =   0.00
   ISMEAR =     0;   SIGMA  =   0.05  broadening in eV -4-tet -1-fermi 0-gaus

 Electronic relaxation 2 (details)
   IALGO  =     38    algorithm
   LDIAG  =      T    sub-space diagonalisation (order eigenvalues)
   LSUBROT=      F    optimize rotation matrix (better conditioning)
   TURBO    =      0    0=normal 1=particle mesh
   IRESTART =      0    0=no restart 2=restart with 2 vectors
   NREBOOT  =      0    no. of reboots
   NMIN     =      0    reboot dimension
   EREF     =   0.00    reference energy to select bands
   IMIX   =      4    mixing-type and parameters
     AMIX     =   0.40;   BMIX     =  1.00
     AMIX_MAG =   1.60;   BMIX_MAG =  1.00
     AMIN     =   0.01
     WC   =   100.;   INIMIX=   1;  MIXPRE=   1;  MAXMIX= -45

 Intra band minimization:
   WEIMIN = 0.0010     energy-eigenvalue tresh-hold
   EBREAK =  0.39E-07  absolut break condition
   DEPER  =   0.30     relativ break condition  

   TIME   =   0.40     timestep for ELM

  volume/ion in A,a.u.               =      13.20        89.05
  Fermi-wavevector in a.u.,A,eV,Ry     =   1.081804  2.044313 15.922888  1.170299
  Thomas-Fermi vector in A             =   2.217829
 
 Write flags
   LWAVE  =      F    write WAVECAR
   LCHARG =      T    write CHGCAR
   LVTOT  =      F    write LOCPOT, total local potential
   LVHAR  =      F    write LOCPOT, Hartree potential only
   LELF   =      F    write electronic localiz. function (ELF)
   LORBIT =      0    0 simple, 1 ext, 2 COOP (PROOUT)


 Dipole corrections
   LMONO  =      F    monopole corrections only (constant potential shift)
   LDIPOL =      F    correct potential (dipole corrections)
   IDIPOL =      0    1-x, 2-y, 3-z, 4-all directions 
   EPSILON=  1.0000000 bulk dielectric constant

 Exchange correlation treatment:
   GGA     =    --    GGA type
   LEXCH   =     8    internal setting for exchange type
   VOSKOWN=      0    Vosko Wilk Nusair interpolation
   LHFCALC =     F    Hartree Fock is set to
   LHFONE  =     F    Hartree Fock one center treatment
   AEXX    =    0.0000 exact exchange contribution

 Linear response parameters
   LEPSILON=     F    determine dielectric tensor
   LRPA    =     F    only Hartree local field effects (RPA)
   LNABLA  =     F    use nabla operator in PAW spheres
   LVEL    =     F    velocity operator in full k-point grid
   LINTERFAST=   F  fast interpolation
   KINTER  =     0    interpolate to denser k-point grid
   CSHIFT  =0.1000    complex shift for real part using Kramers Kronig
   OMEGAMAX=  -1.0    maximum frequency
   DEG_THRESHOLD= 0.2000000E-02 threshold for treating states as degnerate
   RTIME   =    0.100 relaxation time in fs

 Orbital magnetization related:
   ORBITALMAG=     F  switch on orbital magnetization
   LCHIMAG   =     F  perturbation theory with respect to B field
   DQ        =  0.001000  dq finite difference perturbation B field



--------------------------------------------------------------------------------------------------------


 conjugate gradient relaxation of ions
   using selective dynamics as specified on POSCAR
 charge density and potential will be updated during run
 non-spin polarized calculation
 Variant of blocked Davidson
 Davidson routine will perform the subspace rotation
 perform sub-space diagonalisation
    after iterative eigenvector-optimisation
 modified Broyden-mixing scheme, WC =      100.0
 initial mixing is a Kerker type mixing with AMIX =  0.4000 and BMIX =      1.0000
 Hartree-type preconditioning will be used
 using additional bands           14
 reciprocal scheme for non local part
 use partial core corrections
 calculate Harris-corrections to forces 
   (improved forces if not selfconsistent)
 use gradient corrections 
 use of overlap-Matrix (Vanderbilt PP)
 Gauss-broadening in eV      SIGMA  =   0.05


--------------------------------------------------------------------------------------------------------


  energy-cutoff  :      520.00
  volume of cell :      343.09
      direct lattice vectors                 reciprocal lattice vectors
     2.600457673 -1.501374484  0.000000000     0.384547693  0.000000000 -0.000000000
     0.000000000  3.002748968  0.000000000     0.192273847  0.333028172 -0.000000000
     0.000000000 -0.000000000 43.938525770     0.000000000  0.000000000  0.022759070

  length of vectors
     3.002749648  3.002748968 43.938525770     0.384547693  0.384547781  0.022759070


 
 k-points in units of 2pi/SCALE and weight: K-Spacing Value to Generate K-Mesh: 0.02
   0.00000000  0.00000000  0.00000000       0.006
   0.02958059  0.00000000 -0.00000000       0.036
   0.05916118  0.00000000 -0.00000000       0.036
   0.08874178  0.00000000 -0.00000000       0.036
   0.11832237  0.00000000 -0.00000000       0.036
   0.14790296  0.00000000 -0.00000000       0.036
   0.17748355  0.00000000 -0.00000000       0.036
   0.04437089  0.02561755 -0.00000000       0.036
   0.07395148  0.02561755 -0.00000000       0.071
   0.10353207  0.02561755 -0.00000000       0.071
   0.13311266  0.02561755 -0.00000000       0.071
   0.16269325  0.02561755 -0.00000000       0.071
   0.19227385  0.02561755 -0.00000000       0.036
   0.08874178  0.05123510 -0.00000000       0.036
   0.11832237  0.05123510 -0.00000000       0.071
   0.14790296  0.05123510 -0.00000000       0.071
   0.17748355  0.05123510 -0.00000000       0.071
   0.13311266  0.07685266 -0.00000000       0.036
   0.16269325  0.07685266 -0.00000000       0.071
   0.19227385  0.07685266 -0.00000000       0.036
   0.17748355  0.10247021 -0.00000000       0.036
 
 k-points in reciprocal lattice and weights: K-Spacing Value to Generate K-Mesh: 0.02
   0.00000000  0.00000000  0.00000000       0.006
   0.07692308  0.00000000  0.00000000       0.036
   0.15384615  0.00000000  0.00000000       0.036
   0.23076923  0.00000000  0.00000000       0.036
   0.30769231  0.00000000  0.00000000       0.036
   0.38461538  0.00000000  0.00000000       0.036
   0.46153846  0.00000000  0.00000000       0.036
   0.07692308  0.07692308  0.00000000       0.036
   0.15384615  0.07692308 -0.00000000       0.071
   0.23076923  0.07692308  0.00000000       0.071
   0.30769231  0.07692308 -0.00000000       0.071
   0.38461538  0.07692308  0.00000000       0.071
   0.46153846  0.07692308 -0.00000000       0.036
   0.15384615  0.15384615  0.00000000       0.036
   0.23076923  0.15384615  0.00000000       0.071
   0.30769231  0.15384615  0.00000000       0.071
   0.38461538  0.15384615 -0.00000000       0.071
   0.23076923  0.23076923  0.00000000       0.036
   0.30769231  0.23076923  0.00000000       0.071
   0.38461538  0.23076923  0.00000000       0.036
   0.30769231  0.30769231 -0.00000000       0.036
 
 position of ions in fractional coordinates (direct lattice) 
   0.00000000  0.00000000  0.27326151
   0.33333300  0.66666700  0.32761832
   0.00000000  0.00000000  0.44094638
   0.33333300  0.66666700  0.49762407
   0.00000000  0.00000000  0.61100478
   0.33333300  0.66666700  0.66765641
   0.00000000  0.00000000  0.77866143
   0.66666700  0.33333300  0.38428650
   0.66666700  0.33333300  0.55433445
   0.66666700  0.33333300  0.72431149
   0.00000000  0.00000000  0.35593924
   0.00000000  0.00000000  0.52598041
   0.00000000  0.00000000  0.69600483
   0.66666700  0.33333300  0.29919152
   0.66666700  0.33333300  0.46926125
   0.66666700  0.33333300  0.63936241
   0.33333300  0.66666700  0.41259164
   0.33333300  0.66666700  0.58269635
   0.33333300  0.66666700  0.75272521
   0.00000000  0.00000000  0.02658039
   0.00000000  0.00000000  0.23360655
   0.66666700  0.33333300  0.18317928
   0.33333300  0.66666700  0.07866763
   0.00000000  0.00000000  0.81829886
   0.66666700  0.33333300  0.97450975
   0.33333300  0.66666700  0.86866633
 
 position of ions in cartesian coordinates  (Angst):
   0.00000000 -0.00000000 12.00670791
   0.86681836  1.50137599 14.39506601
   0.00000000 -0.00000000 19.37453407
   0.86681836  1.50137599 21.86486800
   0.00000000 -0.00000000 26.84664946
   0.86681836  1.50137599 29.33583848
   0.00000000 -0.00000000 34.21323530
   1.73363932 -0.00000150 16.88498224
   1.73363932 -0.00000150 24.35663862
   1.73363932 -0.00000150 31.82517906
   0.00000000 -0.00000000 15.63944532
   0.00000000 -0.00000000 23.11080399
   0.00000000 -0.00000000 30.58142616
   1.73363932 -0.00000150 13.14603436
   1.73363932 -0.00000150 20.61864733
   1.73363932 -0.00000150 28.09264164
   0.86681836  1.50137599 18.12866849
   0.86681836  1.50137599 25.60281864
   0.86681836  1.50137599 33.07363602
   0.00000000 -0.00000000  1.16790293
   0.00000000 -0.00000000 10.26432754
   1.73363932 -0.00000150  8.04862732
   0.86681836  1.50137599  3.45653983
   0.00000000 -0.00000000 35.95484559
   1.73363932 -0.00000150 42.81852193
   0.86681836  1.50137599 38.16791784
 


--------------------------------------------------------------------------------------------------------


 k-point  1 :   0.0000 0.0000 0.0000  plane waves:    9367
 k-point  2 :   0.0769 0.0000 0.0000  plane waves:    9343
 k-point  3 :   0.1538 0.0000 0.0000  plane waves:    9319
 k-point  4 :   0.2308 0.0000 0.0000  plane waves:    9300
 k-point  5 :   0.3077 0.0000 0.0000  plane waves:    9224
 k-point  6 :   0.3846 0.0000 0.0000  plane waves:    9192
 k-point  7 :   0.4615 0.0000 0.0000  plane waves:    9190
 k-point  8 :   0.0769 0.0769 0.0000  plane waves:    9321
 k-point  9 :   0.1538 0.0769-0.0000  plane waves:    9310
 k-point 10 :   0.2308 0.0769 0.0000  plane waves:    9259
 k-point 11 :   0.3077 0.0769-0.0000  plane waves:    9218
 k-point 12 :   0.3846 0.0769 0.0000  plane waves:    9197
 k-point 13 :   0.4615 0.0769-0.0000  plane waves:    9174
 k-point 14 :   0.1538 0.1538 0.0000  plane waves:    9269
 k-point 15 :   0.2308 0.1538 0.0000  plane waves:    9234
 k-point 16 :   0.3077 0.1538 0.0000  plane waves:    9228
 k-point 17 :   0.3846 0.1538-0.0000  plane waves:    9186
 k-point 18 :   0.2308 0.2308 0.0000  plane waves:    9216
 k-point 19 :   0.3077 0.2308 0.0000  plane waves:    9203
 k-point 20 :   0.3846 0.2308 0.0000  plane waves:    9202
 k-point 21 :   0.3077 0.3077-0.0000  plane waves:    9220

 maximum and minimum number of plane-waves per node :      2348     2276

 maximum number of plane-waves:      9367
 maximum index in each direction: 
   IXMAX=    5   IYMAX=    5   IZMAX=   81
   IXMIN=   -6   IYMIN=   -5   IZMIN=  -81

 NGX is ok and might be reduce to  24
 NGY is ok and might be reduce to  22
 NGZ is ok and might be reduce to 326

 parallel 3D FFT for wavefunctions:
    minimum data exchange during FFTs selected (reduces bandwidth)
 parallel 3D FFT for charge:
    minimum data exchange during FFTs selected (reduces bandwidth)


 total amount of memory used by VASP on root node   153316. kBytes
========================================================================

   base      :      30000. kBytes
   nonl-proj :      16277. kBytes
   fftplans  :      57933. kBytes
   grid      :      23224. kBytes
   one-center:         56. kBytes
   wavefun   :      25826. kBytes
 
     INWAV:  cpu time    0.00: real time    0.00
 Broyden mixing: mesh for mixing (old mesh)
   NGX = 11   NGY = 11   NGZ =163
  (NGX  = 48   NGY  = 48   NGZ  =672)
  gives a total of  19723 points

 initial charge density was supplied:
 charge density of overlapping atoms calculated
 number of electron      99.0000000 magnetization 
 keeping initial charge density in first step


--------------------------------------------------------------------------------------------------------


 Maximum index for augmentation-charges        23113 (set IRDMAX)


--------------------------------------------------------------------------------------------------------


 First call to EWALD:  gamma=   0.253
 Maximum number of real-space cells 7x 7x 1
 Maximum number of reciprocal cells 1x 1x15

 FEWALD executed in parallel
    FEWALD:  cpu time    0.00: real time    0.00


----------------------------------------- Iteration    1(   1)  ---------------------------------------


    POTLOK:  cpu time    0.11: real time    0.11
    SETDIJ:  cpu time    0.10: real time    0.10
     EDDAV:  cpu time    4.18: real time    4.19
       DOS:  cpu time    0.00: real time    0.00
    --------------------------------------------
      LOOP:  cpu time    4.39: real time    4.40

 eigenvalue-minimisations  :  2712
 total energy-change (2. order) : 0.5306590E+03  (-0.4391774E+04)
 number of electron      99.0000000 magnetization 
 augmentation part       99.0000000 magnetization 

 Free energy of the ion-electron system (eV)
  ---------------------------------------------------
  alpha Z        PSCENC =       123.00282109
  Ewald energy   TEWEN  =     21709.68453063
  -Hartree energ DENC   =    -26766.86385488
  -exchange      EXHF   =         0.00000000
  -V(xc)+E(xc)   XCENC  =      -343.28552746
  PAW double counting   =      4516.65612620    -3844.19644948
  entropy T*S    EENTRO =        -0.00865359
  eigenvalues    EBANDS =       229.98919493
  atomic energy  EATOM  =      4905.68083858
  ---------------------------------------------------
  free energy    TOTEN  =       530.65902602 eV

  energy without entropy =      530.66767961  energy(sigma->0) =      530.66335281


--------------------------------------------------------------------------------------------------------




----------------------------------------- Iteration    1(   2)  ---------------------------------------


     EDDAV:  cpu time    4.94: real time    4.95
       DOS:  cpu time    0.00: real time    0.00
    --------------------------------------------
      LOOP:  cpu time    4.95: real time    4.95

 eigenvalue-minimisations  :  3488
 total energy-change (2. order) :-0.6249381E+03  (-0.5932440E+03)
 number of electron      99.0000000 magnetization 
 augmentation part       99.0000000 magnetization 

 Free energy of the ion-electron system (eV)
  ---------------------------------------------------
  alpha Z        PSCENC =       123.00282109
  Ewald energy   TEWEN  =     21709.68453063
  -Hartree energ DENC   =    -26766.86385488
  -exchange      EXHF   =         0.00000000
  -V(xc)+E(xc)   XCENC  =      -343.28552746
  PAW double counting   =      4516.65612620    -3844.19644948
  entropy T*S    EENTRO =        -0.00329062
  eigenvalues    EBANDS =      -394.95423509
  atomic energy  EATOM  =      4905.68083858
  ---------------------------------------------------
  free energy    TOTEN  =       -94.27904104 eV

  energy without entropy =      -94.27575042  energy(sigma->0) =      -94.27739573


--------------------------------------------------------------------------------------------------------




----------------------------------------- Iteration    1(   3)  ---------------------------------------


     EDDAV:  cpu time    4.60: real time    4.60
       DOS:  cpu time    0.00: real time    0.00
    --------------------------------------------
      LOOP:  cpu time    4.60: real time    4.60

 eigenvalue-minimisations  :  3160
 total energy-change (2. order) :-0.6262742E+02  (-0.6230118E+02)
 number of electron      99.0000000 magnetization 
 augmentation part       99.0000000 magnetization 

 Free energy of the ion-electron system (eV)
  ---------------------------------------------------
  alpha Z        PSCENC =       123.00282109
  Ewald energy   TEWEN  =     21709.68453063
  -Hartree energ DENC   =    -26766.86385488
  -exchange      EXHF   =         0.00000000
  -V(xc)+E(xc)   XCENC  =      -343.28552746
  PAW double counting   =      4516.65612620    -3844.19644948
  entropy T*S    EENTRO =        -0.00262174
  eigenvalues    EBANDS =      -457.58232035
  atomic energy  EATOM  =      4905.68083858
  ---------------------------------------------------
  free energy    TOTEN  =      -156.90645741 eV

  energy without entropy =     -156.90383568  energy(sigma->0) =     -156.90514654


--------------------------------------------------------------------------------------------------------




----------------------------------------- Iteration    1(   4)  ---------------------------------------


     EDDAV:  cpu time    4.60: real time    4.61
       DOS:  cpu time    0.00: real time    0.00
    --------------------------------------------
      LOOP:  cpu time    4.61: real time    4.61

 eigenvalue-minimisations  :  3160
 total energy-change (2. order) :-0.1037421E+01  (-0.1035325E+01)
 number of electron      99.0000000 magnetization 
 augmentation part       99.0000000 magnetization 

 Free energy of the ion-electron system (eV)
  ---------------------------------------------------
  alpha Z        PSCENC =       123.00282109
  Ewald energy   TEWEN  =     21709.68453063
  -Hartree energ DENC   =    -26766.86385488
  -exchange      EXHF   =         0.00000000
  -V(xc)+E(xc)   XCENC  =      -343.28552746
  PAW double counting   =      4516.65612620    -3844.19644948
  entropy T*S    EENTRO =        -0.00272563
  eigenvalues    EBANDS =      -458.61963745
  atomic energy  EATOM  =      4905.68083858
  ---------------------------------------------------
  free energy    TOTEN  =      -157.94387841 eV

  energy without entropy =     -157.94115278  energy(sigma->0) =     -157.94251560


--------------------------------------------------------------------------------------------------------




----------------------------------------- Iteration    1(   5)  ---------------------------------------


     EDDAV:  cpu time    4.69: real time    4.69
       DOS:  cpu time    0.00: real time    0.00
    CHARGE:  cpu time    0.38: real time    0.38
    MIXING:  cpu time    0.00: real time    0.00
    --------------------------------------------
      LOOP:  cpu time    5.08: real time    5.08

 eigenvalue-minimisations  :  3256
 total energy-change (2. order) :-0.2162695E-01  (-0.2161701E-01)
 number of electron      99.0000001 magnetization 
 augmentation part        7.7959027 magnetization 

 Broyden mixing:
  rms(total) = 0.23741E+01    rms(broyden)= 0.23736E+01
  rms(prec ) = 0.24373E+01
  weight for this iteration     100.00

 Free energy of the ion-electron system (eV)
  ---------------------------------------------------
  alpha Z        PSCENC =       123.00282109
  Ewald energy   TEWEN  =     21709.68453063
  -Hartree energ DENC   =    -26766.86385488
  -exchange      EXHF   =         0.00000000
  -V(xc)+E(xc)   XCENC  =      -343.28552746
  PAW double counting   =      4516.65612620    -3844.19644948
  entropy T*S    EENTRO =        -0.00273266
  eigenvalues    EBANDS =      -458.64125738
  atomic energy  EATOM  =      4905.68083858
  ---------------------------------------------------
  free energy    TOTEN  =      -157.96550536 eV

  energy without entropy =     -157.96277270  energy(sigma->0) =     -157.96413903


--------------------------------------------------------------------------------------------------------




----------------------------------------- Iteration    1(   6)  ---------------------------------------


    POTLOK:  cpu time    0.10: real time    0.10
    SETDIJ:  cpu time    0.10: real time    0.10
     EDDAV:  cpu time    4.47: real time    4.47
       DOS:  cpu time    0.00: real time    0.00
    CHARGE:  cpu time    0.38: real time    0.38
    MIXING:  cpu time    0.01: real time    0.01
    --------------------------------------------
      LOOP:  cpu time    5.06: real time    5.06

 eigenvalue-minimisations  :  3048
 total energy-change (2. order) : 0.1746416E+02  (-0.9214441E+01)
 number of electron      99.0000001 magnetization 
 augmentation part        6.3010376 magnetization 

 Broyden mixing:
  rms(total) = 0.78788E+00    rms(broyden)= 0.78682E+00
  rms(prec ) = 0.79777E+00
  weight for this iteration     100.00

 eigenvalues of (default mixing * dielectric matrix)
  average eigenvalue GAMMA=   0.8509
  0.8509

 Free energy of the ion-electron system (eV)
  ---------------------------------------------------
  alpha Z        PSCENC =       123.00282109
  Ewald energy   TEWEN  =     21709.68453063
  -Hartree energ DENC   =    -26975.78059226
  -exchange      EXHF   =         0.00000000
  -V(xc)+E(xc)   XCENC  =      -329.66335037
  PAW double counting   =      5406.14410271    -4737.26395565
  entropy T*S    EENTRO =        -0.00282684
  eigenvalues    EBANDS =      -242.30291198
  atomic energy  EATOM  =      4905.68083858
  ---------------------------------------------------
  free energy    TOTEN  =      -140.50134409 eV

  energy without entropy =     -140.49851725  energy(sigma->0) =     -140.49993067


--------------------------------------------------------------------------------------------------------




----------------------------------------- Iteration    1(   7)  ---------------------------------------


    POTLOK:  cpu time    0.10: real time    0.10
    SETDIJ:  cpu time    0.10: real time    0.10
     EDDAV:  cpu time    4.42: real time    4.43
       DOS:  cpu time    0.00: real time    0.00
    CHARGE:  cpu time    0.37: real time    0.37
    MIXING:  cpu time    0.01: real time    0.01
    --------------------------------------------
      LOOP:  cpu time    5.01: real time    5.01

 eigenvalue-minimisations  :  3000
 total energy-change (2. order) : 0.4740044E-01  (-0.3111996E+00)
 number of electron      99.0000001 magnetization 
 augmentation part        6.3124348 magnetization 

 Broyden mixing:
  rms(total) = 0.49515E+00    rms(broyden)= 0.49513E+00
  rms(prec ) = 0.50480E+00
  weight for this iteration     100.00

 eigenvalues of (default mixing * dielectric matrix)
  average eigenvalue GAMMA=   1.4063
  1.0379  1.7747

 Free energy of the ion-electron system (eV)
  ---------------------------------------------------
  alpha Z        PSCENC =       123.00282109
  Ewald energy   TEWEN  =     21709.68453063
  -Hartree energ DENC   =    -26980.40029759
  -exchange      EXHF   =         0.00000000
  -V(xc)+E(xc)   XCENC  =      -329.20439511
  PAW double counting   =      5755.09790828    -5085.79244776
  entropy T*S    EENTRO =        -0.00255635
  eigenvalues    EBANDS =      -238.52034542
  atomic energy  EATOM  =      4905.68083858
  ---------------------------------------------------
  free energy    TOTEN  =      -140.45394365 eV

  energy without entropy =     -140.45138730  energy(sigma->0) =     -140.45266547


--------------------------------------------------------------------------------------------------------




----------------------------------------- Iteration    1(   8)  ---------------------------------------


    POTLOK:  cpu time    0.10: real time    0.10
    SETDIJ:  cpu time    0.10: real time    0.10
     EDDAV:  cpu time    4.45: real time    4.46
       DOS:  cpu time    0.00: real time    0.00
    CHARGE:  cpu time    0.37: real time    0.37
    MIXING:  cpu time    0.01: real time    0.01
    --------------------------------------------
      LOOP:  cpu time    5.03: real time    5.04

 eigenvalue-minimisations  :  3024
 total energy-change (2. order) : 0.1725039E+00  (-0.7848915E-01)
 number of electron      99.0000001 magnetization 
 augmentation part        6.3737222 magnetization 

 Broyden mixing:
  rms(total) = 0.14156E+00    rms(broyden)= 0.14152E+00
  rms(prec ) = 0.15149E+00
  weight for this iteration     100.00

 eigenvalues of (default mixing * dielectric matrix)
  average eigenvalue GAMMA=   1.3581
  2.3718  0.9288  0.7737

 Free energy of the ion-electron system (eV)
  ---------------------------------------------------
  alpha Z        PSCENC =       123.00282109
  Ewald energy   TEWEN  =     21709.68453063
  -Hartree energ DENC   =    -26991.97159888
  -exchange      EXHF   =         0.00000000
  -V(xc)+E(xc)   XCENC  =      -328.18843343
  PAW double counting   =      6203.33791055    -5533.72711024
  entropy T*S    EENTRO =        -0.00442436
  eigenvalues    EBANDS =      -228.09597367
  atomic energy  EATOM  =      4905.68083858
  ---------------------------------------------------
  free energy    TOTEN  =      -140.28143972 eV

  energy without entropy =     -140.27701537  energy(sigma->0) =     -140.27922755


--------------------------------------------------------------------------------------------------------




----------------------------------------- Iteration    1(   9)  ---------------------------------------


    POTLOK:  cpu time    0.10: real time    0.10
    SETDIJ:  cpu time    0.09: real time    0.09
     EDDAV:  cpu time    4.52: real time    4.52
       DOS:  cpu time    0.00: real time    0.00
    CHARGE:  cpu time    0.37: real time    0.37
    MIXING:  cpu time    0.01: real time    0.01
    --------------------------------------------
      LOOP:  cpu time    5.10: real time    5.10

 eigenvalue-minimisations  :  3088
 total energy-change (2. order) : 0.4520860E-01  (-0.1435181E-01)
 number of electron      99.0000001 magnetization 
 augmentation part        6.3469036 magnetization 

 Broyden mixing:
  rms(total) = 0.71550E-01    rms(broyden)= 0.71544E-01
  rms(prec ) = 0.87648E-01
  weight for this iteration     100.00

 eigenvalues of (default mixing * dielectric matrix)
  average eigenvalue GAMMA=   1.3271
  2.4090  0.9378  0.9378  1.0238

 Free energy of the ion-electron system (eV)
  ---------------------------------------------------
  alpha Z        PSCENC =       123.00282109
  Ewald energy   TEWEN  =     21709.68453063
  -Hartree energ DENC   =    -27002.15765806
  -exchange      EXHF   =         0.00000000
  -V(xc)+E(xc)   XCENC  =      -327.49311361
  PAW double counting   =      6329.85241842    -5660.26411092
  entropy T*S    EENTRO =        -0.00305763
  eigenvalues    EBANDS =      -218.53889962
  atomic energy  EATOM  =      4905.68083858
  ---------------------------------------------------
  free energy    TOTEN  =      -140.23623112 eV

  energy without entropy =     -140.23317349  energy(sigma->0) =     -140.23470231


--------------------------------------------------------------------------------------------------------




----------------------------------------- Iteration    1(  10)  ---------------------------------------


    POTLOK:  cpu time    0.10: real time    0.10
    SETDIJ:  cpu time    0.10: real time    0.10
     EDDAV:  cpu time    4.49: real time    4.50
       DOS:  cpu time    0.00: real time    0.00
    CHARGE:  cpu time    0.38: real time    0.38
    MIXING:  cpu time    0.01: real time    0.01
    --------------------------------------------
      LOOP:  cpu time    5.08: real time    5.08

 eigenvalue-minimisations  :  3056
 total energy-change (2. order) : 0.8182582E-02  (-0.6217531E-02)
 number of electron      99.0000001 magnetization 
 augmentation part        6.3318230 magnetization 

 Broyden mixing:
  rms(total) = 0.35520E-01    rms(broyden)= 0.35504E-01
  rms(prec ) = 0.48823E-01
  weight for this iteration     100.00

 eigenvalues of (default mixing * dielectric matrix)
  average eigenvalue GAMMA=   1.3411
  2.5057  1.7477  0.9550  0.7486  0.7486

 Free energy of the ion-electron system (eV)
  ---------------------------------------------------
  alpha Z        PSCENC =       123.00282109
  Ewald energy   TEWEN  =     21709.68453063
  -Hartree energ DENC   =    -27004.87249981
  -exchange      EXHF   =         0.00000000
  -V(xc)+E(xc)   XCENC  =      -327.38895141
  PAW double counting   =      6326.31066967    -5656.73307261
  entropy T*S    EENTRO =        -0.00465728
  eigenvalues    EBANDS =      -215.90772740
  atomic energy  EATOM  =      4905.68083858
  ---------------------------------------------------
  free energy    TOTEN  =      -140.22804854 eV

  energy without entropy =     -140.22339126  energy(sigma->0) =     -140.22571990


--------------------------------------------------------------------------------------------------------




----------------------------------------- Iteration    1(  11)  ---------------------------------------


    POTLOK:  cpu time    0.10: real time    0.10
    SETDIJ:  cpu time    0.10: real time    0.10
     EDDAV:  cpu time    4.52: real time    4.53
       DOS:  cpu time    0.00: real time    0.00
    CHARGE:  cpu time    0.37: real time    0.38
    MIXING:  cpu time    0.00: real time    0.00
    --------------------------------------------
      LOOP:  cpu time    5.10: real time    5.11

 eigenvalue-minimisations  :  3088
 total energy-change (2. order) : 0.9651725E-02  (-0.2550694E-02)
 number of electron      99.0000001 magnetization 
 augmentation part        6.3268444 magnetization 

 Broyden mixing:
  rms(total) = 0.27589E-01    rms(broyden)= 0.27580E-01
  rms(prec ) = 0.49986E-01
  weight for this iteration     100.00

 eigenvalues of (default mixing * dielectric matrix)
  average eigenvalue GAMMA=   1.2344
  2.5494  1.8249  0.9558  0.7470  0.7470  0.5822

 Free energy of the ion-electron system (eV)
  ---------------------------------------------------
  alpha Z        PSCENC =       123.00282109
  Ewald energy   TEWEN  =     21709.68453063
  -Hartree energ DENC   =    -27009.36618434
  -exchange      EXHF   =         0.00000000
  -V(xc)+E(xc)   XCENC  =      -327.25652317
  PAW double counting   =      6297.26442706    -5627.69886879
  entropy T*S    EENTRO =        -0.00312197
  eigenvalues    EBANDS =      -211.52631592
  atomic energy  EATOM  =      4905.68083858
  ---------------------------------------------------
  free energy    TOTEN  =      -140.21839682 eV

  energy without entropy =     -140.21527485  energy(sigma->0) =     -140.21683583


--------------------------------------------------------------------------------------------------------




----------------------------------------- Iteration    1(  12)  ---------------------------------------


    POTLOK:  cpu time    0.10: real time    0.10
    SETDIJ:  cpu time    0.09: real time    0.09
     EDDAV:  cpu time    4.96: real time    4.97
       DOS:  cpu time    0.00: real time    0.00
    CHARGE:  cpu time    0.37: real time    0.37
    MIXING:  cpu time    0.01: real time    0.01
    --------------------------------------------
      LOOP:  cpu time    5.54: real time    5.55

 eigenvalue-minimisations  :  3520
 total energy-change (2. order) : 0.6534243E-02  (-0.5866485E-03)
 number of electron      99.0000001 magnetization 
 augmentation part        6.3243326 magnetization 

 Broyden mixing:
  rms(total) = 0.19440E-01    rms(broyden)= 0.19439E-01
  rms(prec ) = 0.40165E-01
  weight for this iteration     100.00

 eigenvalues of (default mixing * dielectric matrix)
  average eigenvalue GAMMA=   1.3645
  2.7720  2.5076  0.9575  0.9575  0.9380  0.9380  0.4809

 Free energy of the ion-electron system (eV)
  ---------------------------------------------------
  alpha Z        PSCENC =       123.00282109
  Ewald energy   TEWEN  =     21709.68453063
  -Hartree energ DENC   =    -27010.95887232
  -exchange      EXHF   =         0.00000000
  -V(xc)+E(xc)   XCENC  =      -327.23826018
  PAW double counting   =      6289.55644279    -5619.99204095
  entropy T*S    EENTRO =        -0.00369716
  eigenvalues    EBANDS =      -209.94362505
  atomic energy  EATOM  =      4905.68083858
  ---------------------------------------------------
  free energy    TOTEN  =      -140.21186257 eV

  energy without entropy =     -140.20816541  energy(sigma->0) =     -140.21001399


--------------------------------------------------------------------------------------------------------




----------------------------------------- Iteration    1(  13)  ---------------------------------------


    POTLOK:  cpu time    0.10: real time    0.10
    SETDIJ:  cpu time    0.09: real time    0.09
     EDDAV:  cpu time    5.92: real time    5.92
       DOS:  cpu time    0.00: real time    0.00
    CHARGE:  cpu time    0.37: real time    0.37
    MIXING:  cpu time    0.01: real time    0.01
    --------------------------------------------
      LOOP:  cpu time    6.50: real time    6.50

 eigenvalue-minimisations  :  4360
 total energy-change (2. order) : 0.1415202E-01  (-0.1680586E-02)
 number of electron      99.0000001 magnetization 
 augmentation part        6.3281991 magnetization 

 Broyden mixing:
  rms(total) = 0.13240E-01    rms(broyden)= 0.13235E-01
  rms(prec ) = 0.29344E-01
  weight for this iteration     100.00

 eigenvalues of (default mixing * dielectric matrix)
  average eigenvalue GAMMA=   1.3098
  2.9458  2.5028  1.0194  1.0194  0.8429  0.8429  0.8047  0.5008

 Free energy of the ion-electron system (eV)
  ---------------------------------------------------
  alpha Z        PSCENC =       123.00282109
  Ewald energy   TEWEN  =     21709.68453063
  -Hartree energ DENC   =    -27015.09634054
  -exchange      EXHF   =         0.00000000
  -V(xc)+E(xc)   XCENC  =      -327.27528450
  PAW double counting   =      6259.91124855    -5590.33429593
  entropy T*S    EENTRO =        -0.00420853
  eigenvalues    EBANDS =      -205.76701990
  atomic energy  EATOM  =      4905.68083858
  ---------------------------------------------------
  free energy    TOTEN  =      -140.19771056 eV

  energy without entropy =     -140.19350203  energy(sigma->0) =     -140.19560629


--------------------------------------------------------------------------------------------------------




----------------------------------------- Iteration    1(  14)  ---------------------------------------


    POTLOK:  cpu time    0.10: real time    0.10
    SETDIJ:  cpu time    0.09: real time    0.10
     EDDAV:  cpu time    4.60: real time    4.60
       DOS:  cpu time    0.00: real time    0.00
    CHARGE:  cpu time    0.37: real time    0.37
    MIXING:  cpu time    0.01: real time    0.01
    --------------------------------------------
      LOOP:  cpu time    5.18: real time    5.18

 eigenvalue-minimisations  :  3168
 total energy-change (2. order) : 0.4415662E-02  (-0.1132330E-02)
 number of electron      99.0000001 magnetization 
 augmentation part        6.3300810 magnetization 

 Broyden mixing:
  rms(total) = 0.19132E-01    rms(broyden)= 0.19129E-01
  rms(prec ) = 0.30686E-01
  weight for this iteration     100.00

 eigenvalues of (default mixing * dielectric matrix)
  average eigenvalue GAMMA=   1.3380
  3.1616  2.5466  1.1396  1.1396  1.0424  0.9000  0.9000  0.5042  0.7078

 Free energy of the ion-electron system (eV)
  ---------------------------------------------------
  alpha Z        PSCENC =       123.00282109
  Ewald energy   TEWEN  =     21709.68453063
  -Hartree energ DENC   =    -27017.30968792
  -exchange      EXHF   =         0.00000000
  -V(xc)+E(xc)   XCENC  =      -327.28261109
  PAW double counting   =      6258.79985261    -5589.22004272
  entropy T*S    EENTRO =        -0.00420993
  eigenvalues    EBANDS =      -203.54478614
  atomic energy  EATOM  =      4905.68083858
  ---------------------------------------------------
  free energy    TOTEN  =      -140.19329489 eV

  energy without entropy =     -140.18908496  energy(sigma->0) =     -140.19118993


--------------------------------------------------------------------------------------------------------




----------------------------------------- Iteration    1(  15)  ---------------------------------------


    POTLOK:  cpu time    0.10: real time    0.10
    SETDIJ:  cpu time    0.09: real time    0.09
     EDDAV:  cpu time    5.24: real time    5.24
       DOS:  cpu time    0.00: real time    0.00
    CHARGE:  cpu time    0.37: real time    0.37
    MIXING:  cpu time    0.01: real time    0.01
    --------------------------------------------
      LOOP:  cpu time    5.82: real time    5.82

 eigenvalue-minimisations  :  3768
 total energy-change (2. order) : 0.1141488E-01  (-0.1688734E-02)
 number of electron      99.0000001 magnetization 
 augmentation part        6.3223766 magnetization 

 Broyden mixing:
  rms(total) = 0.21962E-01    rms(broyden)= 0.21956E-01
  rms(prec ) = 0.27588E-01
  weight for this iteration     100.00

 eigenvalues of (default mixing * dielectric matrix)
  average eigenvalue GAMMA=   1.4946
  3.9583  2.8107  2.2209  1.0407  1.0407  1.0017  0.8335  0.8335  0.5010  0.7048

 Free energy of the ion-electron system (eV)
  ---------------------------------------------------
  alpha Z        PSCENC =       123.00282109
  Ewald energy   TEWEN  =     21709.68453063
  -Hartree energ DENC   =    -27024.24995199
  -exchange      EXHF   =         0.00000000
  -V(xc)+E(xc)   XCENC  =      -327.25170429
  PAW double counting   =      6260.01787769    -5590.45071888
  entropy T*S    EENTRO =        -0.00417119
  eigenvalues    EBANDS =      -196.61140165
  atomic energy  EATOM  =      4905.68083858
  ---------------------------------------------------
  free energy    TOTEN  =      -140.18188001 eV

  energy without entropy =     -140.17770882  energy(sigma->0) =     -140.17979442


--------------------------------------------------------------------------------------------------------




----------------------------------------- Iteration    1(  16)  ---------------------------------------


    POTLOK:  cpu time    0.10: real time    0.10
    SETDIJ:  cpu time    0.09: real time    0.09
     EDDAV:  cpu time    4.93: real time    4.94
       DOS:  cpu time    0.00: real time    0.00
    CHARGE:  cpu time    0.38: real time    0.38
    MIXING:  cpu time    0.01: real time    0.01
    --------------------------------------------
      LOOP:  cpu time    5.52: real time    5.52

 eigenvalue-minimisations  :  3472
 total energy-change (2. order) : 0.6864112E-02  (-0.1047903E-02)
 number of electron      99.0000001 magnetization 
 augmentation part        6.3218576 magnetization 

 Broyden mixing:
  rms(total) = 0.17577E-01    rms(broyden)= 0.17576E-01
  rms(prec ) = 0.20654E-01
  weight for this iteration     100.00

 eigenvalues of (default mixing * dielectric matrix)
  average eigenvalue GAMMA=   1.6689
  5.6164  2.8986  2.4271  1.2194  1.2194  1.0183  1.0183  0.8660  0.8660  0.5026
  0.7059

 Free energy of the ion-electron system (eV)
  ---------------------------------------------------
  alpha Z        PSCENC =       123.00282109
  Ewald energy   TEWEN  =     21709.68453063
  -Hartree energ DENC   =    -27028.60793085
  -exchange      EXHF   =         0.00000000
  -V(xc)+E(xc)   XCENC  =      -327.29976458
  PAW double counting   =      6268.49068834    -5598.91519096
  entropy T*S    EENTRO =        -0.00441153
  eigenvalues    EBANDS =      -192.20659662
  atomic energy  EATOM  =      4905.68083858
  ---------------------------------------------------
  free energy    TOTEN  =      -140.17501590 eV

  energy without entropy =     -140.17060437  energy(sigma->0) =     -140.17281013


--------------------------------------------------------------------------------------------------------




----------------------------------------- Iteration    1(  17)  ---------------------------------------


    POTLOK:  cpu time    0.11: real time    0.11
    SETDIJ:  cpu time    0.10: real time    0.10
     EDDAV:  cpu time    4.71: real time    4.71
       DOS:  cpu time    0.00: real time    0.00
    CHARGE:  cpu time    0.37: real time    0.37
    MIXING:  cpu time    0.01: real time    0.01
    --------------------------------------------
      LOOP:  cpu time    5.30: real time    5.30

 eigenvalue-minimisations  :  3264
 total energy-change (2. order) : 0.2849382E-02  (-0.1576438E-02)
 number of electron      99.0000001 magnetization 
 augmentation part        6.3232713 magnetization 

 Broyden mixing:
  rms(total) = 0.80297E-02    rms(broyden)= 0.80217E-02
  rms(prec ) = 0.11670E-01
  weight for this iteration     100.00

 eigenvalues of (default mixing * dielectric matrix)
  average eigenvalue GAMMA=   1.6763
  6.6836  2.9517  2.4552  1.0912  1.0912  1.2338  0.9685  0.8472  0.8472  0.5028
  0.7216  0.7216

 Free energy of the ion-electron system (eV)
  ---------------------------------------------------
  alpha Z        PSCENC =       123.00282109
  Ewald energy   TEWEN  =     21709.68453063
  -Hartree energ DENC   =    -27031.00096014
  -exchange      EXHF   =         0.00000000
  -V(xc)+E(xc)   XCENC  =      -327.32959323
  PAW double counting   =      6274.30303652    -5604.71908289
  entropy T*S    EENTRO =        -0.00440982
  eigenvalues    EBANDS =      -189.78934726
  atomic energy  EATOM  =      4905.68083858
  ---------------------------------------------------
  free energy    TOTEN  =      -140.17216651 eV

  energy without entropy =     -140.16775669  energy(sigma->0) =     -140.16996160


--------------------------------------------------------------------------------------------------------




----------------------------------------- Iteration    1(  18)  ---------------------------------------


    POTLOK:  cpu time    0.10: real time    0.10
    SETDIJ:  cpu time    0.09: real time    0.09
     EDDAV:  cpu time    4.76: real time    4.77
       DOS:  cpu time    0.00: real time    0.00
    CHARGE:  cpu time    0.38: real time    0.38
    MIXING:  cpu time    0.01: real time    0.01
    --------------------------------------------
      LOOP:  cpu time    5.34: real time    5.35

 eigenvalue-minimisations  :  3304
 total energy-change (2. order) : 0.1458066E-02  (-0.6201667E-03)
 number of electron      99.0000001 magnetization 
 augmentation part        6.3232860 magnetization 

 Broyden mixing:
  rms(total) = 0.13504E-01    rms(broyden)= 0.13502E-01
  rms(prec ) = 0.15044E-01
  weight for this iteration     100.00

 eigenvalues of (default mixing * dielectric matrix)
  average eigenvalue GAMMA=   1.6946
  7.3320  3.0314  2.4176  1.6440  0.9078  0.9078  1.0231  1.0231  0.8935  0.8935
  0.7942  0.5025  0.6598

 Free energy of the ion-electron system (eV)
  ---------------------------------------------------
  alpha Z        PSCENC =       123.00282109
  Ewald energy   TEWEN  =     21709.68453063
  -Hartree energ DENC   =    -27033.11560911
  -exchange      EXHF   =         0.00000000
  -V(xc)+E(xc)   XCENC  =      -327.33017573
  PAW double counting   =      6276.32224950    -5606.73635280
  entropy T*S    EENTRO =        -0.00435847
  eigenvalues    EBANDS =      -187.67465216
  atomic energy  EATOM  =      4905.68083858
  ---------------------------------------------------
  free energy    TOTEN  =      -140.17070845 eV

  energy without entropy =     -140.16634998  energy(sigma->0) =     -140.16852922


--------------------------------------------------------------------------------------------------------




----------------------------------------- Iteration    1(  19)  ---------------------------------------


    POTLOK:  cpu time    0.10: real time    0.10
    SETDIJ:  cpu time    0.09: real time    0.09
     EDDAV:  cpu time    5.26: real time    5.26
       DOS:  cpu time    0.00: real time    0.00
    CHARGE:  cpu time    0.37: real time    0.37
    MIXING:  cpu time    0.01: real time    0.01
    --------------------------------------------
      LOOP:  cpu time    5.84: real time    5.84

 eigenvalue-minimisations  :  3768
 total energy-change (2. order) : 0.1658644E-02  (-0.4761673E-03)
 number of electron      99.0000001 magnetization 
 augmentation part        6.3224793 magnetization 

 Broyden mixing:
  rms(total) = 0.47225E-02    rms(broyden)= 0.47195E-02
  rms(prec ) = 0.63110E-02
  weight for this iteration     100.00

 eigenvalues of (default mixing * dielectric matrix)
  average eigenvalue GAMMA=   1.8865
  8.8540  3.7011  2.5823  2.5043  1.0503  1.0503  1.2193  0.9875  0.9875  0.8798
  0.8798  0.6874  0.5024  0.5251

 Free energy of the ion-electron system (eV)
  ---------------------------------------------------
  alpha Z        PSCENC =       123.00282109
  Ewald energy   TEWEN  =     21709.68453063
  -Hartree energ DENC   =    -27034.59538110
  -exchange      EXHF   =         0.00000000
  -V(xc)+E(xc)   XCENC  =      -327.32438690
  PAW double counting   =      6275.22407452    -5605.63903934
  entropy T*S    EENTRO =        -0.00433707
  eigenvalues    EBANDS =      -186.19817022
  atomic energy  EATOM  =      4905.68083858
  ---------------------------------------------------
  free energy    TOTEN  =      -140.16904980 eV

  energy without entropy =     -140.16471273  energy(sigma->0) =     -140.16688127


--------------------------------------------------------------------------------------------------------




----------------------------------------- Iteration    1(  20)  ---------------------------------------


    POTLOK:  cpu time    0.10: real time    0.10
    SETDIJ:  cpu time    0.09: real time    0.09
     EDDAV:  cpu time    5.60: real time    5.60
       DOS:  cpu time    0.00: real time    0.00
    CHARGE:  cpu time    0.37: real time    0.38
    MIXING:  cpu time    0.01: real time    0.01
    --------------------------------------------
      LOOP:  cpu time    6.18: real time    6.19

 eigenvalue-minimisations  :  4080
 total energy-change (2. order) : 0.1136137E-02  (-0.2842223E-03)
 number of electron      99.0000001 magnetization 
 augmentation part        6.3222491 magnetization 

 Broyden mixing:
  rms(total) = 0.29740E-02    rms(broyden)= 0.29708E-02
  rms(prec ) = 0.35171E-02
  weight for this iteration     100.00

 eigenvalues of (default mixing * dielectric matrix)
  average eigenvalue GAMMA=   2.2463
 13.4406  4.9420  2.8235  2.4250  1.5132  1.0419  1.0419  1.0460  0.8740  0.8740
  0.9571  0.9571  0.7034  0.5026  0.5522

 Free energy of the ion-electron system (eV)
  ---------------------------------------------------
  alpha Z        PSCENC =       123.00282109
  Ewald energy   TEWEN  =     21709.68453063
  -Hartree energ DENC   =    -27035.83602046
  -exchange      EXHF   =         0.00000000
  -V(xc)+E(xc)   XCENC  =      -327.32003083
  PAW double counting   =      6270.19465885    -5600.60999663
  entropy T*S    EENTRO =        -0.00432718
  eigenvalues    EBANDS =      -184.96038772
  atomic energy  EATOM  =      4905.68083858
  ---------------------------------------------------
  free energy    TOTEN  =      -140.16791367 eV

  energy without entropy =     -140.16358649  energy(sigma->0) =     -140.16575008


--------------------------------------------------------------------------------------------------------




----------------------------------------- Iteration    1(  21)  ---------------------------------------


    POTLOK:  cpu time    0.10: real time    0.10
    SETDIJ:  cpu time    0.10: real time    0.10
     EDDAV:  cpu time    4.70: real time    4.70
       DOS:  cpu time    0.00: real time    0.00
    CHARGE:  cpu time    0.37: real time    0.38
    MIXING:  cpu time    0.01: real time    0.01
    --------------------------------------------
      LOOP:  cpu time    5.28: real time    5.29

 eigenvalue-minimisations  :  3248
 total energy-change (2. order) :-0.1118172E-03  (-0.3672551E-03)
 number of electron      99.0000001 magnetization 
 augmentation part        6.3215518 magnetization 

 Broyden mixing:
  rms(total) = 0.59129E-02    rms(broyden)= 0.59115E-02
  rms(prec ) = 0.60094E-02
  weight for this iteration     100.00

 eigenvalues of (default mixing * dielectric matrix)
  average eigenvalue GAMMA=   2.2291
 14.6249  5.2569  2.8403  2.4276  1.5388  1.0364  1.0364  1.0954  0.9564  0.9564
  0.8841  0.8841  0.7055  0.5026  0.5601  0.3603

 Free energy of the ion-electron system (eV)
  ---------------------------------------------------
  alpha Z        PSCENC =       123.00282109
  Ewald energy   TEWEN  =     21709.68453063
  -Hartree energ DENC   =    -27036.66438860
  -exchange      EXHF   =         0.00000000
  -V(xc)+E(xc)   XCENC  =      -327.31281500
  PAW double counting   =      6268.80697610    -5599.22498652
  entropy T*S    EENTRO =        -0.00433123
  eigenvalues    EBANDS =      -184.13667053
  atomic energy  EATOM  =      4905.68083858
  ---------------------------------------------------
  free energy    TOTEN  =      -140.16802549 eV

  energy without entropy =     -140.16369426  energy(sigma->0) =     -140.16585987


--------------------------------------------------------------------------------------------------------




----------------------------------------- Iteration    1(  22)  ---------------------------------------


    POTLOK:  cpu time    0.10: real time    0.10
    SETDIJ:  cpu time    0.10: real time    0.10
     EDDAV:  cpu time    4.23: real time    4.23
       DOS:  cpu time    0.00: real time    0.00
    CHARGE:  cpu time    0.37: real time    0.37
    MIXING:  cpu time    0.01: real time    0.01
    --------------------------------------------
      LOOP:  cpu time    4.81: real time    4.81

 eigenvalue-minimisations  :  2808
 total energy-change (2. order) :-0.1254537E-03  (-0.1710077E-03)
 number of electron      99.0000001 magnetization 
 augmentation part        6.3212704 magnetization 

 Broyden mixing:
  rms(total) = 0.70629E-02    rms(broyden)= 0.70620E-02
  rms(prec ) = 0.71646E-02
  weight for this iteration     100.00

 eigenvalues of (default mixing * dielectric matrix)
  average eigenvalue GAMMA=   2.2558
 16.0524  5.4745  2.9417  2.4693  1.6156  1.0442  1.0442  1.1625  0.9325  0.9325
  0.8432  0.8432  0.6888  0.5025  0.5502  0.6253  0.6253

 Free energy of the ion-electron system (eV)
  ---------------------------------------------------
  alpha Z        PSCENC =       123.00282109
  Ewald energy   TEWEN  =     21709.68453063
  -Hartree energ DENC   =    -27036.70904633
  -exchange      EXHF   =         0.00000000
  -V(xc)+E(xc)   XCENC  =      -327.31159200
  PAW double counting   =      6268.25822059    -5598.67678320
  entropy T*S    EENTRO =        -0.00433243
  eigenvalues    EBANDS =      -184.09280789
  atomic energy  EATOM  =      4905.68083858
  ---------------------------------------------------
  free energy    TOTEN  =      -140.16815094 eV

  energy without entropy =     -140.16381851  energy(sigma->0) =     -140.16598473


--------------------------------------------------------------------------------------------------------




----------------------------------------- Iteration    1(  23)  ---------------------------------------


    POTLOK:  cpu time    0.10: real time    0.10
    SETDIJ:  cpu time    0.10: real time    0.10
     EDDAV:  cpu time    4.36: real time    4.36
       DOS:  cpu time    0.00: real time    0.00
    CHARGE:  cpu time    0.37: real time    0.37
    MIXING:  cpu time    0.01: real time    0.01
    --------------------------------------------
      LOOP:  cpu time    4.94: real time    4.94

 eigenvalue-minimisations  :  2928
 total energy-change (2. order) : 0.7307519E-04  (-0.2281790E-04)
 number of electron      99.0000001 magnetization 
 augmentation part        6.3216319 magnetization 

 Broyden mixing:
  rms(total) = 0.33971E-02    rms(broyden)= 0.33966E-02
  rms(prec ) = 0.34461E-02
  weight for this iteration     100.00

 eigenvalues of (default mixing * dielectric matrix)
  average eigenvalue GAMMA=   2.3491
 18.1674  5.8490  2.9473  2.4953  1.8416  1.0215  1.0215  1.0257  1.0257  1.0851
  0.9258  0.9258  0.8500  0.8500  0.6930  0.5541  0.5026  0.5026

 Free energy of the ion-electron system (eV)
  ---------------------------------------------------
  alpha Z        PSCENC =       123.00282109
  Ewald energy   TEWEN  =     21709.68453063
  -Hartree energ DENC   =    -27036.70673465
  -exchange      EXHF   =         0.00000000
  -V(xc)+E(xc)   XCENC  =      -327.31486500
  PAW double counting   =      6266.82817602    -5597.24551852
  entropy T*S    EENTRO =        -0.00434197
  eigenvalues    EBANDS =      -184.09298403
  atomic energy  EATOM  =      4905.68083858
  ---------------------------------------------------
  free energy    TOTEN  =      -140.16807786 eV

  energy without entropy =     -140.16373589  energy(sigma->0) =     -140.16590688


--------------------------------------------------------------------------------------------------------




----------------------------------------- Iteration    1(  24)  ---------------------------------------


    POTLOK:  cpu time    0.10: real time    0.10
    SETDIJ:  cpu time    0.09: real time    0.09
     EDDAV:  cpu time    4.18: real time    4.19
       DOS:  cpu time    0.00: real time    0.00
    CHARGE:  cpu time    0.38: real time    0.38
    MIXING:  cpu time    0.01: real time    0.01
    --------------------------------------------
      LOOP:  cpu time    4.77: real time    4.77

 eigenvalue-minimisations  :  2768
 total energy-change (2. order) : 0.1273318E-04  (-0.1092521E-04)
 number of electron      99.0000001 magnetization 
 augmentation part        6.3217615 magnetization 

 Broyden mixing:
  rms(total) = 0.14184E-02    rms(broyden)= 0.14174E-02
  rms(prec ) = 0.14430E-02
  weight for this iteration     100.00

 eigenvalues of (default mixing * dielectric matrix)
  average eigenvalue GAMMA=   2.4114
 19.8577  5.9501  2.9118  2.5683  2.1012  1.4727  1.0849  1.0849  1.1054  1.1054
  0.8223  0.8223  0.8821  0.8821  0.7151  0.7151  0.6897  0.5025  0.5433

 Free energy of the ion-electron system (eV)
  ---------------------------------------------------
  alpha Z        PSCENC =       123.00282109
  Ewald energy   TEWEN  =     21709.68453063
  -Hartree energ DENC   =    -27036.70634770
  -exchange      EXHF   =         0.00000000
  -V(xc)+E(xc)   XCENC  =      -327.31576089
  PAW double counting   =      6266.21610524    -5596.63322005
  entropy T*S    EENTRO =        -0.00434716
  eigenvalues    EBANDS =      -184.09268486
  atomic energy  EATOM  =      4905.68083858
  ---------------------------------------------------
  free energy    TOTEN  =      -140.16806513 eV

  energy without entropy =     -140.16371797  energy(sigma->0) =     -140.16589155


--------------------------------------------------------------------------------------------------------




----------------------------------------- Iteration    1(  25)  ---------------------------------------


    POTLOK:  cpu time    0.10: real time    0.10
    SETDIJ:  cpu time    0.10: real time    0.10
     EDDAV:  cpu time    3.13: real time    3.14
       DOS:  cpu time    0.00: real time    0.00
    --------------------------------------------
      LOOP:  cpu time    3.33: real time    3.34

 eigenvalue-minimisations  :  1776
 total energy-change (2. order) : 0.5104921E-06  (-0.9836565E-06)
 number of electron      99.0000001 magnetization 
 augmentation part        6.3217615 magnetization 

 Free energy of the ion-electron system (eV)
  ---------------------------------------------------
  alpha Z        PSCENC =       123.00282109
  Ewald energy   TEWEN  =     21709.68453063
  -Hartree energ DENC   =    -27036.71290854
  -exchange      EXHF   =         0.00000000
  -V(xc)+E(xc)   XCENC  =      -327.31607178
  PAW double counting   =      6266.04985711    -5596.46690088
  entropy T*S    EENTRO =        -0.00434527
[...]
 k-point    19 :       0.3077    0.2308    0.0000
  band No.  band energies     occupation 
      1     -13.6280      2.00000
      2     -13.6210      2.00000
      3     -12.7913      2.00000
      4     -12.7647      2.00000
      5     -12.7270      2.00000
      6     -12.6839      2.00000
      7     -12.6390      2.00000
      8     -12.5972      2.00000
      9     -12.5659      2.00000
     10     -12.5465      2.00000
     11      -1.2152      2.00000
     12      -1.2074      2.00000
     13      -0.8616      2.00000
     14      -0.8509      2.00000
     15      -0.8127      2.00000
     16      -0.7190      2.00000
     17      -0.5664      2.00000
     18      -0.5081      2.00000
     19      -0.4166      2.00000
     20      -0.4067      2.00000
     21      -0.2385      2.00000
     22      -0.0466      2.00000
     23       0.0576      2.00000
     24       0.2842      2.00000
     25       0.3142      2.00000
     26       0.4876      2.00000
     27       0.6404      2.00000
     28       0.6552      2.00000
     29       0.6672      2.00000
     30       0.8412      2.00000
     31       0.8943      2.00000
     32       1.0193      2.00000
     33       1.0597      2.00000
     34       1.1845      2.00000
     35       1.3081      2.00000
     36       1.3919      2.00000
     37       1.5132      2.00000
     38       1.6990      2.00000
     39       1.8617      2.00000
     40       1.9495      2.00000
     41       2.0219      2.00000
     42       2.1215      2.00000
     43       2.2111      2.00000
     44       2.3124      2.00000
     45       2.3930      2.00000
     46       2.9571      2.00000
     47       2.9647      2.00000
     48       3.5471      2.00000
     49       4.0163      2.00000
     50       4.0670      2.00000
     51       4.1390      2.00000
     52       4.1784      2.00000
     53       4.6659      0.00000
     54       4.6788      0.00000
     55       5.7436      0.00000
     56       6.3995      0.00000
     57       6.9210      0.00000
     58       7.0102      0.00000
     59       7.1723      0.00000
     60       8.4037      0.00000
     61       8.4660      0.00000
     62       8.5443      0.00000
     63       9.1418      0.00000
     64       9.2544      0.00000

 k-point    20 :       0.3846    0.2308    0.0000
  band No.  band energies     occupation 
      1     -13.5924      2.00000
      2     -13.5855      2.00000
      3     -12.6967      2.00000
      4     -12.6818      2.00000
      5     -12.6623      2.00000
      6     -12.6401      2.00000
      7     -12.6162      2.00000
      8     -12.5930      2.00000
      9     -12.5764      2.00000
     10     -12.5648      2.00000
     11      -1.0102      2.00000
     12      -1.0000      2.00000
     13      -0.8291      2.00000
     14      -0.8171      2.00000
     15      -0.7793      2.00000
     16      -0.5933      2.00000
     17      -0.3872      2.00000
     18      -0.3838      2.00000
     19      -0.3373      2.00000
     20      -0.2936      2.00000
     21      -0.0618      2.00000
     22      -0.0504      2.00000
     23       0.4778      2.00000
     24       0.5036      2.00000
     25       0.6227      2.00000
     26       0.6330      2.00000
     27       0.6517      2.00000
     28       0.6607      2.00000
     29       0.7178      2.00000
     30       0.7267      2.00000
     31       0.8021      2.00000
     32       0.9318      2.00000
     33       1.0780      2.00000
     34       1.2358      2.00000
     35       1.3815      2.00000
     36       1.3905      2.00000
     37       1.5397      2.00000
     38       1.5507      2.00000
     39       1.7599      2.00000
     40       1.7607      2.00000
     41       1.8842      2.00000
     42       1.9041      2.00000
     43       2.0205      2.00000
     44       2.1266      2.00000
     45       2.1791      2.00000
     46       2.1843      2.00000
     47       2.1932      2.00000
     48       2.6118      2.00000
     49       3.8509      2.00000
     50       4.3172      1.91587
     51       4.3247      1.87029
     52       4.9034      0.00000
     53       5.2043      0.00000
     54       5.2522      0.00000
     55       5.3349      0.00000
     56       5.6851      0.00000
     57       5.8982      0.00000
     58       5.9241      0.00000
     59       7.7477      0.00000
     60       8.0808      0.00000
     61       8.4201      0.00000
     62       8.5133      0.00000
     63       8.6669      0.00000
     64       9.6211      0.00000

 k-point    21 :       0.3077    0.3077   -0.0000
  band No.  band energies     occupation 
      1     -13.5772      2.00000
      2     -13.5702      2.00000
      3     -12.6623      2.00000
      4     -12.6496      2.00000
      5     -12.6344      2.00000
      6     -12.6183      2.00000
      7     -12.6021      2.00000
      8     -12.5869      2.00000
      9     -12.5779      2.00000
     10     -12.5689      2.00000
     11      -0.8666      2.00000
     12      -0.8586      2.00000
     13      -0.6229      2.00000
     14      -0.6136      2.00000
     15      -0.4665      2.00000
     16      -0.4522      2.00000
     17      -0.3354      2.00000
     18      -0.3144      2.00000
     19      -0.2372      2.00000
     20      -0.1394      2.00000
     21      -0.0815      2.00000
     22       0.0561      2.00000
     23       0.1524      2.00000
     24       0.2025      2.00000
     25       0.3648      2.00000
     26       0.3852      2.00000
     27       0.3960      2.00000
     28       0.5533      2.00000
     29       0.5944      2.00000
     30       0.6394      2.00000
     31       0.7817      2.00000
     32       0.8397      2.00000
     33       0.8934      2.00000
     34       1.3738      2.00000
     35       1.3825      2.00000
     36       1.7129      2.00000
     37       1.8465      2.00000
     38       1.9305      2.00000
     39       1.9543      2.00000
     40       2.0040      2.00000
     41       2.0144      2.00000
     42       2.0442      2.00000
     43       2.0752      2.00000
     44       2.1153      2.00000
     45       2.1464      2.00000
     46       2.3350      2.00000
     47       2.6180      2.00000
     48       2.6262      2.00000
     49       2.9795      2.00000
     50       2.9868      2.00000
     51       3.7323      2.00000
     52       4.0852      2.00000
     53       5.0317      0.00000
     54       5.3146      0.00000
     55       5.3736      0.00000
     56       6.3401      0.00000
     57       6.4974      0.00000
     58       6.5744      0.00000
     59       6.8214      0.00000
     60       7.4396      0.00000
     61       7.4723      0.00000
     62       7.9834      0.00000
     63       9.3066      0.00000
     64       9.4989      0.00000


--------------------------------------------------------------------------------------------------------


 soft charge-density along one line, spin component           1
         0         1         2         3         4         5         6         7         8         9
 total charge-density along one line
 
 pseudopotential strength for first ion, spin component:           1
 12.220   0.000 -14.871   0.000  -0.000   0.000   0.025   0.000   0.000   0.000   0.000   0.000  -0.031   0.000  -0.000   0.000
-14.871   0.000  18.117   0.000   0.000   0.000  -0.032   0.000  -0.000   0.000  -0.000   0.000   0.040   0.000   0.000   0.000
 -0.000   0.000   0.000   0.000  -8.351   0.000  -0.000   0.000   0.000   0.000  10.005   0.000   0.000   0.000  -0.000   0.000
  0.025   0.000  -0.032   0.000  -0.000   0.000  -8.413   0.000   0.000   0.000   0.000   0.000  10.088   0.000  -0.000   0.000
  0.000   0.000  -0.000   0.000   0.000   0.000   0.000   0.000  -8.351   0.000  -0.000   0.000  -0.000   0.000  10.005   0.000
  0.000   0.000  -0.000   0.000  10.005   0.000   0.000   0.000  -0.000   0.000 -11.826   0.000  -0.000   0.000   0.000   0.000
 -0.031   0.000   0.040   0.000   0.000   0.000  10.088   0.000  -0.000   0.000  -0.000   0.000 -11.938   0.000   0.000   0.000
 -0.000   0.000   0.000   0.000  -0.000   0.000  -0.000   0.000  10.005   0.000   0.000   0.000   0.000   0.000 -11.826   0.000
 total augmentation occupancy for first ion, spin component:           1
  2.653   0.385   0.000  -0.080  -0.000   0.000  -0.033  -0.000
  0.385   0.078   0.000  -0.079  -0.000   0.000  -0.016  -0.000
  0.000   0.000   2.136  -0.000   0.000   0.237  -0.000   0.000
 -0.080  -0.079  -0.000   2.251   0.000  -0.000   0.317   0.000
 -0.000  -0.000   0.000   0.000   2.136   0.000   0.000   0.237
  0.000   0.000   0.237  -0.000   0.000   0.029  -0.000   0.000
 -0.033  -0.016  -0.000   0.317   0.000  -0.000   0.049   0.000
 -0.000  -0.000   0.000   0.000   0.237   0.000   0.000   0.029


------------------------ aborting loop because EDIFF is reached ----------------------------------------


    CHARGE:  cpu time    0.39: real time    0.39
    FORLOC:  cpu time    0.03: real time    0.03
    FORNL :  cpu time    3.11: real time    3.11
    STRESS:  cpu time    4.16: real time    4.16
    FORCOR:  cpu time    0.14: real time    0.14
    FORHAR:  cpu time    0.06: real time    0.06
    MIXING:  cpu time    0.00: real time    0.00
    OFIELD:  cpu time    0.00: real time    0.00

  FORCE on cell =-STRESS in cart. coord.  units (eV):
  Direction    XX          YY          ZZ          XY          YZ          ZX
  --------------------------------------------------------------------------------------
  Alpha Z   123.00282   123.00282   123.00282
  Ewald   25488.57141 25488.57177-28087.42884    -0.00006    -0.00002    -0.00013
  Hartree 27252.08797 27252.08788-26291.53855    -0.00000    -0.00000     0.00005
  E(xc)    -414.77221  -414.77222  -415.52174    -0.00000     0.00000     0.00000
  Local  -53959.92249-53959.92197 53171.75004    -0.00018    -0.00000     0.00004
  n-local   -57.36101   -69.71153   -54.16406     3.15216    -1.44127     5.40403
  augment    60.81305    60.81280    59.34773     0.00018    -0.00000     0.00000
  Kinetic  1519.75580  1502.07757  1491.06761    -1.32641    -0.86784     2.63104
  Fock        0.00000     0.00000     0.00000     0.00000     0.00000     0.00000
  -------------------------------------------------------------------------------------
  Total      -2.83878    -2.83878    -3.48499     0.00000     0.00000     0.00000
  in kB     -13.25647   -13.25646   -16.27411     0.00000     0.00000     0.00000
  external pressure =      -14.26 kB  Pullay stress =        0.00 kB


 VOLUME and BASIS-vectors are now :
 -----------------------------------------------------------------------------
  energy-cutoff  :      520.00
  volume of cell :      343.09
      direct lattice vectors                 reciprocal lattice vectors
     2.600457673 -1.501374484  0.000000000     0.384547693  0.000000000 -0.000000000
     0.000000000  3.002748968  0.000000000     0.192273847  0.333028172 -0.000000000
     0.000000000 -0.000000000 43.938525770     0.000000000  0.000000000  0.022759070

  length of vectors
     3.002749648  3.002748968 43.938525770     0.384547693  0.384547781  0.022759070


 FORCES acting on ions
    electron-ion (+dipol)            ewald-force                    non-local-force                 convergence-correction
 -----------------------------------------------------------------------------------------------
   0.255E-05 -.510E-06 0.152E+04   0.243E-04 -.272E-04 -.151E+04   -.166E-15 0.316E-16 -.102E+02   -.125E-09 0.155E-09 -.291E-01
   0.106E-02 -.184E-02 0.119E+04   0.601E-04 -.103E-03 -.119E+04   0.199E-18 -.444E-18 0.263E-01   0.975E-09 -.167E-08 -.412E-01
   -.101E-07 0.164E-08 0.508E+03   -.717E-08 0.115E-07 -.508E+03   0.487E-18 -.648E-19 0.278E-01   -.104E-09 0.118E-09 -.463E-01
   0.107E-02 -.185E-02 0.168E+03   0.585E-04 -.101E-03 -.168E+03   0.340E-18 -.418E-19 0.208E-01   -.231E-08 0.397E-08 -.316E-01
   0.115E-07 -.204E-08 -.510E+03   0.148E-07 -.207E-07 0.510E+03   -.334E-18 0.115E-18 -.180E-01   0.424E-10 -.738E-10 0.154E-01
   0.107E-02 -.184E-02 -.850E+03   0.587E-04 -.102E-03 0.849E+03   -.332E-18 0.832E-19 -.229E-01   0.759E-09 -.129E-08 0.372E-01
   -.255E-05 0.511E-06 -.152E+04   -.243E-04 0.272E-04 0.151E+04   0.166E-15 -.177E-16 0.102E+02   -.215E-10 0.536E-10 0.517E-01
   -.107E-02 0.184E-02 0.847E+03   -.586E-04 0.102E-03 -.847E+03   0.406E-18 -.125E-18 0.252E-01   -.104E-08 0.174E-08 -.495E-01
   -.107E-02 0.185E-02 -.170E+03   -.585E-04 0.101E-03 0.170E+03   -.826E-19 -.465E-20 -.560E-02   0.167E-08 -.292E-08 -.925E-02
   -.106E-02 0.184E-02 -.119E+04   -.601E-04 0.103E-03 0.119E+04   0.209E-19 0.125E-19 -.330E-01   -.120E-08 0.224E-08 0.516E-01
   -.178E-07 0.414E-07 0.339E+03   -.167E-07 0.189E-07 -.339E+03   0.111E-18 -.234E-20 0.617E-02   0.250E-10 -.505E-10 -.152E-01
   -.117E-07 0.200E-07 -.322E+00   0.125E-08 -.144E-08 0.325E+00   0.501E-20 0.655E-20 0.610E-03   -.766E-12 -.202E-11 -.687E-02
   0.174E-07 -.318E-07 -.340E+03   -.941E-09 0.102E-08 0.340E+03   -.387E-19 0.166E-20 -.438E-02   0.197E-10 -.408E-10 0.150E-01
   0.492E-04 -.824E-04 0.456E+03   -.551E-04 0.912E-04 -.456E+03   -.494E-17 -.698E-17 0.101E+00   -.159E-09 0.233E-09 -.115E-01
   0.442E-04 -.766E-04 0.113E+03   -.498E-04 0.863E-04 -.113E+03   0.733E-19 -.560E-19 0.464E-02   -.469E-10 0.101E-09 -.132E-01
   0.443E-04 -.767E-04 -.227E+03   -.500E-04 0.865E-04 0.227E+03   -.478E-19 0.143E-19 -.188E-02   0.234E-11 -.860E-11 0.880E-02
   -.442E-04 0.766E-04 0.226E+03   0.499E-04 -.865E-04 -.226E+03   0.601E-19 -.133E-20 0.351E-02   -.214E-10 0.442E-10 -.162E-01
   -.442E-04 0.766E-04 -.113E+03   0.499E-04 -.863E-04 0.113E+03   -.798E-19 0.148E-19 -.326E-02   0.403E-10 -.787E-10 0.105E-02
   -.492E-04 0.825E-04 -.457E+03   0.552E-04 -.913E-04 0.457E+03   -.489E-19 -.343E-17 -.100E+00   -.141E-09 0.186E-09 0.176E-01
   -.114E-08 0.253E-10 0.595E+01   0.417E-08 -.416E-08 -.596E+01   0.189E-18 -.376E-20 0.990E-02   -.345E-12 0.461E-12 0.267E-02
   -.763E-06 -.705E-07 0.848E+03   0.320E-05 -.302E-05 -.843E+03   -.806E-16 0.432E-16 -.421E+01   -.487E-11 0.351E-11 -.122E-01
   0.158E-04 -.263E-04 0.687E+03   -.297E-05 0.280E-05 -.686E+03   -.306E-16 -.274E-16 -.106E+01   -.659E-11 0.192E-10 -.914E-02
   -.148E-04 0.249E-04 0.152E+03   0.241E-05 -.229E-05 -.153E+03   -.930E-17 0.110E-15 0.172E+01   0.103E-10 -.226E-10 -.223E-02
   0.767E-06 0.719E-07 -.849E+03   -.323E-05 0.304E-05 0.845E+03   0.806E-16 -.571E-16 0.421E+01   -.154E-11 0.803E-12 0.210E-01
   0.148E-04 -.249E-04 -.140E+03   -.242E-05 0.229E-05 0.141E+03   0.371E-16 0.648E-18 -.171E+01   -.123E-10 0.248E-10 0.777E-02
   -.158E-04 0.263E-04 -.689E+03   0.299E-05 -.282E-05 0.688E+03   0.583E-16 -.559E-16 0.107E+01   0.148E-10 -.192E-10 0.164E-01
 -----------------------------------------------------------------------------------------------
   -.244E-07 0.599E-07 -.129E-01   0.644E-13 0.299E-14 -.568E-12   0.516E-16 0.168E-16 0.611E-01   -.164E-08 0.272E-08 -.473E-01
 
 
 POSITION                                       TOTAL-FORCE (eV/Angst)
 -----------------------------------------------------------------------------------
      0.00000     -0.00000     12.10786         0.000000     -0.000000      0.006045
      0.86682      1.50138     14.47433         0.000000     -0.000000      0.006077
      0.00000     -0.00000     19.40653         0.000000     -0.000000      0.011842
      0.86682      1.50138     21.87453         0.000000     -0.000000      0.008683
      0.00000     -0.00000     26.81159        -0.000000      0.000000     -0.009863
      0.86682      1.50138     29.27732        -0.000000      0.000000     -0.009093
      0.00000     -0.00000     34.10836        -0.000000      0.000000     -0.015593
      1.73364     -0.00000     16.94022         0.000000     -0.000000      0.008450
      1.73364     -0.00000     24.34389        -0.000000      0.000000     -0.004481
      1.73364     -0.00000     31.74261        -0.000000     -0.000000     -0.009989
      0.00000     -0.00000     15.70714        -0.000000      0.000000     -0.004069
      0.00000     -0.00000     23.10922        -0.000000      0.000000     -0.003087
      0.00000     -0.00000     30.50991         0.000000     -0.000000      0.006538
      1.73364     -0.00000     13.23719        -0.000000     -0.000000     -0.000563
      1.73364     -0.00000     20.64037         0.000000     -0.000000      0.002242
      1.73364     -0.00000     28.04443         0.000000     -0.000000      0.001413
      0.86682      1.50138     18.17331        -0.000000      0.000000     -0.003158
      0.86682      1.50138     25.57789        -0.000000      0.000000     -0.007246
      0.86682      1.50138     32.97928         0.000000     -0.000000      0.003267
      0.00000     -0.00000      1.18109         0.000000     -0.000000      0.003050
      0.00000     -0.00000     10.38162         0.000000     -0.000000      0.011403
      1.73364     -0.00000      8.19465         0.000000     -0.000000      0.000787
      0.86682      1.50138      3.44509         0.000000     -0.000000      0.005999
      0.00000     -0.00000     35.83412        -0.000000      0.000000     -0.007196
      1.73364     -0.00000     42.85641         0.000000     -0.000000      0.000443
      0.86682      1.50138     38.01755        -0.000000     -0.000000     -0.001899
 -----------------------------------------------------------------------------------
    total drift:                               -0.000000      0.000000      0.000937


--------------------------------------------------------------------------------------------------------



  FREE ENERGIE OF THE ION-ELECTRON SYSTEM (eV)
  ---------------------------------------------------
  free  energy   TOTEN  =      -140.19845537 eV

  energy  without entropy=     -140.19560067  energy(sigma->0) =     -140.19702802
 
 d Force = 0.4162683E-04[ 0.242E-04, 0.590E-04]  d Energy = 0.3512265E-04 0.650E-05
 d Force =-0.1710033E+01[-0.171E+01,-0.171E+01]  d Ewald  =-0.1710033E+01-0.942E-09


--------------------------------------------------------------------------------------------------------


    POTLOK:  cpu time    0.21: real time    0.21


--------------------------------------------------------------------------------------------------------


 Conjugate gradient step on ions:
 trial-energy change:   -0.000035  1 .order   -0.000042   -0.000059   -0.000024
  (g-gl).g = 0.127E-03      g.g   = 0.193E-03  gl.gl    = 0.696E-03
 g(Force)  = 0.193E-03   g(Stress)= 0.000E+00 ortho     =-0.157E-04
 gamma     =   0.18293
 trial     =   0.30958
 opt step  =   0.52551  (harmonic =   0.52551) maximal distance =0.00101144
 next E    =  -140.198470   (d E  =  -0.00005)


--------------------------------------------------------------------------------------------------------


  
 reached required accuracy - stopping structural energy minimisation
     LOOP+:  cpu time   32.37: real time   32.39
    4ORBIT:  cpu time    0.00: real time    0.00

 total amount of memory used by VASP on root node   153316. kBytes
========================================================================

   base      :      30000. kBytes
   nonl-proj :      16277. kBytes
   fftplans  :      57933. kBytes
   grid      :      23224. kBytes
   one-center:         56. kBytes
   wavefun   :      25826. kBytes
 
  
  
 General timing and accounting informations for this job:
 ========================================================
  
                  Total CPU time used (sec):     2326.508
                            User time (sec):     2298.440
                          System time (sec):       28.068
                         Elapsed time (sec):     2328.128
  
                   Maximum memory used (kb):      264232.
                   Average memory used (kb):           0.
  
                          Minor page faults:       451925
                          Major page faults:            0
                 Voluntary context switches:           87
