       N       E                     dE             d eps       ncg     rms          rms(c)
DAV:   1     0.498048035276E+03    0.49805E+03   -0.44638E+04  2696   0.135E+03
DAV:   2    -0.106006338498E+03   -0.60405E+03   -0.57550E+03  3448   0.263E+02
DAV:   3    -0.158005938329E+03   -0.52000E+02   -0.51725E+02  3152   0.836E+01
DAV:   4    -0.158627033158E+03   -0.62109E+00   -0.62019E+00  3160   0.997E+00
DAV:   5    -0.158636090021E+03   -0.90569E-02   -0.90539E-02  3248   0.118E+00    0.237E+01
DAV:   6    -0.141914096261E+03    0.16722E+02   -0.92182E+01  3208   0.335E+01    0.795E+00
DAV:   7    -0.141893256421E+03    0.20840E-01   -0.27355E+00  3016   0.620E+00    0.493E+00
DAV:   8    -0.141754268800E+03    0.13899E+00   -0.65387E-01  3120   0.442E+00    0.125E+00
DAV:   9    -0.141722810688E+03    0.31458E-01   -0.14607E-01  3064   0.189E+00    0.626E-01
DAV:  10    -0.141718491665E+03    0.43190E-02   -0.75250E-02  3072   0.104E+00    0.305E-01
DAV:  11    -0.141713667450E+03    0.48242E-02   -0.61599E-03  3320   0.602E-01    0.220E-01
DAV:  12    -0.141710141921E+03    0.35255E-02   -0.48175E-03  3472   0.452E-01    0.136E-01
DAV:  13    -0.141703805970E+03    0.63360E-02   -0.29117E-03  4392   0.657E-01    0.872E-02
DAV:  14    -0.141699206611E+03    0.45994E-02   -0.57657E-03  3520   0.678E-01    0.799E-02
DAV:  15    -0.141691148895E+03    0.80577E-02   -0.88226E-03  4312   0.145E+00    0.957E-02
DAV:  16    -0.141688476838E+03    0.26721E-02   -0.10168E-02  3240   0.991E-01    0.729E-02
DAV:  17    -0.141686904024E+03    0.15728E-02   -0.50865E-03  3248   0.670E-01    0.443E-02
DAV:  18    -0.141686136166E+03    0.76786E-03   -0.24424E-03  3760   0.566E-01    0.411E-02
DAV:  19    -0.141685752998E+03    0.38317E-03   -0.16062E-03  3336   0.445E-01    0.506E-02
DAV:  20    -0.141685556284E+03    0.19671E-03   -0.87519E-04  3736   0.406E-01    0.286E-02
DAV:  21    -0.141685657471E+03   -0.10119E-03   -0.14217E-03  3056   0.192E-01    0.225E-02
DAV:  22    -0.141685666457E+03   -0.89855E-05   -0.17232E-04  2920   0.537E-02    0.239E-02
DAV:  23    -0.141685662376E+03    0.40810E-05   -0.53614E-05  2648   0.286E-02
   1 F= -.14168566E+03 E0= -.14168286E+03  d E =-.141686E+03
       N       E                     dE             d eps       ncg     rms          rms(c)
DAV:   1    -0.141667494579E+03    0.18172E-01   -0.79129E+00  2688   0.107E+01    0.587E-01
DAV:   2    -0.141684001998E+03   -0.16507E-01   -0.26666E-01  3008   0.164E+00    0.431E-01
DAV:   3    -0.141679102105E+03    0.48999E-02   -0.61488E-03  3120   0.432E-01    0.267E-01
DAV:   4    -0.141674966991E+03    0.41351E-02   -0.11832E-02  3112   0.599E-01    0.833E-02
DAV:   5    -0.141674675753E+03    0.29124E-03   -0.42049E-03  3040   0.286E-01    0.620E-02
DAV:   6    -0.141674143501E+03    0.53225E-03   -0.48346E-04  3224   0.143E-01    0.531E-02
DAV:   7    -0.141673801347E+03    0.34215E-03   -0.29703E-04  3464   0.127E-01    0.325E-02
DAV:   8    -0.141673087533E+03    0.71381E-03   -0.65237E-04  3752   0.275E-01    0.201E-02
DAV:   9    -0.141672938564E+03    0.14897E-03   -0.53676E-04  3136   0.123E-01    0.181E-02
DAV:  10    -0.141672693899E+03    0.24467E-03   -0.26143E-04  3480   0.187E-01    0.465E-02
DAV:  11    -0.141672441580E+03    0.25232E-03   -0.31039E-04  4096   0.210E-01    0.248E-02
DAV:  12    -0.141672283170E+03    0.15841E-03   -0.37877E-04  3584   0.226E-01    0.126E-02
DAV:  13    -0.141672185951E+03    0.97220E-04   -0.29592E-04  3368   0.206E-01    0.132E-02
DAV:  14    -0.141672121310E+03    0.64640E-04   -0.17083E-04  3488   0.196E-01    0.890E-03
DAV:  15    -0.141672114979E+03    0.63316E-05   -0.18806E-04  3056   0.131E-01    0.671E-03
DAV:  16    -0.141672125872E+03   -0.10893E-04   -0.12977E-04  2816   0.418E-02    0.123E-02
DAV:  17    -0.141672126464E+03   -0.59209E-06   -0.32187E-06  1736   0.684E-03
   2 F= -.14167213E+03 E0= -.14166858E+03  d E =0.135359E-01
       N       E                     dE             d eps       ncg     rms          rms(c)
DAV:   1    -0.141699914486E+03   -0.27789E-01   -0.25754E+00  2688   0.621E+00    0.337E-01
DAV:   2    -0.141704545659E+03   -0.46312E-02   -0.81310E-02  3016   0.958E-01    0.235E-01
DAV:   3    -0.141702894032E+03    0.16516E-02   -0.19183E-03  3216   0.257E-01    0.142E-01
DAV:   4    -0.141701619524E+03    0.12745E-02   -0.30255E-03  3120   0.337E-01    0.385E-02
DAV:   5    -0.141701492623E+03    0.12690E-03   -0.12623E-03  3032   0.167E-01    0.342E-02
DAV:   6    -0.141701340380E+03    0.15224E-03   -0.11947E-04  3232   0.763E-02    0.247E-02
DAV:   7    -0.141701185719E+03    0.15466E-03   -0.14281E-04  3672   0.104E-01    0.145E-02
DAV:   8    -0.141701020971E+03    0.16475E-03   -0.12630E-04  3256   0.123E-01    0.149E-02
DAV:   9    -0.141700961228E+03    0.59743E-04   -0.14533E-04  3064   0.784E-02    0.164E-02
DAV:  10    -0.141700874001E+03    0.87227E-04   -0.90816E-05  3952   0.125E-01    0.120E-02
DAV:  11    -0.141700816774E+03    0.57227E-04   -0.11286E-04  3264   0.117E-01    0.842E-03
DAV:  12    -0.141700766154E+03    0.50619E-04   -0.60026E-05  3216   0.117E-01    0.716E-03
DAV:  13    -0.141700712706E+03    0.53448E-04   -0.86510E-05  3336   0.170E-01    0.658E-03
DAV:  14    -0.141700706294E+03    0.64128E-05   -0.12084E-04  2744   0.945E-02    0.593E-03
DAV:  15    -0.141700709845E+03   -0.35511E-05   -0.71180E-05  2624   0.417E-02
   3 F= -.14170071E+03 E0= -.14169769E+03  d E =-.150475E-01
       N       E                     dE             d eps       ncg     rms          rms(c)
DAV:   1    -0.141702121444E+03   -0.14152E-02   -0.18284E-01  2704   0.170E+00    0.728E-02
DAV:   2    -0.141702465626E+03   -0.34418E-03   -0.46648E-03  3032   0.245E-01    0.458E-02
DAV:   3    -0.141702416178E+03    0.49448E-04   -0.11335E-04  3112   0.524E-02    0.303E-02
DAV:   4    -0.141702384001E+03    0.32178E-04   -0.54822E-05  2984   0.336E-02    0.145E-02
DAV:   5    -0.141702366021E+03    0.17980E-04   -0.19340E-05  2552   0.323E-02    0.672E-03
DAV:   6    -0.141702352209E+03    0.13812E-04   -0.18744E-05  2280   0.344E-02    0.398E-03
DAV:   7    -0.141702348488E+03    0.37207E-05   -0.13761E-05  1976   0.170E-02
   4 F= -.14170235E+03 E0= -.14169923E+03  d E =-.163864E-02
       N       E                     dE             d eps       ncg     rms          rms(c)
DAV:   1    -0.141702625207E+03   -0.27300E-03   -0.22297E-01  2688   0.187E+00    0.798E-02
DAV:   2    -0.141703035281E+03   -0.41007E-03   -0.57261E-03  3008   0.271E-01    0.511E-02
DAV:   3    -0.141702966012E+03    0.69268E-04   -0.14677E-04  3112   0.592E-02    0.341E-02
DAV:   4    -0.141702912669E+03    0.53343E-04   -0.67751E-05  3040   0.413E-02    0.170E-02
DAV:   5    -0.141702874087E+03    0.38582E-04   -0.28241E-05  2768   0.421E-02    0.835E-03
DAV:   6    -0.141702837412E+03    0.36675E-04   -0.34616E-05  2744   0.495E-02    0.604E-03
DAV:   7    -0.141702822397E+03    0.15015E-04   -0.26404E-05  2512   0.291E-02    0.669E-03
DAV:   8    -0.141702781696E+03    0.40701E-04   -0.35598E-05  2760   0.753E-02    0.110E-02
DAV:   9    -0.141702749301E+03    0.32395E-04   -0.37032E-05  2792   0.755E-02    0.135E-02
DAV:  10    -0.141702740821E+03    0.84800E-05   -0.46445E-05  2600   0.361E-02
   5 F= -.14170274E+03 E0= -.14169951E+03  d E =-.203098E-02
       N       E                     dE             d eps       ncg     rms          rms(c)
DAV:   1    -0.141703459130E+03   -0.70983E-03   -0.23174E-01  2728   0.198E+00    0.791E-02
DAV:   2    -0.141703894555E+03   -0.43543E-03   -0.55991E-03  3008   0.291E-01    0.456E-02
DAV:   3    -0.141703854666E+03    0.39889E-04   -0.13452E-04  3144   0.590E-02    0.322E-02
DAV:   4    -0.141703832262E+03    0.22404E-04   -0.79381E-05  2880   0.435E-02    0.152E-02
DAV:   5    -0.141703824002E+03    0.82605E-05   -0.15084E-05  1976   0.300E-02    0.843E-03
DAV:   6    -0.141703819574E+03    0.44277E-05   -0.19385E-05  2208   0.349E-02
   6 F= -.14170382E+03 E0= -.14170050E+03  d E =-.107875E-02
       N       E                     dE             d eps       ncg     rms          rms(c)
DAV:   1    -0.141703716984E+03    0.10702E-03   -0.41477E-01  2744   0.264E+00    0.104E-01
DAV:   2    -0.141704522034E+03   -0.80505E-03   -0.99093E-03  2984   0.376E-01    0.594E-02
DAV:   3    -0.141704448841E+03    0.73193E-04   -0.17082E-04  3144   0.697E-02    0.414E-02
DAV:   4    -0.141704410650E+03    0.38191E-04   -0.16551E-04  3040   0.642E-02    0.180E-02
DAV:   5    -0.141704404318E+03    0.63313E-05   -0.35359E-05  2552   0.352E-02    0.108E-02
DAV:   6    -0.141704399758E+03    0.45603E-05   -0.30644E-05  2352   0.379E-02
   7 F= -.14170440E+03 E0= -.14170096E+03  d E =-.165894E-02
       N       E                     dE             d eps       ncg     rms          rms(c)
DAV:   1    -0.141705288886E+03   -0.88457E-03   -0.16728E-01  2784   0.181E+00    0.598E-02
DAV:   2    -0.141705605054E+03   -0.31617E-03   -0.39812E-03  3040   0.261E-01    0.412E-02
DAV:   3    -0.141705570326E+03    0.34728E-04   -0.66577E-05  3072   0.450E-02    0.303E-02
DAV:   4    -0.141705539186E+03    0.31140E-04   -0.17568E-04  3032   0.773E-02    0.153E-02
DAV:   5    -0.141705536660E+03    0.25264E-05   -0.51034E-05  2752   0.326E-02    0.160E-02
DAV:   6    -0.141705531831E+03    0.48287E-05   -0.92259E-06  1680   0.139E-02
   8 F= -.14170553E+03 E0= -.14170207E+03  d E =-.113207E-02
       N       E                     dE             d eps       ncg     rms          rms(c)
DAV:   1    -0.141705635000E+03   -0.98340E-04   -0.12192E-01  2768   0.155E+00    0.532E-02
DAV:   2    -0.141705856054E+03   -0.22105E-03   -0.30604E-03  3064   0.232E-01    0.366E-02
DAV:   3    -0.141705820819E+03    0.35235E-04   -0.67724E-05  3064   0.479E-02    0.274E-02
DAV:   4    -0.141705768268E+03    0.52551E-04   -0.13352E-04  3064   0.813E-02    0.151E-02
DAV:   5    -0.141705753027E+03    0.15242E-04   -0.60666E-05  2880   0.438E-02    0.180E-02
DAV:   6    -0.141705741658E+03    0.11368E-04   -0.19758E-05  2000   0.224E-02    0.105E-02
DAV:   7    -0.141705702429E+03    0.39229E-04   -0.17288E-05  2112   0.502E-02    0.656E-03
DAV:   8    -0.141705669977E+03    0.32453E-04   -0.32625E-05  2592   0.590E-02    0.102E-02
DAV:   9    -0.141705628557E+03    0.41420E-04   -0.43682E-05  2720   0.922E-02    0.738E-03
DAV:  10    -0.141705566497E+03    0.62059E-04   -0.11724E-04  3880   0.209E-01    0.179E-02
DAV:  11    -0.141705560106E+03    0.63915E-05   -0.15581E-04  2856   0.766E-02    0.144E-02
DAV:  12    -0.141705557755E+03    0.23509E-05   -0.68288E-05  2672   0.360E-02
   9 F= -.14170556E+03 E0= -.14170205E+03  d E =-.115800E-02
       N       E                     dE             d eps       ncg     rms          rms(c)
DAV:   1    -0.141705599049E+03   -0.38943E-04   -0.13161E-02  2896   0.509E-01    0.181E-02
DAV:   2    -0.141705624428E+03   -0.25379E-04   -0.33998E-04  3048   0.761E-02    0.124E-02
DAV:   3    -0.141705621079E+03    0.33494E-05   -0.55343E-06  1728   0.147E-02    0.923E-03
DAV:   4    -0.141705617727E+03    0.33517E-05   -0.20596E-05  2312   0.299E-02    0.500E-03
DAV:   5    -0.141705617564E+03    0.16308E-06   -0.78239E-06  1672   0.126E-02    0.588E-03
DAV:   6    -0.141705617254E+03    0.31056E-06   -0.11067E-06  1560   0.475E-03
  10 F= -.14170562E+03 E0= -.14170211E+03  d E =-.121750E-02
       N       E                     dE             d eps       ncg     rms          rms(c)
DAV:   1    -0.141705992181E+03   -0.37462E-03   -0.11674E-01  2736   0.150E+00    0.489E-02
DAV:   2    -0.141706228873E+03   -0.23669E-03   -0.27291E-03  2960   0.211E-01    0.294E-02
DAV:   3    -0.141706206901E+03    0.21972E-04   -0.30337E-05  2568   0.335E-02    0.198E-02
DAV:   4    -0.141706191831E+03    0.15070E-04   -0.63383E-05  2944   0.479E-02    0.697E-03
DAV:   5    -0.141706191824E+03    0.66620E-08   -0.21092E-05  2240   0.207E-02    0.565E-03
DAV:   6    -0.141706190704E+03    0.11204E-05   -0.42542E-06  1704   0.107E-02
  11 F= -.14170619E+03 E0= -.14170269E+03  d E =-.573450E-03
       N       E                     dE             d eps       ncg     rms          rms(c)
DAV:   1    -0.141705674739E+03    0.51708E-03   -0.58538E-01  2720   0.335E+00    0.110E-01
DAV:   2    -0.141706867209E+03   -0.11925E-02   -0.13742E-02  2928   0.473E-01    0.657E-02
DAV:   3    -0.141706757536E+03    0.10967E-03   -0.15192E-04  3152   0.759E-02    0.443E-02
DAV:   4    -0.141706684387E+03    0.73150E-04   -0.32402E-04  3088   0.110E-01    0.158E-02
DAV:   5    -0.141706685647E+03   -0.12607E-05   -0.11671E-04  3008   0.469E-02    0.138E-02
DAV:   6    -0.141706681158E+03    0.44897E-05   -0.16359E-05  1744   0.189E-02
  12 F= -.14170668E+03 E0= -.14170317E+03  d E =-.106390E-02
       N       E                     dE             d eps       ncg     rms          rms(c)
DAV:   1    -0.141707161054E+03   -0.47541E-03   -0.10913E-01  2752   0.146E+00    0.462E-02
DAV:   2    -0.141707374516E+03   -0.21346E-03   -0.24371E-03  3032   0.204E-01    0.274E-02
DAV:   3    -0.141707354248E+03    0.20268E-04   -0.29335E-05  2472   0.303E-02    0.193E-02
DAV:   4    -0.141707332295E+03    0.21953E-04   -0.45177E-05  2640   0.466E-02    0.768E-03
DAV:   5    -0.141707325395E+03    0.68998E-05   -0.22575E-05  2248   0.287E-02    0.721E-03
DAV:   6    -0.141707321788E+03    0.36074E-05   -0.79341E-06  1704   0.153E-02
  13 F= -.14170732E+03 E0= -.14170376E+03  d E =-.640630E-03
       N       E                     dE             d eps       ncg     rms          rms(c)
DAV:   1    -0.141706590254E+03    0.73514E-03   -0.83337E-01  2760   0.403E+00    0.127E-01
DAV:   2    -0.141708258288E+03   -0.16680E-02   -0.18872E-02  3008   0.569E-01    0.757E-02
DAV:   3    -0.141708110395E+03    0.14789E-03   -0.24712E-04  3136   0.857E-02    0.540E-02
DAV:   4    -0.141707958329E+03    0.15207E-03   -0.31957E-04  3128   0.118E-01    0.230E-02
DAV:   5    -0.141707906554E+03    0.51776E-04   -0.15473E-04  3048   0.787E-02    0.212E-02
DAV:   6    -0.141707875605E+03    0.30949E-04   -0.71261E-05  2848   0.475E-02    0.107E-02
DAV:   7    -0.141707812741E+03    0.62864E-04   -0.13637E-05  1896   0.591E-02    0.752E-03
DAV:   8    -0.141707717515E+03    0.95226E-04   -0.52412E-05  2960   0.103E-01    0.129E-02
DAV:   9    -0.141707604777E+03    0.11274E-03   -0.71884E-05  3200   0.146E-01    0.136E-02
DAV:  10    -0.141707437518E+03    0.16726E-03   -0.37648E-04  4312   0.337E-01    0.185E-02
DAV:  11    -0.141707456065E+03   -0.18547E-04   -0.40870E-04  2936   0.827E-02    0.250E-02
DAV:  12    -0.141707450666E+03    0.53992E-05   -0.60504E-05  2880   0.743E-02
  14 F= -.14170745E+03 E0= -.14170372E+03  d E =-.769508E-03
       N       E                     dE             d eps       ncg     rms          rms(c)
DAV:   1    -0.141707461480E+03   -0.54157E-05   -0.97562E-02  2808   0.137E+00    0.548E-02
DAV:   2    -0.141707653557E+03   -0.19208E-03   -0.24037E-03  3008   0.200E-01    0.224E-02
DAV:   3    -0.141707643143E+03    0.10414E-04   -0.53732E-05  3032   0.322E-02    0.162E-02
DAV:   4    -0.141707635117E+03    0.80258E-05   -0.16491E-05  1944   0.287E-02    0.806E-03
DAV:   5    -0.141707631576E+03    0.35412E-05   -0.15157E-05  1824   0.290E-02    0.548E-03
DAV:   6    -0.141707630872E+03    0.70399E-06   -0.81195E-06  1632   0.139E-02
  15 F= -.14170763E+03 E0= -.14170397E+03  d E =-.949714E-03
       N       E                     dE             d eps       ncg     rms          rms(c)
DAV:   1    -0.141707997971E+03   -0.36640E-03   -0.85052E-02  2720   0.130E+00    0.430E-02
DAV:   2    -0.141708158907E+03   -0.16094E-03   -0.19070E-03  2984   0.180E-01    0.249E-02
DAV:   3    -0.141708147473E+03    0.11434E-04   -0.40804E-05  2944   0.312E-02    0.180E-02
DAV:   4    -0.141708138871E+03    0.86012E-05   -0.25706E-05  2304   0.283E-02    0.859E-03
DAV:   5    -0.141708134736E+03    0.41355E-05   -0.84244E-06  1760   0.223E-02    0.616E-03
DAV:   6    -0.141708130780E+03    0.39564E-05   -0.64307E-06  1696   0.235E-02
  16 F= -.14170813E+03 E0= -.14170440E+03  d E =-.499908E-03
       N       E                     dE             d eps       ncg     rms          rms(c)
DAV:   1    -0.141707904759E+03    0.22998E-03   -0.39210E-01  2688   0.279E+00    0.950E-02
DAV:   2    -0.141708671237E+03   -0.76648E-03   -0.89503E-03  2992   0.387E-01    0.536E-02
DAV:   3    -0.141708619540E+03    0.51697E-04   -0.17684E-04  3160   0.659E-02    0.383E-02
DAV:   4    -0.141708585185E+03    0.34356E-04   -0.13782E-04  3048   0.626E-02    0.183E-02
DAV:   5    -0.141708572649E+03    0.12535E-04   -0.34240E-05  2552   0.405E-02    0.131E-02
DAV:   6    -0.141708559404E+03    0.13246E-04   -0.28846E-05  2400   0.449E-02    0.597E-03
DAV:   7    -0.141708556931E+03    0.24731E-05   -0.22954E-05  2080   0.229E-02
  17 F= -.14170856E+03 E0= -.14170466E+03  d E =-.926059E-03
       N       E                     dE             d eps       ncg     rms          rms(c)
DAV:   1    -0.141709087929E+03   -0.52853E-03   -0.16715E-01  2688   0.175E+00    0.672E-02
DAV:   2    -0.141709426839E+03   -0.33891E-03   -0.43491E-03  2976   0.257E-01    0.373E-02
DAV:   3    -0.141709388691E+03    0.38148E-04   -0.91944E-05  3208   0.528E-02    0.258E-02
DAV:   4    -0.141709352936E+03    0.35755E-04   -0.72254E-05  2992   0.541E-02    0.116E-02
DAV:   5    -0.141709338240E+03    0.14695E-04   -0.27919E-05  2448   0.412E-02    0.911E-03
DAV:   6    -0.141709322734E+03    0.15507E-04   -0.19433E-05  2112   0.427E-02    0.499E-03
DAV:   7    -0.141709312378E+03    0.10356E-04   -0.11466E-05  1720   0.297E-02    0.514E-03
DAV:   8    -0.141709292760E+03    0.19618E-04   -0.67309E-06  1824   0.437E-02    0.388E-03
DAV:   9    -0.141709253553E+03    0.39206E-04   -0.52960E-05  2984   0.114E-01    0.104E-02
DAV:  10    -0.141709244650E+03    0.89039E-05   -0.41089E-05  2560   0.490E-02
  18 F= -.14170924E+03 E0= -.14170531E+03  d E =-.687719E-03
       N       E                     dE             d eps       ncg     rms          rms(c)
DAV:   1    -0.141709264726E+03   -0.11172E-04   -0.47917E-02  2808   0.945E-01    0.352E-02
DAV:   2    -0.141709381314E+03   -0.11659E-03   -0.14291E-03  2992   0.149E-01    0.249E-02
DAV:   3    -0.141709368011E+03    0.13303E-04   -0.27012E-05  2296   0.263E-02    0.166E-02
DAV:   4    -0.141709357434E+03    0.10577E-04   -0.48236E-05  2848   0.327E-02    0.759E-03
DAV:   5    -0.141709355624E+03    0.18098E-05   -0.86639E-06  1848   0.169E-02    0.543E-03
DAV:   6    -0.141709352660E+03    0.29635E-05   -0.49795E-06  1688   0.179E-02
  19 F= -.14170935E+03 E0= -.14170539E+03  d E =-.795730E-03
       N       E                     dE             d eps       ncg     rms          rms(c)
DAV:   1    -0.141709613362E+03   -0.25774E-03   -0.52537E-02  2824   0.101E+00    0.330E-02
DAV:   2    -0.141709724221E+03   -0.11086E-03   -0.13062E-03  3048   0.150E-01    0.206E-02
DAV:   3    -0.141709715515E+03    0.87064E-05   -0.23319E-05  2312   0.242E-02    0.155E-02
DAV:   4    -0.141709707739E+03    0.77754E-05   -0.45399E-05  2624   0.342E-02    0.794E-03
DAV:   5    -0.141709706502E+03    0.12377E-05   -0.90709E-06  1704   0.177E-02    0.920E-03
DAV:   6    -0.141709704565E+03    0.19362E-05   -0.64314E-06  1696   0.143E-02
  20 F= -.14170970E+03 E0= -.14170570E+03  d E =-.351905E-03
       N       E                     dE             d eps       ncg     rms          rms(c)
DAV:   1    -0.141709588338E+03    0.11816E-03   -0.20274E-01  2800   0.199E+00    0.648E-02
DAV:   2    -0.141710024586E+03   -0.43625E-03   -0.50870E-03  3056   0.297E-01    0.410E-02
DAV:   3    -0.141709992315E+03    0.32271E-04   -0.92523E-05  3056   0.489E-02    0.312E-02
DAV:   4    -0.141709965190E+03    0.27124E-04   -0.14727E-04  2952   0.626E-02    0.138E-02
DAV:   5    -0.141709961311E+03    0.38795E-05   -0.37629E-05  2672   0.367E-02    0.166E-02
DAV:   6    -0.141709956425E+03    0.48855E-05   -0.20113E-05  2024   0.235E-02
  21 F= -.14170996E+03 E0= -.14170587E+03  d E =-.603765E-03
       N       E                     dE             d eps       ncg     rms          rms(c)
DAV:   1    -0.141710051819E+03   -0.90508E-04   -0.11172E-01  2736   0.149E+00    0.447E-02
DAV:   2    -0.141710281922E+03   -0.23010E-03   -0.25052E-03  2984   0.205E-01    0.247E-02
DAV:   3    -0.141710266000E+03    0.15922E-04   -0.22100E-05  2256   0.278E-02    0.167E-02
DAV:   4    -0.141710250295E+03    0.15705E-04   -0.38803E-05  2648   0.483E-02    0.503E-03
DAV:   5    -0.141710250528E+03   -0.23234E-06   -0.25525E-05  2248   0.237E-02    0.608E-03
DAV:   6    -0.141710250067E+03    0.46068E-06   -0.27191E-06  1664   0.707E-03
  22 F= -.14171025E+03 E0= -.14170612E+03  d E =-.293642E-03
       N       E                     dE             d eps       ncg     rms          rms(c)
DAV:   1    -0.141708799786E+03    0.14507E-02   -0.10053E+00  2736   0.446E+00    0.133E-01
DAV:   2    -0.141710850179E+03   -0.20504E-02   -0.22346E-02  2960   0.612E-01    0.739E-02
DAV:   3    -0.141710707664E+03    0.14252E-03   -0.19442E-04  3208   0.773E-02    0.503E-02
DAV:   4    -0.141710564790E+03    0.14287E-03   -0.33036E-04  3064   0.138E-01    0.133E-02
DAV:   5    -0.141710562063E+03    0.27267E-05   -0.20468E-04  2944   0.646E-02    0.162E-02
DAV:   6    -0.141710554091E+03    0.79725E-05   -0.11137E-05  1728   0.152E-02
  23 F= -.14171055E+03 E0= -.14170629E+03  d E =-.597666E-03
       N       E                     dE             d eps       ncg     rms          rms(c)
DAV:   1    -0.141710692558E+03   -0.13049E-03   -0.10056E-01  2736   0.142E+00    0.446E-02
DAV:   2    -0.141710882721E+03   -0.19016E-03   -0.22522E-03  3048   0.198E-01    0.255E-02
DAV:   3    -0.141710857809E+03    0.24912E-04   -0.28110E-05  2280   0.350E-02    0.178E-02
DAV:   4    -0.141710821490E+03    0.36319E-04   -0.32950E-05  2432   0.554E-02    0.769E-03
DAV:   5    -0.141710801681E+03    0.19809E-04   -0.33471E-05  2552   0.432E-02    0.776E-03
DAV:   6    -0.141710791699E+03    0.99815E-05   -0.16814E-05  1800   0.239E-02
  24 F= -.14171079E+03 E0= -.14170648E+03  d E =-.237608E-03
       N       E                     dE             d eps       ncg     rms          rms(c)
DAV:   1    -0.141710288979E+03    0.51270E-03   -0.38652E-01  2736   0.278E+00    0.830E-02
DAV:   2    -0.141711076448E+03   -0.78747E-03   -0.87108E-03  3032   0.385E-01    0.503E-02
DAV:   3    -0.141711018263E+03    0.58185E-04   -0.11022E-04  3184   0.552E-02    0.354E-02
DAV:   4    -0.141710962079E+03    0.56185E-04   -0.13534E-04  3016   0.758E-02    0.140E-02
DAV:   5    -0.141710947472E+03    0.14607E-04   -0.66733E-05  2888   0.461E-02    0.126E-02
DAV:   6    -0.141710937810E+03    0.96611E-05   -0.21179E-05  1816   0.238E-02
  25 F= -.14171094E+03 E0= -.14170651E+03  d E =-.383719E-03
       N       E                     dE             d eps       ncg     rms          rms(c)
DAV:   1    -0.141711237397E+03   -0.28993E-03   -0.91470E-02  2736   0.136E+00    0.405E-02
DAV:   2    -0.141711404683E+03   -0.16729E-03   -0.19021E-03  3016   0.183E-01    0.228E-02
DAV:   3    -0.141711394216E+03    0.10467E-04   -0.28985E-05  2336   0.279E-02    0.160E-02
DAV:   4    -0.141711384055E+03    0.10161E-04   -0.27822E-05  2424   0.340E-02    0.652E-03
DAV:   5    -0.141711381636E+03    0.24190E-05   -0.12134E-05  1728   0.220E-02    0.592E-03
DAV:   6    -0.141711378444E+03    0.31920E-05   -0.74443E-06  1728   0.201E-02
  26 F= -.14171138E+03 E0= -.14170691E+03  d E =-.440633E-03
       N       E                     dE             d eps       ncg     rms          rms(c)
DAV:   1    -0.141710852696E+03    0.52894E-03   -0.52861E-01  2720   0.326E+00    0.993E-02
DAV:   2    -0.141711820854E+03   -0.96816E-03   -0.11333E-02  3000   0.451E-01    0.548E-02
DAV:   3    -0.141711765517E+03    0.55337E-04   -0.25705E-04  3216   0.760E-02    0.403E-02
DAV:   4    -0.141711715069E+03    0.50447E-04   -0.12757E-04  2888   0.560E-02    0.191E-02
DAV:   5    -0.141711686438E+03    0.28632E-04   -0.35979E-05  2824   0.611E-02    0.148E-02
DAV:   6    -0.141711660348E+03    0.26090E-04   -0.49939E-05  2808   0.775E-02    0.713E-03
DAV:   7    -0.141711650833E+03    0.95144E-05   -0.56140E-05  2840   0.510E-02
  27 F= -.14171165E+03 E0= -.14170707E+03  d E =-.713023E-03
       N       E                     dE             d eps       ncg     rms          rms(c)
DAV:   1    -0.141711704740E+03   -0.44392E-04   -0.17636E-01  2720   0.189E+00    0.603E-02
DAV:   2    -0.141712077857E+03   -0.37312E-03   -0.43772E-03  3000   0.277E-01    0.359E-02
DAV:   3    -0.141712047732E+03    0.30124E-04   -0.79338E-05  3080   0.439E-02    0.248E-02
DAV:   4    -0.141712011297E+03    0.36436E-04   -0.99782E-05  3032   0.540E-02    0.134E-02
DAV:   5    -0.141712000382E+03    0.10915E-04   -0.21313E-05  2048   0.320E-02    0.129E-02
DAV:   6    -0.141711986332E+03    0.14050E-04   -0.18732E-05  2152   0.339E-02    0.663E-03
DAV:   7    -0.141711968552E+03    0.17779E-04   -0.39809E-06  1760   0.378E-02    0.522E-03
DAV:   8    -0.141711937604E+03    0.30949E-04   -0.13675E-05  2128   0.664E-02    0.386E-03
DAV:   9    -0.141711891152E+03    0.46452E-04   -0.56412E-05  3120   0.125E-01    0.437E-03
DAV:  10    -0.141711867602E+03    0.23551E-04   -0.80133E-05  3304   0.134E-01    0.777E-03
DAV:  11    -0.141711875525E+03   -0.79235E-05   -0.11432E-04  2656   0.441E-02    0.526E-03
DAV:  12    -0.141711875964E+03   -0.43889E-06   -0.10161E-05  1776   0.120E-02
  28 F= -.14171188E+03 E0= -.14170726E+03  d E =-.225131E-03
       N       E                     dE             d eps       ncg     rms          rms(c)
DAV:   1    -0.141711875434E+03    0.90722E-07   -0.10815E-04  2624   0.465E-02    0.319E-03
DAV:   2    -0.141711875497E+03   -0.62932E-07   -0.35261E-06  1632   0.880E-03    0.162E-03
DAV:   3    -0.141711875388E+03    0.10941E-06   -0.68567E-07  1608   0.438E-03    0.875E-04
DAV:   4    -0.141711875350E+03    0.38172E-07   -0.16985E-07  1584   0.241E-03    0.631E-04
DAV:   5    -0.141711875295E+03    0.54906E-07   -0.10018E-07  1584   0.219E-03    0.329E-04
DAV:   6    -0.141711875265E+03    0.29766E-07   -0.64644E-08  1528   0.202E-03
  29 F= -.14171188E+03 E0= -.14170726E+03  d E =-.224432E-03
       N       E                     dE             d eps       ncg     rms          rms(c)
DAV:   1    -0.141712035775E+03   -0.16048E-03   -0.22701E-01  2824   0.209E+00    0.635E-02
DAV:   2    -0.141712503690E+03   -0.46791E-03   -0.52796E-03  3040   0.300E-01    0.396E-02
DAV:   3    -0.141712460878E+03    0.42812E-04   -0.72256E-05  3008   0.512E-02    0.280E-02
DAV:   4    -0.141712413222E+03    0.47656E-04   -0.84766E-05  3032   0.686E-02    0.117E-02
DAV:   5    -0.141712400822E+03    0.12400E-04   -0.53558E-05  2792   0.490E-02    0.117E-02
DAV:   6    -0.141712395221E+03    0.56009E-05   -0.32454E-05  2448   0.295E-02
  30 F= -.14171240E+03 E0= -.14170776E+03  d E =-.519956E-03
       N       E                     dE             d eps       ncg     rms          rms(c)
DAV:   1    -0.141712257822E+03    0.14300E-03   -0.93196E-02  2856   0.135E+00    0.424E-02
DAV:   2    -0.141712440202E+03   -0.18238E-03   -0.22770E-03  3048   0.207E-01    0.281E-02
DAV:   3    -0.141712414210E+03    0.25992E-04   -0.68597E-05  2832   0.456E-02    0.206E-02
DAV:   4    -0.141712384241E+03    0.29968E-04   -0.19592E-05  1760   0.315E-02    0.114E-02
DAV:   5    -0.141712345190E+03    0.39052E-04   -0.24415E-05  2344   0.613E-02    0.896E-03
DAV:   6    -0.141712307263E+03    0.37927E-04   -0.37640E-05  2672   0.910E-02    0.504E-03
DAV:   7    -0.141712266045E+03    0.41217E-04   -0.71689E-05  3440   0.139E-01    0.134E-02
DAV:   8    -0.141712243084E+03    0.22961E-04   -0.66002E-05  2672   0.712E-02    0.789E-03
DAV:   9    -0.141712222922E+03    0.20162E-04   -0.16133E-05  2120   0.712E-02    0.448E-03
DAV:  10    -0.141712211392E+03    0.11529E-04   -0.33559E-05  2720   0.984E-02    0.416E-03
DAV:  11    -0.141712215398E+03   -0.40057E-05   -0.71172E-05  2584   0.376E-02
  31 F= -.14171222E+03 E0= -.14170757E+03  d E =-.340133E-03
       N       E                     dE             d eps       ncg     rms          rms(c)
DAV:   1    -0.141712269294E+03   -0.57901E-04   -0.32071E-02  2904   0.790E-01    0.286E-02
DAV:   2    -0.141712333335E+03   -0.64041E-04   -0.81435E-04  3064   0.123E-01    0.151E-02
DAV:   3    -0.141712327451E+03    0.58837E-05   -0.22808E-05  1984   0.250E-02    0.109E-02
DAV:   4    -0.141712321153E+03    0.62987E-05   -0.94691E-06  1712   0.197E-02    0.469E-03
DAV:   5    -0.141712317172E+03    0.39807E-05   -0.58417E-06  1792   0.244E-02    0.446E-03
DAV:   6    -0.141712315159E+03    0.20130E-05   -0.69337E-06  1704   0.225E-02
  32 F= -.14171232E+03 E0= -.14170768E+03  d E =-.439894E-03
       N       E                     dE             d eps       ncg     rms          rms(c)
DAV:   1    -0.141712324312E+03   -0.71400E-05   -0.22715E-03  3008   0.212E-01    0.683E-03
DAV:   2    -0.141712328697E+03   -0.43854E-05   -0.62053E-05  2784   0.341E-02    0.602E-03
DAV:   3    -0.141712327418E+03    0.12791E-05   -0.15894E-06  1680   0.783E-03    0.422E-03
DAV:   4    -0.141712325040E+03    0.23779E-05   -0.20680E-06  1680   0.127E-02    0.184E-03
DAV:   5    -0.141712323956E+03    0.10838E-05   -0.95940E-07  1728   0.107E-02    0.164E-03
DAV:   6    -0.141712321325E+03    0.26315E-05   -0.25218E-06  1768   0.337E-02
  33 F= -.14171232E+03 E0= -.14170769E+03  d E =-.446060E-03
       N       E                     dE             d eps       ncg     rms          rms(c)
DAV:   1    -0.141712320297E+03    0.36593E-05   -0.14800E-03  2936   0.176E-01    0.576E-03
DAV:   2    -0.141712325327E+03   -0.50294E-05   -0.57203E-05  2728   0.312E-02    0.702E-03
DAV:   3    -0.141712324485E+03    0.84163E-06   -0.11114E-06  1664   0.524E-03    0.516E-03
DAV:   4    -0.141712323409E+03    0.10756E-05   -0.49191E-06  1656   0.836E-03    0.178E-03
DAV:   5    -0.141712323226E+03    0.18297E-06   -0.50704E-07  1608   0.455E-03    0.130E-03
DAV:   6    -0.141712322770E+03    0.45607E-06   -0.41329E-07  1672   0.859E-03
  34 F= -.14171232E+03 E0= -.14170769E+03  d E =-.447505E-03
       N       E                     dE             d eps       ncg     rms          rms(c)
DAV:   1    -0.141712405533E+03   -0.82307E-04   -0.58418E-02  2888   0.105E+00    0.313E-02
DAV:   2    -0.141712508835E+03   -0.10330E-03   -0.12901E-03  3064   0.149E-01    0.220E-02
DAV:   3    -0.141712496204E+03    0.12630E-04   -0.15885E-05  1960   0.232E-02    0.158E-02
DAV:   4    -0.141712483641E+03    0.12564E-04   -0.43517E-05  2704   0.426E-02    0.592E-03
DAV:   5    -0.141712483680E+03   -0.39145E-07   -0.19013E-05  1880   0.216E-02    0.611E-03
DAV:   6    -0.141712483315E+03    0.36490E-06   -0.35357E-06  1680   0.854E-03
  35 F= -.14171248E+03 E0= -.14170782E+03  d E =-.160545E-03
       N       E                     dE             d eps       ncg     rms          rms(c)
DAV:   1    -0.141712482456E+03    0.12238E-05   -0.33280E-03  2960   0.251E-01    0.935E-03
DAV:   2    -0.141712486615E+03   -0.41591E-05   -0.77123E-05  2888   0.405E-02    0.526E-03
DAV:   3    -0.141712485123E+03    0.14925E-05   -0.45521E-06  1696   0.143E-02    0.398E-03
DAV:   4    -0.141712483829E+03    0.12938E-05   -0.14347E-06  1680   0.998E-03    0.250E-03
DAV:   5    -0.141712480881E+03    0.29479E-05   -0.16158E-06  1744   0.220E-02    0.167E-03
DAV:   6    -0.141712479818E+03    0.10624E-05   -0.27364E-06  1736   0.136E-02
  36 F= -.14171248E+03 E0= -.14170781E+03  d E =-.157048E-03
       N       E                     dE             d eps       ncg     rms          rms(c)
DAV:   1    -0.141712501704E+03   -0.20823E-04   -0.41654E-02  2704   0.909E-01    0.298E-02
DAV:   2    -0.141712581566E+03   -0.79862E-04   -0.10051E-03  3032   0.133E-01    0.184E-02
DAV:   3    -0.141712571243E+03    0.10323E-04   -0.16030E-05  1864   0.250E-02    0.135E-02
DAV:   4    -0.141712559410E+03    0.11833E-04   -0.29629E-05  2536   0.384E-02    0.543E-03
DAV:   5    -0.141712558047E+03    0.13623E-05   -0.15562E-05  1728   0.219E-02    0.590E-03
DAV:   6    -0.141712557430E+03    0.61755E-06   -0.44951E-06  1648   0.988E-03
  37 F= -.14171256E+03 E0= -.14170787E+03  d E =-.776116E-04
