 vasp.5.3.5 31Mar14 (build Apr 08 2024 10:12:10) complex                        
  
 executed on             LinuxIFC date 2024.07.29  17:19:36
 running on    8 total cores
 distrk:  each k-point on    8 cores,    1 groups
 distr:  one band on NCORES_PER_BAND=   4 cores,    2 groups


--------------------------------------------------------------------------------------------------------


 INCAR:
 POTCAR:    PAW_PBE O 08Apr2002                   
 POTCAR:    PAW_PBE Mg 13Apr2007                  
 POTCAR:    PAW_PBE Al 04Jan2001                  
 POTCAR:    PAW_PBE O 08Apr2002                   
   VRHFIN =O: s2p4                                                              
   LEXCH  = PE                                                                  
   EATOM  =   432.3788 eV,   31.7789 Ry                                         
                                                                                
   TITEL  = PAW_PBE O 08Apr2002                                                 
   LULTRA =        F    use ultrasoft PP ?                                      
   IUNSCR =        1    unscreen: 0-lin 1-nonlin 2-no                           
   RPACOR =    1.200    partial core radius                                     
   POMASS =   16.000; ZVAL   =    6.000    mass and valenz                      
   RCORE  =    1.520    outmost cutoff radius                                   
   RWIGS  =    1.550; RWIGS  =    0.820    wigner-seitz radius (au A)           
   ENMAX  =  400.000; ENMIN  =  300.000 eV                                      
   ICORE  =        2    local potential                                         
   LCOR   =        T    correct aug charges                                     
   LPAW   =        T    paw PP                                                  
   EAUG   =  605.392                                                            
   DEXC   =    0.000                                                            
   RMAX   =    1.553    core radius for proj-oper                               
   RAUG   =    1.300    factor for augmentation sphere                          
   RDEP   =    1.550    radius for radial grids                                 
   RDEPT  =    1.329    core radius for aug-charge                              
                                                                                
   Atomic configuration                                                         
    4 entries                                                                   
     n  l   j            E        occ.                                          
     1  0  0.50      -514.6923   2.0000                                         
     2  0  0.50       -23.9615   2.0000                                         
     2  1  0.50        -9.0305   4.0000                                         
     3  2  1.50        -9.5241   0.0000                                         
   Description                                                                  
     l       E           TYP  RCUT    TYP  RCUT                                 
     0    -23.9615318     23  1.200                                             
     0     -9.5240782     23  1.200                                             
     1     -9.0304911     23  1.520                                             
     1      8.1634956     23  1.520                                             
     2     -9.5240782      7  1.500                                             
  local pseudopotential read in
  partial core-charges read in
  partial kinetic energy density read in
  kinetic energy density of atom read in
  atomic valenz-charges read in
  non local Contribution for L=           0  read in
    real space projection operators read in
  non local Contribution for L=           0  read in
    real space projection operators read in
  non local Contribution for L=           1  read in
    real space projection operators read in
  non local Contribution for L=           1  read in
    real space projection operators read in
    PAW grid and wavefunctions read in
 
   number of l-projection  operators is LMAX  =           4
   number of lm-projection operators is LMMAX =           8
 
 POTCAR:    PAW_PBE Mg 13Apr2007                  
   VRHFIN =Mg: s2p0                                                             
   LEXCH  = PE                                                                  
   EATOM  =    23.0369 eV,    1.6932 Ry                                         
                                                                                
   TITEL  = PAW_PBE Mg 13Apr2007                                                
   LULTRA =        F    use ultrasoft PP ?                                      
   IUNSCR =        1    unscreen: 0-lin 1-nonlin 2-no                           
   RPACOR =    1.500    partial core radius                                     
   POMASS =   24.305; ZVAL   =    2.000    mass and valenz                      
   RCORE  =    2.000    outmost cutoff radius                                   
   RWIGS  =    2.880; RWIGS  =    1.524    wigner-seitz radius (au A)           
   ENMAX  =  200.000; ENMIN  =  100.000 eV                                      
   RCLOC  =    1.506    cutoff for local pot                                    
   LCOR   =        T    correct aug charges                                     
   LPAW   =        T    paw PP                                                  
   EAUG   =  454.734                                                            
   DEXC   =    0.000                                                            
   RMAX   =    2.045    core radius for proj-oper                               
   RAUG   =    1.300    factor for augmentation sphere                          
   RDEP   =    2.025    radius for radial grids                                 
   RDEPT  =    1.942    core radius for aug-charge                              
                                                                                
   Atomic configuration                                                         
    6 entries                                                                   
     n  l   j            E        occ.                                          
     1  0  0.50     -1259.6230   2.0000                                         
     2  0  0.50       -79.8442   2.0000                                         
     2  1  1.50       -46.6121   6.0000                                         
     3  0  0.50        -4.7055   2.0000                                         
     3  1  0.50        -1.3660   0.0000                                         
     3  2  1.50        -1.3606   0.0000                                         
   Description                                                                  
     l       E           TYP  RCUT    TYP  RCUT                                 
     0     -4.7054661     23  2.000                                             
     0     27.2116520     23  2.000                                             
     1      1.3605826     23  2.000                                             
     1     27.2116520     23  2.000                                             
     2     -1.3605826     23  2.000                                             
  local pseudopotential read in
  partial core-charges read in
  partial kinetic energy density read in
  atomic valenz-charges read in
  non local Contribution for L=           0  read in
    real space projection operators read in
  non local Contribution for L=           0  read in
    real space projection operators read in
  non local Contribution for L=           1  read in
    real space projection operators read in
  non local Contribution for L=           1  read in
    real space projection operators read in
  non local Contribution for L=           2  read in
    real space projection operators read in
    PAW grid and wavefunctions read in
 
   number of l-projection  operators is LMAX  =           5
   number of lm-projection operators is LMMAX =          13
 
 POTCAR:    PAW_PBE Al 04Jan2001                  
   VRHFIN =Al: s2p1                                                             
   LEXCH  = PE                                                                  
   EATOM  =    53.5387 eV,    3.9350 Ry                                         
                                                                                
   TITEL  = PAW_PBE Al 04Jan2001                                                
   LULTRA =        F    use ultrasoft PP ?                                      
   IUNSCR =        1    unscreen: 0-lin 1-nonlin 2-no                           
   RPACOR =    1.500    partial core radius                                     
   POMASS =   26.981; ZVAL   =    3.000    mass and valenz                      
   RCORE  =    1.900    outmost cutoff radius                                   
   RWIGS  =    2.650; RWIGS  =    1.402    wigner-seitz radius (au A)           
   ENMAX  =  240.300; ENMIN  =  180.225 eV                                      
   ICORE  =        2    local potential                                         
   LCOR   =        T    correct aug charges                                     
   LPAW   =        T    paw PP                                                  
   EAUG   =  291.052                                                            
   DEXC   =    0.000                                                            
   RMAX   =    1.939    core radius for proj-oper                               
   RAUG   =    1.300    factor for augmentation sphere                          
   RDEP   =    1.966    radius for radial grids                                 
   RDEPT  =    1.856    core radius for aug-charge                              
                                                                                
   Atomic configuration                                                         
    6 entries                                                                   
     n  l   j            E        occ.                                          
     1  0  0.50     -1511.1048   2.0000                                         
     2  0  0.50      -108.1629   2.0000                                         
     2  1  1.50       -69.6402   6.0000                                         
     3  0  0.50        -7.7528   2.0000                                         
     3  1  1.50        -2.7121   1.0000                                         
     3  2  2.50        -2.7212   0.0000                                         
   Description                                                                  
     l       E           TYP  RCUT    TYP  RCUT                                 
     0     -7.7528455     23  1.900                                             
     0     -3.3096929     23  1.900                                             
     1     -2.7120682     23  1.900                                             
     1     13.6058260     23  1.900                                             
     2     -2.7211652      7  1.900                                             
  local pseudopotential read in
  partial core-charges read in
  partial kinetic energy density read in
  atomic valenz-charges read in
  non local Contribution for L=           0  read in
    real space projection operators read in
  non local Contribution for L=           0  read in
    real space projection operators read in
  non local Contribution for L=           1  read in
    real space projection operators read in
  non local Contribution for L=           1  read in
    real space projection operators read in
    PAW grid and wavefunctions read in
 
   number of l-projection  operators is LMAX  =           4
   number of lm-projection operators is LMMAX =           8
 

 ----------------------------------------------------------------------------- 
|                                                                             |
|  ADVICE TO THIS USER RUNNING 'VASP/VAMP'   (HEAR YOUR MASTER'S VOICE ...):  |
|                                                                             |
|      You have a (more or less) 'large supercell' and for larger cells       |
|      it might be more efficient to use real space projection opertators     |
|      So try LREAL= Auto  in the INCAR   file.                               |
|      Mind: At the moment your POTCAR file does not contain real space       |
|       projectors, and has to be modified,  BUT if you                       |
|      want to do an extremely  accurate calculation you might also keep the  |
|      reciprocal projection scheme          (i.e. LREAL=.FALSE.)             |
|                                                                             |
 ----------------------------------------------------------------------------- 

  PAW_PBE O 08Apr2002                   :
 energy of atom  1       EATOM= -432.3788
 kinetic energy error for atom=    0.0208 (will be added to EATOM!!)
  PAW_PBE Mg 13Apr2007                  :
 energy of atom  2       EATOM=  -23.0369
 kinetic energy error for atom=    0.0000 (will be added to EATOM!!)
  PAW_PBE Al 04Jan2001                  :
 energy of atom  3       EATOM=  -53.5387
 kinetic energy error for atom=    0.0002 (will be added to EATOM!!)
 
 
 POSCAR: Layer                                   
  positions in direct lattice
  velocities in cartesian coordinates
 exchange correlation table for  LEXCH =        8
   RHO(1)=    0.500       N(1)  =     2000
   RHO(2)=  100.500       N(2)  =     4000
 


--------------------------------------------------------------------------------------------------------


 ion  position               nearest neighbor table
   1  0.000  0.000  0.242-  21 1.76  14 2.08  14 2.08  14 2.08
   2  0.333  0.667  0.304-  11 2.14  11 2.14  11 2.14  14 2.14  14 2.14  14 2.14
   3  0.000  0.000  0.431-  17 2.14  17 2.14  17 2.14  15 2.14  15 2.14  15 2.14
   4  0.333  0.667  0.494-  15 2.14  15 2.14  15 2.14  12 2.14  12 2.14  12 2.14
   5  0.000  0.000  0.622-  16 2.14  16 2.14  16 2.14  18 2.14  18 2.14  18 2.14
   6  0.333  0.667  0.685-  13 2.14  13 2.14  13 2.14  16 2.14  16 2.14  16 2.14
   7  0.000  0.000  0.810-  24 1.76  19 2.08  19 2.08  19 2.08
   8  0.667  0.333  0.367-  17 2.14  17 2.14  17 2.14  11 2.14  11 2.14  11 2.14
   9  0.667  0.333  0.558-  12 2.14  12 2.14  12 2.14  18 2.14  18 2.14  18 2.14
  10  0.667  0.333  0.749-  13 2.14  13 2.14  13 2.14  19 2.14  19 2.14  19 2.14
  11  0.000  0.000  0.335-   8 2.14   8 2.14   8 2.14   2 2.14   2 2.14   2 2.14  17 3.04  17 3.04
                            17 3.04  14 3.05  14 3.05  14 3.05
  12  0.000  0.000  0.526-   9 2.14   9 2.14   9 2.14   4 2.14   4 2.14   4 2.14  15 3.04  15 3.04
                            15 3.04  18 3.04  18 3.04  18 3.04
  13  0.000  0.000  0.717-   6 2.14   6 2.14   6 2.14  10 2.14  10 2.14  10 2.14  16 3.04  16 3.04
                            16 3.04  19 3.04  19 3.04  19 3.04
  14  0.667  0.333  0.272-   1 2.08   1 2.08   1 2.08   2 2.14   2 2.14   2 2.14  11 3.05  11 3.05
                            11 3.05  21 3.38  21 3.38  21 3.38
  15  0.667  0.333  0.463-   4 2.14   4 2.14   4 2.14   3 2.14   3 2.14   3 2.14  12 3.04  12 3.04
                            12 3.04  17 3.04  17 3.04  17 3.04
  16  0.667  0.333  0.653-   6 2.14   6 2.14   6 2.14   5 2.14   5 2.14   5 2.14  13 3.04  13 3.04
                            13 3.04  18 3.04  18 3.04  18 3.04
  17  0.333  0.667  0.399-   8 2.14   8 2.14   8 2.14   3 2.14   3 2.14   3 2.14  11 3.04  11 3.04
                            11 3.04  15 3.04  15 3.04  15 3.04
  18  0.333  0.667  0.590-   9 2.14   9 2.14   9 2.14   5 2.14   5 2.14   5 2.14  12 3.04  12 3.04
                            12 3.04  16 3.04  16 3.04  16 3.04
  19  0.333  0.667  0.781-   7 2.08   7 2.08   7 2.08  10 2.14  10 2.14  10 2.14  13 3.04  13 3.04
                            13 3.04  24 3.38  24 3.38  24 3.38
  20  0.000  0.000  0.026-  25 2.85  25 2.85  25 2.85  23 2.85  23 2.85  23 2.85
  21  0.000  0.000  0.198-   1 1.76  22 2.81  22 2.81  22 2.81  14 3.38  14 3.38  14 3.38
  22  0.667  0.333  0.141-  21 2.81  21 2.81  21 2.81  23 2.87  23 2.87  23 2.87
  23  0.333  0.667  0.083-  20 2.85  20 2.85  20 2.85  22 2.87  22 2.87  22 2.87
  24  0.000  0.000  0.854-   7 1.76  26 2.80  26 2.80  26 2.80  19 3.38  19 3.38  19 3.38
  25  0.667  0.333  0.968-  20 2.85  20 2.85  20 2.85  26 2.86  26 2.86  26 2.86
  26  0.333  0.667  0.910-  24 2.80  24 2.80  24 2.80  25 2.86  25 2.86  25 2.86
 
  LATTYP: Found a hexagonal cell.
 ALAT       =     3.0027496481
 C/A-ratio  =    13.0924727003
  
  Lattice vectors:
  
 A1 = (   2.6004576727,  -1.5013744842,   0.0000000000)
 A2 = (   0.0000000000,   3.0027489684,   0.0000000000)
 A3 = (   0.0000000000,  -0.0000000000,  39.3134177940)


Analysis of symmetry for initial positions (statically):
=====================================================================
 Subroutine PRICEL returns:
 Original cell was already a primitive cell.
 

 Routine SETGRP: Setting up the symmetry group for a 
 hexagonal supercell.


 Subroutine GETGRP returns: Found  6 space group operations
 (whereof  6 operations were pure point group operations)
 out of a pool of 24 trial point group operations.


The static configuration has the point symmetry C_3v.


Analysis of symmetry for dynamics (positions and initial velocities):
=====================================================================
 Subroutine PRICEL returns:
 Original cell was already a primitive cell.
 

 Routine SETGRP: Setting up the symmetry group for a 
 hexagonal supercell.


 Subroutine GETGRP returns: Found  6 space group operations
 (whereof  6 operations were pure point group operations)
 out of a pool of 24 trial point group operations.


The dynamic configuration has the point symmetry C_3v.


Analysis of constrained symmetry for selective dynamics:
=====================================================================
 Subroutine PRICEL returns:
 Original cell was already a primitive cell.
 

 Routine SETGRP: Setting up the symmetry group for a 
 hexagonal supercell.


 Subroutine GETGRP returns: Found  6 space group operations
 (whereof  6 operations were pure point group operations)
 out of a pool of 24 trial point group operations.


The constrained configuration has the point symmetry C_3v.
 
 
 KPOINTS: K-Spacing Value to Generate K-Mesh: 0.02

Automatic generation of k-mesh.
Space group operators:
 irot       det(A)        alpha          n_x          n_y          n_z        tau_x        tau_y        tau_z
    1     1.000000     0.000000     1.000000     0.000000     0.000000     0.000000     0.000000     0.000000
    2     1.000000   120.000000    -0.000000    -0.000000    -1.000000     0.000000     0.000000     0.000000
    3     1.000000   120.000000     0.000000    -0.000000     1.000000     0.000000     0.000000     0.000000
    4    -1.000000   180.000000    -0.866025     0.500000     0.000000     0.000000     0.000000     0.000000
    5    -1.000000   180.000000     0.000000     1.000000     0.000000     0.000000     0.000000     0.000000
    6    -1.000000   180.000000    -0.866025    -0.500000     0.000000     0.000000     0.000000     0.000000
 
 Subroutine IBZKPT returns following result:
 ===========================================
 
 Found     21 irreducible k-points:
 
 Following reciprocal coordinates:
            Coordinates               Weight
  0.000000  0.000000  0.000000      1.000000
  0.076923  0.000000  0.000000      6.000000
  0.153846  0.000000  0.000000      6.000000
  0.230769  0.000000  0.000000      6.000000
  0.307692  0.000000 -0.000000      6.000000
  0.384615  0.000000  0.000000      6.000000
  0.461538  0.000000  0.000000      6.000000
  0.076923  0.076923  0.000000      6.000000
  0.153846  0.076923  0.000000     12.000000
  0.230769  0.076923  0.000000     12.000000
  0.307692  0.076923 -0.000000     12.000000
  0.384615  0.076923  0.000000     12.000000
  0.461538  0.076923  0.000000      6.000000
  0.153846  0.153846  0.000000      6.000000
  0.230769  0.153846  0.000000     12.000000
  0.307692  0.153846  0.000000     12.000000
  0.384615  0.153846  0.000000     12.000000
  0.230769  0.230769 -0.000000      6.000000
  0.307692  0.230769  0.000000     12.000000
  0.384615  0.230769  0.000000      6.000000
  0.307692  0.307692  0.000000      6.000000
 
 Following cartesian coordinates:
            Coordinates               Weight
  0.000000  0.000000  0.000000      1.000000
  0.029581  0.000000 -0.000000      6.000000
  0.059161  0.000000 -0.000000      6.000000
  0.088742  0.000000 -0.000000      6.000000
  0.118322  0.000000 -0.000000      6.000000
  0.147903  0.000000 -0.000000      6.000000
  0.177484  0.000000 -0.000000      6.000000
  0.044371  0.025618 -0.000000      6.000000
  0.073951  0.025618 -0.000000     12.000000
  0.103532  0.025618 -0.000000     12.000000
  0.133113  0.025618 -0.000000     12.000000
  0.162693  0.025618 -0.000000     12.000000
  0.192274  0.025618 -0.000000      6.000000
  0.088742  0.051235 -0.000000      6.000000
  0.118322  0.051235 -0.000000     12.000000
  0.147903  0.051235 -0.000000     12.000000
  0.177484  0.051235 -0.000000     12.000000
  0.133113  0.076853 -0.000000      6.000000
  0.162693  0.076853 -0.000000     12.000000
  0.192274  0.076853 -0.000000      6.000000
  0.177484  0.102470 -0.000000      6.000000
 


--------------------------------------------------------------------------------------------------------




 Dimension of arrays:
   k-points           NKPTS =     21   k-points in BZ     NKDIM =     21   number of bands    NBANDS=     64
   number of dos      NEDOS =    301   number of ions     NIONS =     26
   non local maximal  LDIM  =      5   non local SUM 2l+1 LMDIM =     13
   total plane-waves  NPLWV = 169344
   max r-space proj   IRMAX =      1   max aug-charges    IRDMAX= 187648
   dimension x,y,z NGX =    24 NGY =   24 NGZ =  294
   dimension x,y,z NGXF=    48 NGYF=   48 NGZF=  588
   support grid    NGXF=    96 NGYF=   96 NGZF= 1176
   ions per type =              10   9   7
 NGX,Y,Z   is equivalent  to a cutoff of  13.29, 13.29, 12.43 a.u.
 NGXF,Y,Z  is equivalent  to a cutoff of  26.57, 26.57, 24.86 a.u.


 I would recommend the setting:
   dimension x,y,z NGX =    22 NGY =   22 NGZ =  292
 SYSTEM =  unknown system                          
 POSCAR =  Layer                                   

 Startparameter for this run:
   NWRITE =      2    write-flag & timer
   PREC   = accura    normal or accurate (medium, high low for compatibility)
   ISTART =      0    job   : 0-new  1-cont  2-samecut
   ICHARG =      2    charge: 1-file 2-atom 10-const
   ISPIN  =      1    spin polarized calculation?
   LNONCOLLINEAR =      F non collinear calculations
   LSORBIT =      F    spin-orbit coupling
   INIWAV =      1    electr: 0-lowe 1-rand  2-diag
   LASPH  =      F    aspherical Exc in radial PAW
   METAGGA=      F    non-selfconsistent MetaGGA calc.

 Electronic Relaxation 1
   ENCUT  =  520.0 eV  38.22 Ry    6.18 a.u.   5.58  5.58 73.10*2*pi/ulx,y,z
   ENINI  =  520.0     initial cutoff
   ENAUG  =  605.4 eV  augmentation charge cutoff
   NELM   =    100;   NELMIN=  6; NELMDL=  0     # of ELM steps 
   EDIFF  = 0.1E-04   stopping-criterion for ELM
   LREAL  =      F    real-space projection
   NLSPLINE    = F    spline interpolate recip. space projectors
   LCOMPAT=      F    compatible to vasp.4.4
   GGA_COMPAT  = T    GGA compatible to vasp.4.4-vasp.4.6
   LMAXPAW     = -100 max onsite density
   LMAXMIX     =    2 max onsite mixed and CHGCAR
   VOSKOWN=      0    Vosko Wilk Nusair interpolation
   ROPT   =    0.00000   0.00000   0.00000
 Ionic relaxation
   EDIFFG = -.2E-01   stopping-criterion for IOM
   NSW    =    500    number of steps for IOM
   NBLOCK =      1;   KBLOCK =    500    inner block; outer block 
   IBRION =      2    ionic relax: 0-MD 1-quasi-New 2-CG
   NFREE  =      1    steps in history (QN), initial steepest desc. (CG)
   ISIF   =      2    stress and relaxation
   IWAVPR =     11    prediction:  0-non 1-charg 2-wave 3-comb
   ISYM   =      2    0-nonsym 1-usesym 2-fastsym
   LCORR  =      T    Harris-Foulkes like correction to forces

   POTIM  = 0.5000    time-step for ionic-motion
   TEIN   =    0.0    initial temperature
   TEBEG  =    0.0;   TEEND  =   0.0 temperature during run
   SMASS  =  -3.00    Nose mass-parameter (am)
   estimated Nose-frequenzy (Omega)   =  0.10E-29 period in steps =****** mass=  -0.206E-27a.u.
   SCALEE = 1.0000    scale energy and forces
   NPACO  =    256;   APACO  = 16.0  distance and # of slots for P.C.
   PSTRESS=    0.0 pullay stress

  Mass of Ions in am
   POMASS =  16.00 24.30 26.98
  Ionic Valenz
   ZVAL   =   6.00  2.00  3.00
  Atomic Wigner-Seitz radii
   RWIGS  =  -1.00 -1.00 -1.00
  virtual crystal weights 
   VCA    =   1.00  1.00  1.00
   NELECT =      99.0000    total number of electrons
   NUPDOWN=      -1.0000    fix difference up-down

 DOS related values:
   EMIN   =  10.00;   EMAX   =-10.00  energy-range for DOS
   EFERMI =   0.00
   ISMEAR =     0;   SIGMA  =   0.05  broadening in eV -4-tet -1-fermi 0-gaus

 Electronic relaxation 2 (details)
   IALGO  =     38    algorithm
   LDIAG  =      T    sub-space diagonalisation (order eigenvalues)
   LSUBROT=      F    optimize rotation matrix (better conditioning)
   TURBO    =      0    0=normal 1=particle mesh
   IRESTART =      0    0=no restart 2=restart with 2 vectors
   NREBOOT  =      0    no. of reboots
   NMIN     =      0    reboot dimension
   EREF     =   0.00    reference energy to select bands
   IMIX   =      4    mixing-type and parameters
     AMIX     =   0.40;   BMIX     =  1.00
     AMIX_MAG =   1.60;   BMIX_MAG =  1.00
     AMIN     =   0.01
     WC   =   100.;   INIMIX=   1;  MIXPRE=   1;  MAXMIX= -45

 Intra band minimization:
   WEIMIN = 0.0010     energy-eigenvalue tresh-hold
   EBREAK =  0.39E-07  absolut break condition
   DEPER  =   0.30     relativ break condition  

   TIME   =   0.40     timestep for ELM

  volume/ion in A,a.u.               =      11.81        79.68
  Fermi-wavevector in a.u.,A,eV,Ry     =   1.122665  2.121528 17.148453  1.260376
  Thomas-Fermi vector in A             =   2.259326
 
 Write flags
   LWAVE  =      F    write WAVECAR
   LCHARG =      T    write CHGCAR
   LVTOT  =      F    write LOCPOT, total local potential
   LVHAR  =      F    write LOCPOT, Hartree potential only
   LELF   =      F    write electronic localiz. function (ELF)
   LORBIT =      0    0 simple, 1 ext, 2 COOP (PROOUT)


 Dipole corrections
   LMONO  =      F    monopole corrections only (constant potential shift)
   LDIPOL =      F    correct potential (dipole corrections)
   IDIPOL =      0    1-x, 2-y, 3-z, 4-all directions 
   EPSILON=  1.0000000 bulk dielectric constant

 Exchange correlation treatment:
   GGA     =    --    GGA type
   LEXCH   =     8    internal setting for exchange type
   VOSKOWN=      0    Vosko Wilk Nusair interpolation
   LHFCALC =     F    Hartree Fock is set to
   LHFONE  =     F    Hartree Fock one center treatment
   AEXX    =    0.0000 exact exchange contribution

 Linear response parameters
   LEPSILON=     F    determine dielectric tensor
   LRPA    =     F    only Hartree local field effects (RPA)
   LNABLA  =     F    use nabla operator in PAW spheres
   LVEL    =     F    velocity operator in full k-point grid
   LINTERFAST=   F  fast interpolation
   KINTER  =     0    interpolate to denser k-point grid
   CSHIFT  =0.1000    complex shift for real part using Kramers Kronig
   OMEGAMAX=  -1.0    maximum frequency
   DEG_THRESHOLD= 0.2000000E-02 threshold for treating states as degnerate
   RTIME   =    0.100 relaxation time in fs

 Orbital magnetization related:
   ORBITALMAG=     F  switch on orbital magnetization
   LCHIMAG   =     F  perturbation theory with respect to B field
   DQ        =  0.001000  dq finite difference perturbation B field



--------------------------------------------------------------------------------------------------------


 conjugate gradient relaxation of ions
   using selective dynamics as specified on POSCAR
 charge density and potential will be updated during run
 non-spin polarized calculation
 Variant of blocked Davidson
 Davidson routine will perform the subspace rotation
 perform sub-space diagonalisation
    after iterative eigenvector-optimisation
 modified Broyden-mixing scheme, WC =      100.0
 initial mixing is a Kerker type mixing with AMIX =  0.4000 and BMIX =      1.0000
 Hartree-type preconditioning will be used
 using additional bands           14
 reciprocal scheme for non local part
 use partial core corrections
 calculate Harris-corrections to forces 
   (improved forces if not selfconsistent)
 use gradient corrections 
 use of overlap-Matrix (Vanderbilt PP)
 Gauss-broadening in eV      SIGMA  =   0.05


--------------------------------------------------------------------------------------------------------


  energy-cutoff  :      520.00
  volume of cell :      306.98
      direct lattice vectors                 reciprocal lattice vectors
     2.600457673 -1.501374484  0.000000000     0.384547693  0.000000000 -0.000000000
     0.000000000  3.002748968  0.000000000     0.192273847  0.333028172 -0.000000000
     0.000000000 -0.000000000 39.313417794     0.000000000  0.000000000  0.025436608

  length of vectors
     3.002749648  3.002748968 39.313417794     0.384547693  0.384547781  0.025436608


 
 k-points in units of 2pi/SCALE and weight: K-Spacing Value to Generate K-Mesh: 0.02
   0.00000000  0.00000000  0.00000000       0.006
   0.02958059  0.00000000 -0.00000000       0.036
   0.05916118  0.00000000 -0.00000000       0.036
   0.08874178  0.00000000 -0.00000000       0.036
   0.11832237  0.00000000 -0.00000000       0.036
   0.14790296  0.00000000 -0.00000000       0.036
   0.17748355  0.00000000 -0.00000000       0.036
   0.04437089  0.02561755 -0.00000000       0.036
   0.07395148  0.02561755 -0.00000000       0.071
   0.10353207  0.02561755 -0.00000000       0.071
   0.13311266  0.02561755 -0.00000000       0.071
   0.16269325  0.02561755 -0.00000000       0.071
   0.19227385  0.02561755 -0.00000000       0.036
   0.08874178  0.05123510 -0.00000000       0.036
   0.11832237  0.05123510 -0.00000000       0.071
   0.14790296  0.05123510 -0.00000000       0.071
   0.17748355  0.05123510 -0.00000000       0.071
   0.13311266  0.07685266 -0.00000000       0.036
   0.16269325  0.07685266 -0.00000000       0.071
   0.19227385  0.07685266 -0.00000000       0.036
   0.17748355  0.10247021 -0.00000000       0.036
 
 k-points in reciprocal lattice and weights: K-Spacing Value to Generate K-Mesh: 0.02
   0.00000000  0.00000000  0.00000000       0.006
   0.07692308  0.00000000  0.00000000       0.036
   0.15384615  0.00000000  0.00000000       0.036
   0.23076923  0.00000000  0.00000000       0.036
   0.30769231  0.00000000 -0.00000000       0.036
   0.38461538  0.00000000  0.00000000       0.036
   0.46153846  0.00000000  0.00000000       0.036
   0.07692308  0.07692308  0.00000000       0.036
   0.15384615  0.07692308  0.00000000       0.071
   0.23076923  0.07692308  0.00000000       0.071
   0.30769231  0.07692308 -0.00000000       0.071
   0.38461538  0.07692308  0.00000000       0.071
   0.46153846  0.07692308  0.00000000       0.036
   0.15384615  0.15384615  0.00000000       0.036
   0.23076923  0.15384615  0.00000000       0.071
   0.30769231  0.15384615  0.00000000       0.071
   0.38461538  0.15384615  0.00000000       0.071
   0.23076923  0.23076923 -0.00000000       0.036
   0.30769231  0.23076923  0.00000000       0.071
   0.38461538  0.23076923  0.00000000       0.036
   0.30769231  0.30769231  0.00000000       0.036
 
 position of ions in fractional coordinates (direct lattice) 
   0.00000000  0.00000000  0.24237873
   0.33333300  0.66666700  0.30353474
   0.00000000  0.00000000  0.43073993
   0.33333300  0.66666700  0.49431729
   0.00000000  0.00000000  0.62152239
   0.33333300  0.66666700  0.68513056
   0.00000000  0.00000000  0.80973085
   0.66666700  0.33333300  0.36714154
   0.66666700  0.33333300  0.55791066
   0.66666700  0.33333300  0.74869093
   0.00000000  0.00000000  0.33534022
   0.00000000  0.00000000  0.52611931
   0.00000000  0.00000000  0.71689548
   0.66666700  0.33333300  0.27160586
   0.66666700  0.33333300  0.46254322
   0.66666700  0.33333300  0.65332936
   0.33333300  0.66666700  0.39893828
   0.33333300  0.66666700  0.58971201
   0.33333300  0.66666700  0.78056736
   0.00000000  0.00000000  0.02563934
   0.00000000  0.00000000  0.19771457
   0.66666700  0.33333300  0.14134987
   0.33333300  0.66666700  0.08312886
   0.00000000  0.00000000  0.85437434
   0.66666700  0.33333300  0.96824569
   0.33333300  0.66666700  0.91036566
 
 position of ions in cartesian coordinates  (Angst):
   0.00000000 -0.00000000  9.52873609
   0.86681836  1.50137599 11.93298796
   0.00000000 -0.00000000 16.93385876
   0.86681836  1.50137599 19.43330196
   0.00000000 -0.00000000 24.43416952
   0.86681836  1.50137599 26.93482377
   0.00000000 -0.00000000 31.83328722
   1.73363932 -0.00000150 14.43358881
   1.73363932 -0.00000150 21.93337481
   1.73363932 -0.00000150 29.43359922
   0.00000000 -0.00000000 13.18337033
   0.00000000 -0.00000000 20.68354809
   0.00000000 -0.00000000 28.18361138
   1.73363932 -0.00000150 10.67775452
   1.73363932 -0.00000150 18.18415470
   1.73363932 -0.00000150 25.68460994
   0.86681836  1.50137599 15.68362714
   0.86681836  1.50137599 23.18359446
   0.86681836  1.50137599 30.68677076
   0.00000000 -0.00000000  1.00796993
   0.00000000 -0.00000000  7.77283537
   1.73363932 -0.00000150  5.55694646
   0.86681836  1.50137599  3.26807955
   0.00000000 -0.00000000 33.58837542
   1.73363932 -0.00000150 38.06504741
   0.86681836  1.50137599 35.78958535
 


--------------------------------------------------------------------------------------------------------


 k-point  1 :   0.0000 0.0000 0.0000  plane waves:    8379
 k-point  2 :   0.0769 0.0000 0.0000  plane waves:    8359
 k-point  3 :   0.1538 0.0000 0.0000  plane waves:    8335
 k-point  4 :   0.2308 0.0000 0.0000  plane waves:    8310
 k-point  5 :   0.3077 0.0000-0.0000  plane waves:    8268
 k-point  6 :   0.3846 0.0000 0.0000  plane waves:    8214
 k-point  7 :   0.4615 0.0000 0.0000  plane waves:    8236
 k-point  8 :   0.0769 0.0769 0.0000  plane waves:    8349
 k-point  9 :   0.1538 0.0769 0.0000  plane waves:    8332
 k-point 10 :   0.2308 0.0769 0.0000  plane waves:    8287
 k-point 11 :   0.3077 0.0769-0.0000  plane waves:    8252
 k-point 12 :   0.3846 0.0769 0.0000  plane waves:    8235
 k-point 13 :   0.4615 0.0769 0.0000  plane waves:    8208
 k-point 14 :   0.1538 0.1538 0.0000  plane waves:    8275
 k-point 15 :   0.2308 0.1538 0.0000  plane waves:    8260
 k-point 16 :   0.3077 0.1538 0.0000  plane waves:    8244
 k-point 17 :   0.3846 0.1538 0.0000  plane waves:    8220
 k-point 18 :   0.2308 0.2308-0.0000  plane waves:    8254
 k-point 19 :   0.3077 0.2308 0.0000  plane waves:    8245
 k-point 20 :   0.3846 0.2308 0.0000  plane waves:    8240
 k-point 21 :   0.3077 0.3077 0.0000  plane waves:    8260

 maximum and minimum number of plane-waves per node :      2115     2029

 maximum number of plane-waves:      8379
 maximum index in each direction: 
   IXMAX=    5   IYMAX=    5   IZMAX=   73
   IXMIN=   -6   IYMIN=   -5   IZMIN=  -73

 NGX is ok and might be reduce to  24
 NGY is ok and might be reduce to  22
 NGZ is ok and might be reduce to 294

 parallel 3D FFT for wavefunctions:
    minimum data exchange during FFTs selected (reduces bandwidth)
 parallel 3D FFT for charge:
    minimum data exchange during FFTs selected (reduces bandwidth)


 total amount of memory used by VASP on root node   138987. kBytes
========================================================================

   base      :      30000. kBytes
   nonl-proj :      14632. kBytes
   fftplans  :      50690. kBytes
   grid      :      20321. kBytes
   one-center:         56. kBytes
   wavefun   :      23288. kBytes
 
     INWAV:  cpu time    0.00: real time    0.00
 Broyden mixing: mesh for mixing (old mesh)
   NGX = 11   NGY = 11   NGZ =147
  (NGX  = 48   NGY  = 48   NGZ  =588)
  gives a total of  17787 points

 initial charge density was supplied:
 charge density of overlapping atoms calculated
 number of electron      99.0000000 magnetization 
 keeping initial charge density in first step


--------------------------------------------------------------------------------------------------------


 Maximum index for augmentation-charges        22614 (set IRDMAX)


--------------------------------------------------------------------------------------------------------


 First call to EWALD:  gamma=   0.263
 Maximum number of real-space cells 6x 6x 1
 Maximum number of reciprocal cells 1x 1x14

 FEWALD executed in parallel
    FEWALD:  cpu time    0.00: real time    0.00


----------------------------------------- Iteration    1(   1)  ---------------------------------------


    POTLOK:  cpu time    0.09: real time    0.09
    SETDIJ:  cpu time    0.09: real time    0.09
     EDDAV:  cpu time    3.90: real time    3.92
       DOS:  cpu time    0.00: real time    0.00
    --------------------------------------------
      LOOP:  cpu time    4.08: real time    4.11

 eigenvalue-minimisations  :  2696
 total energy-change (2. order) : 0.4980480E+03  (-0.4463753E+04)
 number of electron      99.0000000 magnetization 
 augmentation part       99.0000000 magnetization 

 Free energy of the ion-electron system (eV)
  ---------------------------------------------------
  alpha Z        PSCENC =       137.47374122
  Ewald energy   TEWEN  =      7357.95007171
  -Hartree energ DENC   =    -12559.73672456
  -exchange      EXHF   =         0.00000000
  -V(xc)+E(xc)   XCENC  =      -341.81172331
  PAW double counting   =      4516.65612620    -3844.19644948
  entropy T*S    EENTRO =        -0.00512777
  eigenvalues    EBANDS =       326.03728270
  atomic energy  EATOM  =      4905.68083858
  ---------------------------------------------------
  free energy    TOTEN  =       498.04803528 eV

  energy without entropy =      498.05316305  energy(sigma->0) =      498.05059916


--------------------------------------------------------------------------------------------------------




----------------------------------------- Iteration    1(   2)  ---------------------------------------


     EDDAV:  cpu time    4.72: real time    4.73
       DOS:  cpu time    0.00: real time    0.00
    --------------------------------------------
      LOOP:  cpu time    4.72: real time    4.73

 eigenvalue-minimisations  :  3448
 total energy-change (2. order) :-0.6040544E+03  (-0.5754981E+03)
 number of electron      99.0000000 magnetization 
 augmentation part       99.0000000 magnetization 

 Free energy of the ion-electron system (eV)
  ---------------------------------------------------
  alpha Z        PSCENC =       137.47374122
  Ewald energy   TEWEN  =      7357.95007171
  -Hartree energ DENC   =    -12559.73672456
  -exchange      EXHF   =         0.00000000
  -V(xc)+E(xc)   XCENC  =      -341.81172331
  PAW double counting   =      4516.65612620    -3844.19644948
  entropy T*S    EENTRO =        -0.00337131
  eigenvalues    EBANDS =      -278.01884753
  atomic energy  EATOM  =      4905.68083858
  ---------------------------------------------------
  free energy    TOTEN  =      -106.00633850 eV

  energy without entropy =     -106.00296718  energy(sigma->0) =     -106.00465284


--------------------------------------------------------------------------------------------------------




----------------------------------------- Iteration    1(   3)  ---------------------------------------


     EDDAV:  cpu time    4.31: real time    4.31
       DOS:  cpu time    0.00: real time    0.00
    --------------------------------------------
      LOOP:  cpu time    4.31: real time    4.32

 eigenvalue-minimisations  :  3152
 total energy-change (2. order) :-0.5199960E+02  (-0.5172540E+02)
 number of electron      99.0000000 magnetization 
 augmentation part       99.0000000 magnetization 

 Free energy of the ion-electron system (eV)
  ---------------------------------------------------
  alpha Z        PSCENC =       137.47374122
  Ewald energy   TEWEN  =      7357.95007171
  -Hartree energ DENC   =    -12559.73672456
  -exchange      EXHF   =         0.00000000
  -V(xc)+E(xc)   XCENC  =      -341.81172331
  PAW double counting   =      4516.65612620    -3844.19644948
  entropy T*S    EENTRO =        -0.00400299
  eigenvalues    EBANDS =      -330.01781568
  atomic energy  EATOM  =      4905.68083858
  ---------------------------------------------------
  free energy    TOTEN  =      -158.00593833 eV

  energy without entropy =     -158.00193534  energy(sigma->0) =     -158.00393683


--------------------------------------------------------------------------------------------------------




----------------------------------------- Iteration    1(   4)  ---------------------------------------


     EDDAV:  cpu time    4.13: real time    4.13
       DOS:  cpu time    0.00: real time    0.00
    --------------------------------------------
      LOOP:  cpu time    4.13: real time    4.14

 eigenvalue-minimisations  :  3160
 total energy-change (2. order) :-0.6210948E+00  (-0.6201852E+00)
 number of electron      99.0000000 magnetization 
 augmentation part       99.0000000 magnetization 

 Free energy of the ion-electron system (eV)
  ---------------------------------------------------
  alpha Z        PSCENC =       137.47374122
  Ewald energy   TEWEN  =      7357.95007171
  -Hartree energ DENC   =    -12559.73672456
  -exchange      EXHF   =         0.00000000
  -V(xc)+E(xc)   XCENC  =      -341.81172331
  PAW double counting   =      4516.65612620    -3844.19644948
  entropy T*S    EENTRO =        -0.00412620
  eigenvalues    EBANDS =      -330.63878730
  atomic energy  EATOM  =      4905.68083858
  ---------------------------------------------------
  free energy    TOTEN  =      -158.62703316 eV

  energy without entropy =     -158.62290696  energy(sigma->0) =     -158.62497006


--------------------------------------------------------------------------------------------------------




----------------------------------------- Iteration    1(   5)  ---------------------------------------


     EDDAV:  cpu time    4.30: real time    4.30
       DOS:  cpu time    0.00: real time    0.00
    CHARGE:  cpu time    0.34: real time    0.35
    MIXING:  cpu time    0.00: real time    0.00
    --------------------------------------------
      LOOP:  cpu time    4.65: real time    4.65

 eigenvalue-minimisations  :  3248
 total energy-change (2. order) :-0.9056863E-02  (-0.9053905E-02)
 number of electron      99.0000001 magnetization 
 augmentation part        7.8162122 magnetization 

 Broyden mixing:
  rms(total) = 0.23651E+01    rms(broyden)= 0.23646E+01
  rms(prec ) = 0.24335E+01
  weight for this iteration     100.00

 Free energy of the ion-electron system (eV)
  ---------------------------------------------------
  alpha Z        PSCENC =       137.47374122
  Ewald energy   TEWEN  =      7357.95007171
  -Hartree energ DENC   =    -12559.73672456
  -exchange      EXHF   =         0.00000000
  -V(xc)+E(xc)   XCENC  =      -341.81172331
  PAW double counting   =      4516.65612620    -3844.19644948
  entropy T*S    EENTRO =        -0.00412542
  eigenvalues    EBANDS =      -330.64784495
  atomic energy  EATOM  =      4905.68083858
  ---------------------------------------------------
  free energy    TOTEN  =      -158.63609002 eV

  energy without entropy =     -158.63196460  energy(sigma->0) =     -158.63402731


--------------------------------------------------------------------------------------------------------




----------------------------------------- Iteration    1(   6)  ---------------------------------------


    POTLOK:  cpu time    0.09: real time    0.09
    SETDIJ:  cpu time    0.09: real time    0.09
     EDDAV:  cpu time    4.24: real time    4.25
       DOS:  cpu time    0.00: real time    0.00
    CHARGE:  cpu time    0.36: real time    0.36
    MIXING:  cpu time    0.00: real time    0.00
    --------------------------------------------
      LOOP:  cpu time    4.79: real time    4.79

 eigenvalue-minimisations  :  3208
 total energy-change (2. order) : 0.1672199E+02  (-0.9218153E+01)
 number of electron      99.0000001 magnetization 
 augmentation part        6.3065822 magnetization 

 Broyden mixing:
  rms(total) = 0.79477E+00    rms(broyden)= 0.79375E+00
  rms(prec ) = 0.80297E+00
  weight for this iteration     100.00

 eigenvalues of (default mixing * dielectric matrix)
  average eigenvalue GAMMA=   0.8478
  0.8478

 Free energy of the ion-electron system (eV)
  ---------------------------------------------------
  alpha Z        PSCENC =       137.47374122
  Ewald energy   TEWEN  =      7357.95007171
  -Hartree energ DENC   =    -12759.46914508
  -exchange      EXHF   =         0.00000000
  -V(xc)+E(xc)   XCENC  =      -328.19315395
  PAW double counting   =      5425.67737015    -4756.78085200
  entropy T*S    EENTRO =        -0.00566492
  eigenvalues    EBANDS =      -124.24730198
  atomic energy  EATOM  =      4905.68083858
  ---------------------------------------------------
  free energy    TOTEN  =      -141.91409626 eV

  energy without entropy =     -141.90843134  energy(sigma->0) =     -141.91126380


--------------------------------------------------------------------------------------------------------




----------------------------------------- Iteration    1(   7)  ---------------------------------------


    POTLOK:  cpu time    0.09: real time    0.09
    SETDIJ:  cpu time    0.09: real time    0.09
     EDDAV:  cpu time    4.07: real time    4.07
       DOS:  cpu time    0.00: real time    0.00
    CHARGE:  cpu time    0.35: real time    0.35
    MIXING:  cpu time    0.00: real time    0.00
    --------------------------------------------
      LOOP:  cpu time    4.61: real time    4.61

 eigenvalue-minimisations  :  3016
 total energy-change (2. order) : 0.2083984E-01  (-0.2735549E+00)
 number of electron      99.0000002 magnetization 
 augmentation part        6.3242816 magnetization 

 Broyden mixing:
  rms(total) = 0.49297E+00    rms(broyden)= 0.49295E+00
  rms(prec ) = 0.50096E+00
  weight for this iteration     100.00

 eigenvalues of (default mixing * dielectric matrix)
  average eigenvalue GAMMA=   1.4525
  1.0227  1.8823

 Free energy of the ion-electron system (eV)
  ---------------------------------------------------
  alpha Z        PSCENC =       137.47374122
  Ewald energy   TEWEN  =      7357.95007171
  -Hartree energ DENC   =    -12760.41188599
  -exchange      EXHF   =         0.00000000
  -V(xc)+E(xc)   XCENC  =      -327.78951005
  PAW double counting   =      5798.57301790    -5129.23379332
  entropy T*S    EENTRO =        -0.00623971
  eigenvalues    EBANDS =      -124.12949676
  atomic energy  EATOM  =      4905.68083858
  ---------------------------------------------------
  free energy    TOTEN  =      -141.89325642 eV

  energy without entropy =     -141.88701671  energy(sigma->0) =     -141.89013656


--------------------------------------------------------------------------------------------------------




----------------------------------------- Iteration    1(   8)  ---------------------------------------


    POTLOK:  cpu time    0.09: real time    0.09
    SETDIJ:  cpu time    0.09: real time    0.09
     EDDAV:  cpu time    4.30: real time    4.30
       DOS:  cpu time    0.00: real time    0.00
    CHARGE:  cpu time    0.35: real time    0.35
    MIXING:  cpu time    0.00: real time    0.00
    --------------------------------------------
      LOOP:  cpu time    4.83: real time    4.83

 eigenvalue-minimisations  :  3120
 total energy-change (2. order) : 0.1389876E+00  (-0.6538652E-01)
 number of electron      99.0000001 magnetization 
 augmentation part        6.3905937 magnetization 

 Broyden mixing:
  rms(total) = 0.12495E+00    rms(broyden)= 0.12489E+00
  rms(prec ) = 0.13386E+00
  weight for this iteration     100.00

 eigenvalues of (default mixing * dielectric matrix)
  average eigenvalue GAMMA=   1.3678
  2.3788  0.8901  0.8345

 Free energy of the ion-electron system (eV)
  ---------------------------------------------------
  alpha Z        PSCENC =       137.47374122
  Ewald energy   TEWEN  =      7357.95007171
  -Hartree energ DENC   =    -12767.27947077
  -exchange      EXHF   =         0.00000000
  -V(xc)+E(xc)   XCENC  =      -326.74481018
  PAW double counting   =      6284.97635006    -5615.31664570
  entropy T*S    EENTRO =        -0.00677180
  eigenvalues    EBANDS =      -118.48757192
  atomic energy  EATOM  =      4905.68083858
  ---------------------------------------------------
  free energy    TOTEN  =      -141.75426880 eV

  energy without entropy =     -141.74749700  energy(sigma->0) =     -141.75088290


--------------------------------------------------------------------------------------------------------




----------------------------------------- Iteration    1(   9)  ---------------------------------------


    POTLOK:  cpu time    0.09: real time    0.09
    SETDIJ:  cpu time    0.09: real time    0.09
     EDDAV:  cpu time    4.23: real time    4.24
       DOS:  cpu time    0.00: real time    0.00
    CHARGE:  cpu time    0.34: real time    0.34
    MIXING:  cpu time    0.00: real time    0.00
    --------------------------------------------
      LOOP:  cpu time    4.76: real time    4.77

 eigenvalue-minimisations  :  3064
 total energy-change (2. order) : 0.3145811E-01  (-0.1460666E-01)
 number of electron      99.0000001 magnetization 
 augmentation part        6.3563031 magnetization 

 Broyden mixing:
  rms(total) = 0.62559E-01    rms(broyden)= 0.62552E-01
  rms(prec ) = 0.70909E-01
  weight for this iteration     100.00

 eigenvalues of (default mixing * dielectric matrix)
  average eigenvalue GAMMA=   1.3302
  2.3891  0.9448  0.9448  1.0420

 Free energy of the ion-electron system (eV)
  ---------------------------------------------------
  alpha Z        PSCENC =       137.47374122
  Ewald energy   TEWEN  =      7357.95007171
  -Hartree energ DENC   =    -12775.49685676
  -exchange      EXHF   =         0.00000000
  -V(xc)+E(xc)   XCENC  =      -326.07169082
  PAW double counting   =      6402.51056681    -5732.89046879
  entropy T*S    EENTRO =        -0.00608329
  eigenvalues    EBANDS =      -110.87292935
  atomic energy  EATOM  =      4905.68083858
  ---------------------------------------------------
  free energy    TOTEN  =      -141.72281069 eV

  energy without entropy =     -141.71672740  energy(sigma->0) =     -141.71976905


--------------------------------------------------------------------------------------------------------




----------------------------------------- Iteration    1(  10)  ---------------------------------------


    POTLOK:  cpu time    0.09: real time    0.09
    SETDIJ:  cpu time    0.09: real time    0.09
     EDDAV:  cpu time    4.24: real time    4.25
       DOS:  cpu time    0.00: real time    0.00
    CHARGE:  cpu time    0.34: real time    0.34
    MIXING:  cpu time    0.00: real time    0.00
    --------------------------------------------
      LOOP:  cpu time    4.77: real time    4.77

 eigenvalue-minimisations  :  3072
 total energy-change (2. order) : 0.4319024E-02  (-0.7524993E-02)
 number of electron      99.0000001 magnetization 
 augmentation part        6.3399960 magnetization 

 Broyden mixing:
  rms(total) = 0.30504E-01    rms(broyden)= 0.30470E-01
  rms(prec ) = 0.40101E-01
  weight for this iteration     100.00

 eigenvalues of (default mixing * dielectric matrix)
  average eigenvalue GAMMA=   1.3441
  2.5334  1.6353  0.9753  0.7882  0.7882

 Free energy of the ion-electron system (eV)
  ---------------------------------------------------
  alpha Z        PSCENC =       137.47374122
  Ewald energy   TEWEN  =      7357.95007171
  -Hartree energ DENC   =    -12777.84088986
  -exchange      EXHF   =         0.00000000
  -V(xc)+E(xc)   XCENC  =      -325.94605163
  PAW double counting   =      6387.18281764    -5717.58176284
  entropy T*S    EENTRO =        -0.00583873
  eigenvalues    EBANDS =      -108.63141776
  atomic energy  EATOM  =      4905.68083858
  ---------------------------------------------------
  free energy    TOTEN  =      -141.71849166 eV

  energy without entropy =     -141.71265294  energy(sigma->0) =     -141.71557230


--------------------------------------------------------------------------------------------------------




----------------------------------------- Iteration    1(  11)  ---------------------------------------


    POTLOK:  cpu time    0.09: real time    0.09
    SETDIJ:  cpu time    0.09: real time    0.09
     EDDAV:  cpu time    4.50: real time    4.51
       DOS:  cpu time    0.00: real time    0.00
    CHARGE:  cpu time    0.34: real time    0.34
    MIXING:  cpu time    0.00: real time    0.00
    --------------------------------------------
      LOOP:  cpu time    5.03: real time    5.04

 eigenvalue-minimisations  :  3320
 total energy-change (2. order) : 0.4824214E-02  (-0.6159854E-03)
 number of electron      99.0000001 magnetization 
 augmentation part        6.3369074 magnetization 

 Broyden mixing:
  rms(total) = 0.22004E-01    rms(broyden)= 0.22002E-01
  rms(prec ) = 0.34294E-01
  weight for this iteration     100.00

 eigenvalues of (default mixing * dielectric matrix)
  average eigenvalue GAMMA=   1.3947
  2.5779  2.2124  0.9322  0.9322  0.8568  0.8568

 Free energy of the ion-electron system (eV)
  ---------------------------------------------------
  alpha Z        PSCENC =       137.47374122
  Ewald energy   TEWEN  =      7357.95007171
  -Hartree energ DENC   =    -12779.76488448
  -exchange      EXHF   =         0.00000000
  -V(xc)+E(xc)   XCENC  =      -325.85124519
  PAW double counting   =      6365.74826688    -5696.15852134
  entropy T*S    EENTRO =        -0.00579298
  eigenvalues    EBANDS =      -106.78614185
  atomic energy  EATOM  =      4905.68083858
  ---------------------------------------------------
  free energy    TOTEN  =      -141.71366745 eV

  energy without entropy =     -141.70787447  energy(sigma->0) =     -141.71077096


--------------------------------------------------------------------------------------------------------




----------------------------------------- Iteration    1(  12)  ---------------------------------------


    POTLOK:  cpu time    0.09: real time    0.09
    SETDIJ:  cpu time    0.09: real time    0.09
     EDDAV:  cpu time    4.54: real time    4.55
       DOS:  cpu time    0.00: real time    0.00
    CHARGE:  cpu time    0.34: real time    0.34
    MIXING:  cpu time    0.00: real time    0.00
    --------------------------------------------
      LOOP:  cpu time    5.07: real time    5.08

 eigenvalue-minimisations  :  3472
 total energy-change (2. order) : 0.3525529E-02  (-0.4817519E-03)
 number of electron      99.0000001 magnetization 
 augmentation part        6.3366887 magnetization 

 Broyden mixing:
  rms(total) = 0.13607E-01    rms(broyden)= 0.13606E-01
  rms(prec ) = 0.27119E-01
  weight for this iteration     100.00

 eigenvalues of (default mixing * dielectric matrix)
  average eigenvalue GAMMA=   1.3790
  2.8672  2.5234  0.9477  0.9477  0.8875  0.8875  0.5919

 Free energy of the ion-electron system (eV)
  ---------------------------------------------------
  alpha Z        PSCENC =       137.47374122
  Ewald energy   TEWEN  =      7357.95007171
  -Hartree energ DENC   =    -12780.58121653
  -exchange      EXHF   =         0.00000000
  -V(xc)+E(xc)   XCENC  =      -325.84265505
  PAW double counting   =      6352.36436952    -5682.77575138
  entropy T*S    EENTRO =        -0.00577927
  eigenvalues    EBANDS =      -105.97376074
  atomic energy  EATOM  =      4905.68083858
  ---------------------------------------------------
  free energy    TOTEN  =      -141.71014192 eV

  energy without entropy =     -141.70436266  energy(sigma->0) =     -141.70725229


--------------------------------------------------------------------------------------------------------




----------------------------------------- Iteration    1(  13)  ---------------------------------------


    POTLOK:  cpu time    0.09: real time    0.09
    SETDIJ:  cpu time    0.09: real time    0.09
     EDDAV:  cpu time    5.63: real time    5.64
       DOS:  cpu time    0.00: real time    0.00
    CHARGE:  cpu time    0.34: real time    0.34
    MIXING:  cpu time    0.00: real time    0.00
    --------------------------------------------
      LOOP:  cpu time    6.16: real time    6.17

 eigenvalue-minimisations  :  4392
 total energy-change (2. order) : 0.6335950E-02  (-0.2911653E-03)
 number of electron      99.0000001 magnetization 
 augmentation part        6.3377892 magnetization 

 Broyden mixing:
  rms(total) = 0.87154E-02    rms(broyden)= 0.87144E-02
  rms(prec ) = 0.22425E-01
  weight for this iteration     100.00

 eigenvalues of (default mixing * dielectric matrix)
  average eigenvalue GAMMA=   1.3738
  2.8436  2.4755  1.2586  0.8577  0.8577  0.9881  0.9881  0.7211

 Free energy of the ion-electron system (eV)
  ---------------------------------------------------
  alpha Z        PSCENC =       137.47374122
  Ewald energy   TEWEN  =      7357.95007171
  -Hartree energ DENC   =    -12782.07706576
  -exchange      EXHF   =         0.00000000
  -V(xc)+E(xc)   XCENC  =      -325.86468600
  PAW double counting   =      6323.97375943    -5654.38095085
  entropy T*S    EENTRO =        -0.00572985
  eigenvalues    EBANDS =      -104.45378444
  atomic energy  EATOM  =      4905.68083858
  ---------------------------------------------------
  free energy    TOTEN  =      -141.70380597 eV

  energy without entropy =     -141.69807612  energy(sigma->0) =     -141.70094104


--------------------------------------------------------------------------------------------------------




----------------------------------------- Iteration    1(  14)  ---------------------------------------


    POTLOK:  cpu time    0.09: real time    0.09
    SETDIJ:  cpu time    0.09: real time    0.09
     EDDAV:  cpu time    4.72: real time    4.73
       DOS:  cpu time    0.00: real time    0.00
    CHARGE:  cpu time    0.35: real time    0.35
    MIXING:  cpu time    0.00: real time    0.00
    --------------------------------------------
      LOOP:  cpu time    5.25: real time    5.26

 eigenvalue-minimisations  :  3520
 total energy-change (2. order) : 0.4599359E-02  (-0.5765715E-03)
 number of electron      99.0000001 magnetization 
 augmentation part        6.3410926 magnetization 

 Broyden mixing:
  rms(total) = 0.79928E-02    rms(broyden)= 0.79899E-02
  rms(prec ) = 0.19869E-01
  weight for this iteration     100.00

 eigenvalues of (default mixing * dielectric matrix)
  average eigenvalue GAMMA=   1.4227
  2.9874  2.3906  2.2004  0.8959  0.8959  0.9963  0.9963  0.7732  0.6679

 Free energy of the ion-electron system (eV)
  ---------------------------------------------------
  alpha Z        PSCENC =       137.47374122
  Ewald energy   TEWEN  =      7357.95007171
  -Hartree energ DENC   =    -12783.47259507
  -exchange      EXHF   =         0.00000000
  -V(xc)+E(xc)   XCENC  =      -325.89868567
  PAW double counting   =      6323.25162485    -5653.64775677
  entropy T*S    EENTRO =        -0.00572114
  eigenvalues    EBANDS =      -103.03072432
  atomic energy  EATOM  =      4905.68083858
  ---------------------------------------------------
  free energy    TOTEN  =      -141.69920661 eV

  energy without entropy =     -141.69348547  energy(sigma->0) =     -141.69634604


--------------------------------------------------------------------------------------------------------




----------------------------------------- Iteration    1(  15)  ---------------------------------------


    POTLOK:  cpu time    0.09: real time    0.09
    SETDIJ:  cpu time    0.09: real time    0.09
     EDDAV:  cpu time    5.54: real time    5.54
       DOS:  cpu time    0.00: real time    0.00
    CHARGE:  cpu time    0.34: real time    0.34
    MIXING:  cpu time    0.00: real time    0.00
    --------------------------------------------
      LOOP:  cpu time    6.07: real time    6.08

 eigenvalue-minimisations  :  4312
 total energy-change (2. order) : 0.8057715E-02  (-0.8822561E-03)
 number of electron      99.0000001 magnetization 
 augmentation part        6.3389374 magnetization 

 Broyden mixing:
  rms(total) = 0.95699E-02    rms(broyden)= 0.95679E-02
  rms(prec ) = 0.15137E-01
  weight for this iteration     100.00

 eigenvalues of (default mixing * dielectric matrix)
  average eigenvalue GAMMA=   1.5856
  4.6006  2.7821  2.3359  1.0040  1.0040  0.8578  0.8578  0.9660  0.7875  0.6600

 Free energy of the ion-electron system (eV)
  ---------------------------------------------------
  alpha Z        PSCENC =       137.47374122
  Ewald energy   TEWEN  =      7357.95007171
  -Hartree energ DENC   =    -12787.76833812
  -exchange      EXHF   =         0.00000000
  -V(xc)+E(xc)   XCENC  =      -325.91828721
  PAW double counting   =      6329.14255524    -5659.53245513
  entropy T*S    EENTRO =        -0.00566576
  eigenvalues    EBANDS =       -98.71360940
  atomic energy  EATOM  =      4905.68083858
  ---------------------------------------------------
  free energy    TOTEN  =      -141.69114890 eV

  energy without entropy =     -141.68548313  energy(sigma->0) =     -141.68831601


--------------------------------------------------------------------------------------------------------




----------------------------------------- Iteration    1(  16)  ---------------------------------------


    POTLOK:  cpu time    0.09: real time    0.09
    SETDIJ:  cpu time    0.09: real time    0.09
     EDDAV:  cpu time    4.45: real time    4.46
       DOS:  cpu time    0.00: real time    0.00
    CHARGE:  cpu time    0.35: real time    0.36
    MIXING:  cpu time    0.01: real time    0.01
    --------------------------------------------
      LOOP:  cpu time    4.99: real time    5.00

 eigenvalue-minimisations  :  3240
 total energy-change (2. order) : 0.2672057E-02  (-0.1016789E-02)
 number of electron      99.0000001 magnetization 
 augmentation part        6.3379032 magnetization 

 Broyden mixing:
  rms(total) = 0.72929E-02    rms(broyden)= 0.72911E-02
  rms(prec ) = 0.10616E-01
  weight for this iteration     100.00

 eigenvalues of (default mixing * dielectric matrix)
  average eigenvalue GAMMA=   1.5181
  4.7709  2.8159  2.3391  1.0889  1.0889  0.8473  0.8473  0.9568  0.8663  0.6664
  0.4115

 Free energy of the ion-electron system (eV)
  ---------------------------------------------------
  alpha Z        PSCENC =       137.47374122
  Ewald energy   TEWEN  =      7357.95007171
  -Hartree energ DENC   =    -12790.45334052
  -exchange      EXHF   =         0.00000000
  -V(xc)+E(xc)   XCENC  =      -325.93274969
  PAW double counting   =      6325.18025963    -5655.56980008
  entropy T*S    EENTRO =        -0.00562007
  eigenvalues    EBANDS =       -96.01187760
  atomic energy  EATOM  =      4905.68083858
  ---------------------------------------------------
  free energy    TOTEN  =      -141.68847684 eV

  energy without entropy =     -141.68285676  energy(sigma->0) =     -141.68566680


--------------------------------------------------------------------------------------------------------




----------------------------------------- Iteration    1(  17)  ---------------------------------------


    POTLOK:  cpu time    0.10: real time    0.10
    SETDIJ:  cpu time    0.09: real time    0.09
     EDDAV:  cpu time    4.46: real time    4.47
       DOS:  cpu time    0.00: real time    0.00
    CHARGE:  cpu time    0.34: real time    0.34
    MIXING:  cpu time    0.01: real time    0.01
    --------------------------------------------
      LOOP:  cpu time    5.01: real time    5.02

 eigenvalue-minimisations  :  3248
 total energy-change (2. order) : 0.1572815E-02  (-0.5086521E-03)
 number of electron      99.0000001 magnetization 
 augmentation part        6.3359916 magnetization 

 Broyden mixing:
  rms(total) = 0.44262E-02    rms(broyden)= 0.44245E-02
  rms(prec ) = 0.69644E-02
  weight for this iteration     100.00

 eigenvalues of (default mixing * dielectric matrix)
  average eigenvalue GAMMA=   1.7661
  6.7249  2.8175  2.1142  2.1142  1.2106  1.2106  0.8750  0.8750  0.9514  0.9514
  0.6745  0.6745

 Free energy of the ion-electron system (eV)
  ---------------------------------------------------
  alpha Z        PSCENC =       137.47374122
  Ewald energy   TEWEN  =      7357.95007171
  -Hartree energ DENC   =    -12791.54342471
  -exchange      EXHF   =         0.00000000
  -V(xc)+E(xc)   XCENC  =      -325.92099429
  PAW double counting   =      6336.08218110    -5666.47776970
  entropy T*S    EENTRO =        -0.00559793
  eigenvalues    EBANDS =       -94.92595000
  atomic energy  EATOM  =      4905.68083858
  ---------------------------------------------------
  free energy    TOTEN  =      -141.68690402 eV

  energy without entropy =     -141.68130609  energy(sigma->0) =     -141.68410506


--------------------------------------------------------------------------------------------------------




----------------------------------------- Iteration    1(  18)  ---------------------------------------


    POTLOK:  cpu time    0.09: real time    0.09
    SETDIJ:  cpu time    0.09: real time    0.09
     EDDAV:  cpu time    5.02: real time    5.02
       DOS:  cpu time    0.00: real time    0.00
    CHARGE:  cpu time    0.34: real time    0.35
    MIXING:  cpu time    0.01: real time    0.01
    --------------------------------------------
      LOOP:  cpu time    5.55: real time    5.56

 eigenvalue-minimisations  :  3760
 total energy-change (2. order) : 0.7678576E-03  (-0.2442350E-03)
 number of electron      99.0000001 magnetization 
 augmentation part        6.3353815 magnetization 

 Broyden mixing:
  rms(total) = 0.41055E-02    rms(broyden)= 0.41041E-02
  rms(prec ) = 0.53628E-02
  weight for this iteration     100.00

 eigenvalues of (default mixing * dielectric matrix)
  average eigenvalue GAMMA=   1.7521
  7.1634  2.7945  2.4132  2.4132  1.2418  1.2418  0.8682  0.8682  0.9386  0.9386
  0.6958  0.6958  0.5046

 Free energy of the ion-electron system (eV)
  ---------------------------------------------------
  alpha Z        PSCENC =       137.47374122
  Ewald energy   TEWEN  =      7357.95007171
  -Hartree energ DENC   =    -12792.61301980
  -exchange      EXHF   =         0.00000000
  -V(xc)+E(xc)   XCENC  =      -325.91308350
  PAW double counting   =      6335.33198235    -5665.73070468
  entropy T*S    EENTRO =        -0.00559326
  eigenvalues    EBANDS =       -93.86036879
  atomic energy  EATOM  =      4905.68083858
  ---------------------------------------------------
  free energy    TOTEN  =      -141.68613617 eV

  energy without entropy =     -141.68054291  energy(sigma->0) =     -141.68333954


--------------------------------------------------------------------------------------------------------




----------------------------------------- Iteration    1(  19)  ---------------------------------------


    POTLOK:  cpu time    0.09: real time    0.09
    SETDIJ:  cpu time    0.09: real time    0.09
     EDDAV:  cpu time    4.61: real time    4.62
       DOS:  cpu time    0.00: real time    0.00
    CHARGE:  cpu time    0.35: real time    0.35
    MIXING:  cpu time    0.01: real time    0.01
    --------------------------------------------
      LOOP:  cpu time    5.15: real time    5.16

 eigenvalue-minimisations  :  3336
 total energy-change (2. order) : 0.3831676E-03  (-0.1606224E-03)
 number of electron      99.0000001 magnetization 
 augmentation part        6.3349106 magnetization 

 Broyden mixing:
  rms(total) = 0.50560E-02    rms(broyden)= 0.50552E-02
  rms(prec ) = 0.54632E-02
  weight for this iteration     100.00

 eigenvalues of (default mixing * dielectric matrix)
  average eigenvalue GAMMA=   2.2861
 12.0202  4.8846  2.8025  2.2503  2.2503  0.8746  0.8746  0.9941  0.9941  0.9873
  0.9873  0.7646  0.6889  0.6324

 Free energy of the ion-electron system (eV)
  ---------------------------------------------------
  alpha Z        PSCENC =       137.47374122
  Ewald energy   TEWEN  =      7357.95007171
  -Hartree energ DENC   =    -12793.06927305
  -exchange      EXHF   =         0.00000000
  -V(xc)+E(xc)   XCENC  =      -325.90929441
  PAW double counting   =      6332.41709369    -5662.81803599
  entropy T*S    EENTRO =        -0.00559483
  eigenvalues    EBANDS =       -93.40529992
  atomic energy  EATOM  =      4905.68083858
  ---------------------------------------------------
  free energy    TOTEN  =      -141.68575300 eV

  energy without entropy =     -141.68015817  energy(sigma->0) =     -141.68295558


--------------------------------------------------------------------------------------------------------




----------------------------------------- Iteration    1(  20)  ---------------------------------------


    POTLOK:  cpu time    0.09: real time    0.09
    SETDIJ:  cpu time    0.09: real time    0.09
     EDDAV:  cpu time    5.00: real time    5.01
       DOS:  cpu time    0.00: real time    0.00
    CHARGE:  cpu time    0.35: real time    0.35
    MIXING:  cpu time    0.01: real time    0.01
    --------------------------------------------
      LOOP:  cpu time    5.54: real time    5.55

 eigenvalue-minimisations  :  3736
 total energy-change (2. order) : 0.1967141E-03  (-0.8751882E-04)
 number of electron      99.0000001 magnetization 
 augmentation part        6.3356068 magnetization 

 Broyden mixing:
  rms(total) = 0.28595E-02    rms(broyden)= 0.28586E-02
  rms(prec ) = 0.29622E-02
  weight for this iteration     100.00

 eigenvalues of (default mixing * dielectric matrix)
  average eigenvalue GAMMA=   2.6807
 18.1210  5.5157  2.8537  2.3138  2.3138  0.8698  0.8698  1.1477  1.1477  1.0128
  1.0128  0.9520  0.7233  0.7233  0.6330

 Free energy of the ion-electron system (eV)
  ---------------------------------------------------
  alpha Z        PSCENC =       137.47374122
  Ewald energy   TEWEN  =      7357.95007171
  -Hartree energ DENC   =    -12793.55798095
  -exchange      EXHF   =         0.00000000
  -V(xc)+E(xc)   XCENC  =      -325.91536132
  PAW double counting   =      6330.85118748    -5661.24979642
  entropy T*S    EENTRO =        -0.00560319
  eigenvalues    EBANDS =       -92.91265339
  atomic energy  EATOM  =      4905.68083858
  ---------------------------------------------------
  free energy    TOTEN  =      -141.68555628 eV

  energy without entropy =     -141.67995309  energy(sigma->0) =     -141.68275469


--------------------------------------------------------------------------------------------------------




----------------------------------------- Iteration    1(  21)  ---------------------------------------


    POTLOK:  cpu time    0.09: real time    0.09
    SETDIJ:  cpu time    0.09: real time    0.09
     EDDAV:  cpu time    4.29: real time    4.30
       DOS:  cpu time    0.00: real time    0.00
    CHARGE:  cpu time    0.35: real time    0.35
    MIXING:  cpu time    0.01: real time    0.01
    --------------------------------------------
      LOOP:  cpu time    4.84: real time    4.84

 eigenvalue-minimisations  :  3056
 total energy-change (2. order) :-0.1011870E-03  (-0.1421666E-03)
 number of electron      99.0000001 magnetization 
 augmentation part        6.3363189 magnetization 

 Broyden mixing:
  rms(total) = 0.22489E-02    rms(broyden)= 0.22467E-02
  rms(prec ) = 0.22840E-02
  weight for this iteration     100.00

 eigenvalues of (default mixing * dielectric matrix)
  average eigenvalue GAMMA=   2.6103
 19.4196  5.5722  2.9061  2.3822  2.1525  1.1736  1.1736  0.8691  0.8691  1.0111
  1.0111  0.8789  0.7126  0.7126  0.6311  0.2893

 Free energy of the ion-electron system (eV)
  ---------------------------------------------------
  alpha Z        PSCENC =       137.47374122
  Ewald energy   TEWEN  =      7357.95007171
  -Hartree energ DENC   =    -12793.74209847
  -exchange      EXHF   =         0.00000000
  -V(xc)+E(xc)   XCENC  =      -325.91660512
  PAW double counting   =      6328.55693713    -5658.95480524
  entropy T*S    EENTRO =        -0.00560380
  eigenvalues    EBANDS =       -92.72813347
  atomic energy  EATOM  =      4905.68083858
  ---------------------------------------------------
  free energy    TOTEN  =      -141.68565747 eV

  energy without entropy =     -141.68005367  energy(sigma->0) =     -141.68285557


--------------------------------------------------------------------------------------------------------




----------------------------------------- Iteration    1(  22)  ---------------------------------------


    POTLOK:  cpu time    0.09: real time    0.09
    SETDIJ:  cpu time    0.09: real time    0.09
     EDDAV:  cpu time    4.15: real time    4.16
       DOS:  cpu time    0.00: real time    0.00
    CHARGE:  cpu time    0.36: real time    0.36
    MIXING:  cpu time    0.01: real time    0.01
    --------------------------------------------
      LOOP:  cpu time    4.71: real time    4.72

 eigenvalue-minimisations  :  2920
 total energy-change (2. order) :-0.8985454E-05  (-0.1723208E-04)
 number of electron      99.0000001 magnetization 
 augmentation part        6.3359050 magnetization 

 Broyden mixing:
  rms(total) = 0.23917E-02    rms(broyden)= 0.23916E-02
  rms(prec ) = 0.24300E-02
  weight for this iteration     100.00

 eigenvalues of (default mixing * dielectric matrix)
  average eigenvalue GAMMA=   2.5872
 20.3148  5.4519  2.9414  2.4872  2.1200  0.9129  0.9129  1.1195  1.1195  0.8720
  0.8720  0.9773  0.9773  0.8414  0.7123  0.7123  0.6371

 Free energy of the ion-electron system (eV)
  ---------------------------------------------------
  alpha Z        PSCENC =       137.47374122
  Ewald energy   TEWEN  =      7357.95007171
  -Hartree energ DENC   =    -12793.69836316
  -exchange      EXHF   =         0.00000000
  -V(xc)+E(xc)   XCENC  =      -325.91554811
  PAW double counting   =      6327.88449526    -5658.28253858
  entropy T*S    EENTRO =        -0.00560271
  eigenvalues    EBANDS =       -92.77276067
  atomic energy  EATOM  =      4905.68083858
  ---------------------------------------------------
  free energy    TOTEN  =      -141.68566646 eV

  energy without entropy =     -141.68006374  energy(sigma->0) =     -141.68286510


--------------------------------------------------------------------------------------------------------




----------------------------------------- Iteration    1(  23)  ---------------------------------------


    POTLOK:  cpu time    0.09: real time    0.10
    SETDIJ:  cpu time    0.10: real time    0.10
     EDDAV:  cpu time    3.86: real time    3.87
       DOS:  cpu time    0.00: real time    0.00
    --------------------------------------------
      LOOP:  cpu time    4.06: real time    4.07

 eigenvalue-minimisations  :  2648
 total energy-change (2. order) : 0.4081041E-05  (-0.5361444E-05)
 number of electron      99.0000001 magnetization 
 augmentation part        6.3359050 magnetization 

 Free energy of the ion-electron system (eV)
  ---------------------------------------------------
  alpha Z        PSCENC =       137.47374122
  Ewald energy   TEWEN  =      7357.95007171
  -Hartree energ DENC   =    -12793.65742348
  -exchange      EXHF   =         0.00000000
  -V(xc)+E(xc)   XCENC  =      -325.91754407
  PAW double counting   =      6327.20047504    -5657.59766784
  entropy T*S    EENTRO =        -0.00560261
  eigenvalues    EBANDS =       -92.81255093
  atomic energy  EATOM  =      4905.68083858
  ---------------------------------------------------
  free energy    TOTEN  =      -141.68566238 eV

  energy without entropy =     -141.68005977  energy(sigma->0) =     -141.68286107


--------------------------------------------------------------------------------------------------------




 average (electrostatic) potential at core
  the test charge radii are     0.7215  1.0714  1.0406
  (the norm of the test charge is              1.0000)
       1 -69.3371       2 -68.5996       3 -68.6030       4 -68.6101       5 -68.6121
       6 -68.6132       7 -69.3444       8 -68.6038       9 -68.6135      10 -68.6012
      11 -34.2191      12 -34.2318      13 -34.2218      14 -34.2315      15 -34.2253
      16 -34.2323      17 -34.2215      18 -34.2346      19 -34.2262      20 -75.4964
      21 -75.1455      22 -75.4988      23 -75.4234      24 -75.1390      25 -75.4172
      26 -75.4854
 
 
 
 E-fermi :   5.2592     XC(G=0): -10.4866     alpha+bet :-13.0495


 k-point     1 :       0.0000    0.0000    0.0000
  band No.  band energies     occupation 
      1     -13.2896      2.00000
      2     -13.2779      2.00000
      3     -12.8668      2.00000
      4     -12.7601      2.00000
      5     -12.6087      2.00000
      6     -12.4248      2.00000
      7     -12.2316      2.00000
      8     -12.0516      2.00000
      9     -11.9016      2.00000
     10     -11.8058      2.00000
     11      -5.2725      2.00000
     12      -4.8865      2.00000
     13      -4.2629      2.00000
     14      -3.3162      2.00000
     15      -2.1943      2.00000
     16      -1.1491      2.00000
     17      -0.4613      2.00000
     18      -0.1612      2.00000
     19       0.0060      2.00000
     20       0.5635      2.00000
     21       0.7097      2.00000
     22       1.4764      2.00000
     23       1.8357      2.00000
     24       2.6191      2.00000
     25       2.7357      2.00000
     26       3.3824      2.00000
     27       3.3824      2.00000
     28       3.3947      2.00000
     29       3.3947      2.00000
     30       3.5085      2.00000
     31       3.6361      2.00000
     32       3.6361      2.00000
     33       3.6953      2.00000
     34       3.6953      2.00000
     35       3.7756      2.00000
     36       3.7756      2.00000
     37       3.7873      2.00000
     38       3.8727      2.00000
     39       3.8727      2.00000
     40       3.9717      2.00000
     41       3.9717      2.00000
     42       4.0594      2.00000
     43       4.0594      2.00000
     44       4.1312      2.00000
     45       4.1312      2.00000
     46       4.1744      2.00000
     47       4.1744      2.00000
     48       4.2488      2.00000
     49       6.0275      0.00000
     50       8.0799      0.00000
     51       8.6245      0.00000
     52       9.1731      0.00000
     53       9.6329      0.00000
     54      10.4247      0.00000
     55      10.4255      0.00000
     56      11.1453      0.00000
     57      11.4332      0.00000
     58      11.7482      0.00000
     59      11.8497      0.00000
     60      12.3694      0.00000
     61      13.5026      0.00000
     62      14.4815      0.00000
     63      14.4833      0.00000
     64      14.4855      0.00000

 k-point     2 :       0.0769    0.0000    0.0000
  band No.  band energies     occupation 
      1     -13.2482      2.00000
      2     -13.2365      2.00000
      3     -12.8150      2.00000
      4     -12.7112      2.00000
      5     -12.5638      2.00000
      6     -12.3845      2.00000
      7     -12.1962      2.00000
      8     -12.0210      2.00000
      9     -11.8750      2.00000
[...]
 k-point    19 :       0.3077    0.2308    0.0000
  band No.  band energies     occupation 
      1     -12.5846      2.00000
      2     -12.5838      2.00000
      3     -11.7357      2.00000
      4     -11.7147      2.00000
      5     -11.6805      2.00000
      6     -11.6391      2.00000
      7     -11.5956      2.00000
      8     -11.5561      2.00000
      9     -11.5240      2.00000
     10     -11.5012      2.00000
     11      -0.4748      2.00000
     12      -0.3235      2.00000
     13      -0.0616      2.00000
     14       0.1547      2.00000
     15       0.1957      2.00000
     16       0.3367      2.00000
     17       0.3941      2.00000
     18       0.5157      2.00000
     19       0.5624      2.00000
     20       0.6407      2.00000
     21       0.6590      2.00000
     22       0.8150      2.00000
     23       0.9948      2.00000
     24       1.0550      2.00000
     25       1.2063      2.00000
     26       1.5261      2.00000
     27       1.6812      2.00000
     28       1.6901      2.00000
     29       1.7041      2.00000
     30       1.8360      2.00000
     31       1.8885      2.00000
     32       2.0616      2.00000
     33       2.1119      2.00000
     34       2.2469      2.00000
     35       2.2978      2.00000
     36       2.4375      2.00000
     37       2.5397      2.00000
     38       2.7097      2.00000
     39       2.8226      2.00000
     40       2.8733      2.00000
     41       2.9548      2.00000
     42       3.0212      2.00000
     43       3.0974      2.00000
     44       3.1378      2.00000
     45       3.2182      2.00000
     46       3.2551      2.00000
     47       3.3300      2.00000
     48       3.7959      2.00000
     49       4.3664      2.00000
     50       4.4166      2.00000
     51       4.7595      2.00000
     52       5.0663      2.00000
     53       5.4472      0.00320
     54       5.9935      0.00000
     55       6.4491      0.00000
     56       6.8712      0.00000
     57       7.6132      0.00000
     58       7.8958      0.00000
     59       8.3030      0.00000
     60       9.2356      0.00000
     61       9.5336      0.00000
     62      10.2297      0.00000
     63      10.9813      0.00000
     64      11.1748      0.00000

 k-point    20 :       0.3846    0.2308    0.0000
  band No.  band energies     occupation 
      1     -12.5492      2.00000
      2     -12.5484      2.00000
      3     -11.6426      2.00000
      4     -11.6333      2.00000
      5     -11.6164      2.00000
      6     -11.5952      2.00000
      7     -11.5723      2.00000
      8     -11.5507      2.00000
      9     -11.5326      2.00000
     10     -11.5188      2.00000
     11       0.0366      2.00000
     12       0.0406      2.00000
     13       0.2054      2.00000
     14       0.2089      2.00000
     15       0.2803      2.00000
     16       0.4637      2.00000
     17       0.6674      2.00000
     18       0.6760      2.00000
     19       0.7223      2.00000
     20       0.7643      2.00000
     21       0.9382      2.00000
     22       0.9593      2.00000
     23       1.1367      2.00000
     24       1.1717      2.00000
     25       1.4865      2.00000
     26       1.5010      2.00000
     27       1.5943      2.00000
     28       1.6311      2.00000
     29       1.7072      2.00000
     30       1.7165      2.00000
     31       1.7203      2.00000
     32       1.7802      2.00000
     33       1.8549      2.00000
     34       2.0578      2.00000
     35       2.1018      2.00000
     36       2.2378      2.00000
     37       2.3337      2.00000
     38       2.3860      2.00000
     39       2.7449      2.00000
     40       2.7514      2.00000
     41       2.8151      2.00000
     42       2.8810      2.00000
     43       3.0006      2.00000
     44       3.1096      2.00000
     45       3.1128      2.00000
     46       3.1979      2.00000
     47       3.2015      2.00000
     48       3.2871      2.00000
     49       4.1722      2.00000
     50       4.2976      2.00000
     51       4.6649      2.00000
     52       4.7665      2.00000
     53       5.1790      2.00000
     54       5.7982      0.00000
     55       6.0121      0.00000
     56       6.7739      0.00000
     57       7.5781      0.00000
     58       7.8368      0.00000
     59       8.4287      0.00000
     60       8.9667      0.00000
     61       9.2402      0.00000
     62       9.9782      0.00000
     63      10.8200      0.00000
     64      11.1278      0.00000

 k-point    21 :       0.3077    0.3077    0.0000
  band No.  band energies     occupation 
      1     -12.5340      2.00000
      2     -12.5332      2.00000
      3     -11.6086      2.00000
      4     -11.6017      2.00000
      5     -11.5890      2.00000
      6     -11.5736      2.00000
      7     -11.5579      2.00000
      8     -11.5440      2.00000
      9     -11.5326      2.00000
     10     -11.5234      2.00000
     11       0.1706      2.00000
     12       0.1719      2.00000
     13       0.4166      2.00000
     14       0.4177      2.00000
     15       0.5990      2.00000
     16       0.6132      2.00000
     17       0.7182      2.00000
     18       0.7447      2.00000
     19       0.8138      2.00000
     20       0.9111      2.00000
     21       0.9764      2.00000
     22       1.0294      2.00000
     23       1.1095      2.00000
     24       1.2101      2.00000
     25       1.2443      2.00000
     26       1.3982      2.00000
     27       1.4023      2.00000
     28       1.4358      2.00000
     29       1.4941      2.00000
     30       1.6379      2.00000
     31       1.7053      2.00000
     32       1.8235      2.00000
     33       1.8661      2.00000
     34       1.9972      2.00000
     35       2.2113      2.00000
     36       2.5991      2.00000
     37       2.6019      2.00000
     38       2.7306      2.00000
     39       2.8097      2.00000
     40       2.9087      2.00000
     41       2.9631      2.00000
     42       3.0004      2.00000
     43       3.0070      2.00000
     44       3.0194      2.00000
     45       3.0249      2.00000
     46       3.0871      2.00000
     47       3.1268      2.00000
     48       3.1603      2.00000
     49       3.6120      2.00000
     50       3.6289      2.00000
     51       4.0471      2.00000
     52       4.4059      2.00000
     53       4.9375      2.00000
     54       5.5821      0.00000
     55       6.1095      0.00000
     56       6.3706      0.00000
     57       7.2902      0.00000
     58       7.6530      0.00000
     59       7.9460      0.00000
     60       9.1522      0.00000
     61       9.4092      0.00000
     62       9.6699      0.00000
     63      10.5472      0.00000
     64      11.2596      0.00000


--------------------------------------------------------------------------------------------------------


 soft charge-density along one line, spin component           1
         0         1         2         3         4         5         6         7         8         9
 total charge-density along one line
 
 pseudopotential strength for first ion, spin component:           1
 12.059   0.000 -14.663   0.000  -0.000   0.000   0.023   0.000   0.000   0.000   0.000   0.000  -0.029   0.000  -0.000   0.000
-14.663   0.000  17.847   0.000   0.000   0.000  -0.030   0.000  -0.000   0.000  -0.000   0.000   0.038   0.000   0.000   0.000
 -0.000   0.000   0.000   0.000  -8.141   0.000  -0.000   0.000   0.000   0.000   9.711   0.000   0.000   0.000  -0.000   0.000
  0.023   0.000  -0.030   0.000  -0.000   0.000  -8.203   0.000   0.000   0.000   0.000   0.000   9.794   0.000  -0.000   0.000
  0.000   0.000  -0.000   0.000   0.000   0.000   0.000   0.000  -8.141   0.000  -0.000   0.000  -0.000   0.000   9.711   0.000
  0.000   0.000  -0.000   0.000   9.711   0.000   0.000   0.000  -0.000   0.000 -11.414   0.000  -0.000   0.000   0.000   0.000
 -0.029   0.000   0.038   0.000   0.000   0.000   9.794   0.000  -0.000   0.000  -0.000   0.000 -11.524   0.000   0.000   0.000
 -0.000   0.000   0.000   0.000  -0.000   0.000  -0.000   0.000   9.711   0.000   0.000   0.000   0.000   0.000 -11.414   0.000
 total augmentation occupancy for first ion, spin component:           1
  2.649   0.382   0.000  -0.080  -0.000   0.000  -0.033  -0.000
  0.382   0.078   0.000  -0.075  -0.000   0.000  -0.016  -0.000
  0.000   0.000   2.130  -0.000   0.000   0.235  -0.000   0.000
 -0.080  -0.075  -0.000   2.248   0.000  -0.000   0.315   0.000
 -0.000  -0.000   0.000   0.000   2.130   0.000   0.000   0.235
  0.000   0.000   0.235  -0.000   0.000   0.029  -0.000   0.000
 -0.033  -0.016  -0.000   0.315   0.000  -0.000   0.049   0.000
 -0.000  -0.000   0.000   0.000   0.235   0.000   0.000   0.029


------------------------ aborting loop because EDIFF is reached ----------------------------------------


    CHARGE:  cpu time    0.36: real time    0.36
    FORLOC:  cpu time    0.03: real time    0.03
    FORNL :  cpu time    2.82: real time    2.82
    STRESS:  cpu time    3.79: real time    3.80
    FORCOR:  cpu time    0.13: real time    0.13
    FORHAR:  cpu time    0.05: real time    0.05
    MIXING:  cpu time    0.00: real time    0.00
    OFIELD:  cpu time    0.00: real time    0.00

  FORCE on cell =-STRESS in cart. coord.  units (eV):
  Direction    XX          YY          ZZ          XY          YZ          ZX
  --------------------------------------------------------------------------------------
  Alpha Z   137.47374   137.47374   137.47374
  Ewald   10386.67398 10386.67432-12982.02282    -0.00003    -0.00000    -0.00014
  Hartree 12264.34903 12264.34894-11303.39339    -0.00000    -0.00000     0.00005
  E(xc)    -415.49594  -415.49595  -416.05346    -0.00000     0.00000    -0.00000
  Local  -23884.15368-23884.15315 23060.85450    -0.00019    -0.00000     0.00004
  n-local   -59.77174   -75.27118   -54.55122     3.22793    -1.51722     4.99341
  augment    61.36287    61.36262    59.60972     0.00018    -0.00000     0.00000
  Kinetic  1525.79564  1505.33543  1489.21033    -3.31191    -0.70155     0.93670
  Fock        0.00000     0.00000     0.00000     0.00000     0.00000     0.00000
  -------------------------------------------------------------------------------------
  Total      -1.74567    -1.74567    -8.87260     0.00000     0.00000    -0.00000
  in kB      -9.11096    -9.11096   -46.30756     0.00000     0.00000    -0.00000
  external pressure =      -21.51 kB  Pullay stress =        0.00 kB


 VOLUME and BASIS-vectors are now :
 -----------------------------------------------------------------------------
  energy-cutoff  :      520.00
  volume of cell :      306.98
      direct lattice vectors                 reciprocal lattice vectors
     2.600457673 -1.501374484  0.000000000     0.384547693  0.000000000 -0.000000000
     0.000000000  3.002748968  0.000000000     0.192273847  0.333028172 -0.000000000
     0.000000000 -0.000000000 39.313417794     0.000000000  0.000000000  0.025436608

  length of vectors
     3.002749648  3.002748968 39.313417794     0.384547693  0.384547781  0.025436608


 FORCES acting on ions
    electron-ion (+dipol)            ewald-force                    non-local-force                 convergence-correction
 -----------------------------------------------------------------------------------------------
   0.240E-05 -.480E-06 0.108E+04   0.239E-04 -.268E-04 -.107E+04   -.160E-15 0.387E-16 -.954E+01   0.445E-09 -.737E-09 -.327E-01
   0.106E-02 -.184E-02 0.845E+03   0.584E-04 -.100E-03 -.845E+03   0.193E-18 -.121E-19 0.286E-01   -.354E-09 0.827E-09 -.310E-01
   0.173E-07 -.146E-08 0.362E+03   0.844E-07 -.101E-06 -.362E+03   -.481E-18 0.794E-19 -.275E-01   0.628E-09 -.106E-08 -.451E-01
   0.107E-02 -.185E-02 0.121E+03   0.572E-04 -.990E-04 -.121E+03   0.246E-18 -.501E-19 0.143E-01   -.177E-07 0.299E-07 -.646E-01
   -.172E-07 0.161E-08 -.362E+03   -.297E-07 0.390E-07 0.362E+03   0.534E-18 -.669E-19 0.299E-01   -.109E-08 0.157E-08 -.362E-01
   0.107E-02 -.185E-02 -.603E+03   0.571E-04 -.989E-04 0.603E+03   -.588E-19 0.161E-19 -.611E-02   0.165E-07 -.286E-07 0.160E-01
   -.240E-05 0.479E-06 -.108E+04   -.240E-04 0.268E-04 0.107E+04   0.167E-15 -.457E-16 0.953E+01   0.169E-08 -.253E-08 0.783E-01
   -.107E-02 0.185E-02 0.603E+03   -.571E-04 0.989E-04 -.603E+03   0.150E-18 -.394E-20 0.930E-02   -.112E-07 0.196E-07 -.300E-01
   -.107E-02 0.185E-02 -.120E+03   -.572E-04 0.990E-04 0.121E+03   -.172E-18 0.212E-19 -.998E-02   0.134E-07 -.230E-07 -.639E-01
   -.106E-02 0.184E-02 -.845E+03   -.585E-04 0.999E-04 0.845E+03   -.514E-18 -.422E-18 -.270E-01   0.354E-08 -.615E-08 0.634E-01
   0.929E-08 -.109E-07 0.241E+03   -.506E-08 0.580E-08 -.241E+03   0.757E-19 -.215E-19 0.266E-02   0.231E-08 -.410E-08 -.866E-02
   0.113E-07 0.744E-08 0.354E-01   -.529E-07 0.594E-07 -.163E-01   0.114E-18 0.106E-18 0.656E-02   -.371E-09 0.623E-09 -.222E-01
   -.215E-07 0.513E-08 -.241E+03   0.582E-07 -.655E-07 0.241E+03   0.622E-19 0.112E-18 -.874E-02   -.199E-08 0.361E-08 0.128E-01
   0.481E-04 -.807E-04 0.325E+03   -.539E-04 0.892E-04 -.325E+03   0.156E-17 -.363E-19 0.857E-01   0.128E-08 -.229E-08 -.112E-01
   0.435E-04 -.753E-04 0.805E+02   -.489E-04 0.847E-04 -.805E+02   0.113E-18 0.517E-19 0.602E-02   -.138E-08 0.254E-08 -.190E-01
   0.434E-04 -.751E-04 -.161E+03   -.488E-04 0.846E-04 0.161E+03   -.445E-20 0.548E-19 -.150E-02   0.908E-09 -.161E-08 -.335E-02
   -.433E-04 0.751E-04 0.161E+03   0.488E-04 -.845E-04 -.161E+03   0.164E-18 -.563E-19 0.489E-02   -.962E-09 0.171E-08 -.126E-01
   -.435E-04 0.753E-04 -.804E+02   0.489E-04 -.848E-04 0.805E+02   0.319E-19 0.526E-19 0.391E-02   0.110E-08 -.208E-08 -.171E-01
   -.482E-04 0.808E-04 -.325E+03   0.539E-04 -.892E-04 0.325E+03   -.678E-17 0.396E-19 -.933E-01   0.164E-08 -.285E-08 0.255E-01
   0.165E-09 -.291E-10 0.586E-01   -.702E-09 0.702E-09 -.714E-01   -.101E-19 -.131E-19 -.114E-02   -.941E-12 0.440E-12 0.135E-01
   -.643E-06 -.538E-07 0.596E+03   0.288E-05 -.269E-05 -.591E+03   -.831E-16 -.258E-16 -.463E+01   0.148E-10 -.265E-10 -.130E-01
   0.157E-04 -.268E-04 0.386E+03   -.401E-05 0.657E-05 -.386E+03   -.134E-16 -.656E-19 0.155E+00   -.241E-10 0.380E-10 -.359E-02
   -.147E-04 0.255E-04 0.191E+03   0.368E-05 -.628E-05 -.191E+03   0.773E-18 -.110E-18 0.261E+00   0.230E-10 -.424E-10 0.503E-02
   0.643E-06 0.544E-07 -.596E+03   -.287E-05 0.269E-05 0.591E+03   0.692E-16 0.258E-16 0.461E+01   0.183E-10 -.157E-10 0.349E-01
   0.147E-04 -.255E-04 -.191E+03   -.368E-05 0.628E-05 0.191E+03   -.425E-17 0.111E-18 -.263E+00   -.148E-10 0.267E-10 0.214E-01
   -.157E-04 0.268E-04 -.386E+03   0.401E-05 -.657E-05 0.386E+03   0.134E-16 0.139E-16 -.155E+00   0.208E-10 -.319E-10 0.282E-01
 -----------------------------------------------------------------------------------------------
   -.134E-07 0.461E-07 0.124E+00   0.318E-13 0.671E-13 0.625E-12   -.153E-16 0.680E-17 -.961E-02   0.840E-08 -.146E-07 -.115E+00
 
 
 POSITION                                       TOTAL-FORCE (eV/Angst)
 -----------------------------------------------------------------------------------
      0.00000     -0.00000      9.58121         0.000000     -0.000000      0.010404
      0.86682      1.50138     11.97164         0.000000     -0.000000      0.000850
      0.00000     -0.00000     16.94987        -0.000000      0.000000     -0.018122
      0.86682      1.50138     19.43650        -0.000000      0.000000      0.003625
      0.00000     -0.00000     24.41109         0.000000     -0.000000      0.014868
      0.86682      1.50138     26.90015         0.000000      0.000000     -0.000091
      0.00000     -0.00000     31.77888        -0.000000      0.000000     -0.004702
      1.73364     -0.00000     14.46026        -0.000000      0.000000      0.002247
      1.73364     -0.00000     21.92482        -0.000000      0.000000     -0.009403
      1.73364     -0.00000     29.38840        -0.000000     -0.000000      0.003766
      0.00000     -0.00000     13.21593         0.000000     -0.000000      0.002433
      0.00000     -0.00000     20.68010         0.000000     -0.000000      0.003475
      0.00000     -0.00000     28.14487        -0.000000      0.000000     -0.009083
      1.73364     -0.00000     10.72411         0.000000     -0.000000      0.010549
      1.73364     -0.00000     18.19261         0.000000     -0.000000      0.003668
      1.73364     -0.00000     25.65589        -0.000000      0.000000     -0.002364
      0.86682      1.50138     15.70453         0.000000     -0.000000      0.004617
      0.86682      1.50138     23.16768         0.000000     -0.000000      0.001181
      0.86682      1.50138     30.63654        -0.000000      0.000000     -0.013608
      0.00000     -0.00000      1.02402         0.000000     -0.000000     -0.000375
      0.00000     -0.00000      7.85177         0.000000     -0.000000      0.007075
      1.73364     -0.00000      5.61315         0.000000     -0.000000      0.002587
      0.86682      1.50138      3.30633         0.000000     -0.000000     -0.000107
      0.00000     -0.00000     33.50864        -0.000000      0.000000     -0.010719
      1.73364     -0.00000     38.05497         0.000000     -0.000000     -0.000530
      0.86682      1.50138     35.74764        -0.000000     -0.000000     -0.002239
 -----------------------------------------------------------------------------------
    total drift:                               -0.000000      0.000000     -0.000470


--------------------------------------------------------------------------------------------------------



  FREE ENERGIE OF THE ION-ELECTRON SYSTEM (eV)
  ---------------------------------------------------
  free  energy   TOTEN  =      -141.71255743 eV

  energy  without entropy=     -141.70318342  energy(sigma->0) =     -141.70787043
 
 d Force = 0.8864507E-04[ 0.239E-04, 0.153E-03]  d Energy = 0.7761158E-04 0.110E-04
 d Force =-0.5617260E+01[-0.562E+01,-0.562E+01]  d Ewald  =-0.5617260E+01 0.149E-07


--------------------------------------------------------------------------------------------------------


    POTLOK:  cpu time    0.19: real time    0.19


--------------------------------------------------------------------------------------------------------


 Conjugate gradient step on ions:
 trial-energy change:   -0.000078  1 .order   -0.000089   -0.000153   -0.000024
  (g-gl).g = 0.219E-03      g.g   = 0.202E-03  gl.gl    = 0.383E-03
 g(Force)  = 0.202E-03   g(Stress)= 0.000E+00 ortho     =-0.160E-04
 gamma     =   0.57284
 trial     =   0.79408
 opt step  =   0.94047  (harmonic =   0.94047) maximal distance =0.00168102
 next E    =  -141.712571   (d E  =  -0.00009)


--------------------------------------------------------------------------------------------------------


  
 reached required accuracy - stopping structural energy minimisation
     LOOP+:  cpu time   31.21: real time   31.25
    4ORBIT:  cpu time    0.00: real time    0.00

 total amount of memory used by VASP on root node   138987. kBytes
========================================================================

   base      :      30000. kBytes
   nonl-proj :      14632. kBytes
   fftplans  :      50690. kBytes
   grid      :      20321. kBytes
   one-center:         56. kBytes
   wavefun   :      23288. kBytes
 
  
  
 General timing and accounting informations for this job:
 ========================================================
  
                  Total CPU time used (sec):     1597.951
                            User time (sec):     1578.617
                          System time (sec):       19.334
                         Elapsed time (sec):     1600.144
  
                   Maximum memory used (kb):      239796.
                   Average memory used (kb):           0.
  
                          Minor page faults:       354027
                          Major page faults:            0
                 Voluntary context switches:          306
