       N       E                     dE             d eps       ncg     rms          rms(c)
DAV:   1     0.502434254924E+03    0.50243E+03   -0.44385E+04  2704   0.135E+03
DAV:   2    -0.103647041180E+03   -0.60608E+03   -0.57795E+03  3512   0.259E+02
DAV:   3    -0.157625372681E+03   -0.53978E+02   -0.53695E+02  3160   0.846E+01
DAV:   4    -0.158283141903E+03   -0.65777E+00   -0.65681E+00  3136   0.102E+01
DAV:   5    -0.158292771428E+03   -0.96295E-02   -0.96259E-02  3216   0.121E+00    0.236E+01
DAV:   6    -0.141434074077E+03    0.16859E+02   -0.93462E+01  3192   0.334E+01    0.794E+00
DAV:   7    -0.141428625960E+03    0.54481E-02   -0.31908E+00  2984   0.643E+00    0.496E+00
DAV:   8    -0.141283300207E+03    0.14533E+00   -0.77287E-01  3112   0.453E+00    0.130E+00
DAV:   9    -0.141240806476E+03    0.42494E-01   -0.17536E-01  3048   0.191E+00    0.648E-01
DAV:  10    -0.141235098558E+03    0.57079E-02   -0.64505E-02  3024   0.921E-01    0.293E-01
DAV:  11    -0.141228753319E+03    0.63452E-02   -0.11293E-02  3128   0.640E-01    0.203E-01
DAV:  12    -0.141224343875E+03    0.44094E-02   -0.43444E-03  3624   0.461E-01    0.156E-01
DAV:  13    -0.141215634877E+03    0.87090E-02   -0.72968E-03  4304   0.881E-01    0.850E-02
DAV:  14    -0.141212597676E+03    0.30372E-02   -0.71556E-03  3192   0.528E-01    0.119E-01
DAV:  15    -0.141203380410E+03    0.92173E-02   -0.12373E-02  4128   0.143E+00    0.182E-01
DAV:  16    -0.141199741089E+03    0.36393E-02   -0.87796E-03  3280   0.894E-01    0.146E-01
DAV:  17    -0.141197789942E+03    0.19511E-02   -0.12126E-02  3288   0.811E-01    0.107E-01
DAV:  18    -0.141196579466E+03    0.12105E-02   -0.41204E-03  3464   0.665E-01    0.127E-01
DAV:  19    -0.141195542775E+03    0.10367E-02   -0.34282E-03  3768   0.617E-01    0.511E-02
DAV:  20    -0.141195309069E+03    0.23371E-03   -0.24459E-03  3328   0.433E-01    0.295E-02
DAV:  21    -0.141195259203E+03    0.49865E-04   -0.93922E-04  3280   0.289E-01    0.265E-02
DAV:  22    -0.141195288140E+03   -0.28937E-04   -0.57994E-04  2848   0.125E-01    0.214E-02
DAV:  23    -0.141195282543E+03    0.55972E-05   -0.59809E-05  2808   0.317E-02
   1 F= -.14119528E+03 E0= -.14119361E+03  d E =-.141195E+03
       N       E                     dE             d eps       ncg     rms          rms(c)
DAV:   1    -0.141192515090E+03    0.27731E-02   -0.16671E+00  2752   0.492E+00    0.268E-01
DAV:   2    -0.141196633002E+03   -0.41179E-02   -0.63215E-02  2992   0.800E-01    0.211E-01
DAV:   3    -0.141195586095E+03    0.10469E-02   -0.12498E-03  3120   0.190E-01    0.139E-01
DAV:   4    -0.141194578763E+03    0.10073E-02   -0.32572E-03  3072   0.297E-01    0.451E-02
DAV:   5    -0.141194530519E+03    0.48243E-04   -0.10858E-03  3008   0.132E-01    0.293E-02
DAV:   6    -0.141194397663E+03    0.13286E-03   -0.16066E-04  3240   0.711E-02    0.278E-02
DAV:   7    -0.141194329518E+03    0.68144E-04   -0.58326E-05  3024   0.528E-02    0.179E-02
DAV:   8    -0.141194142016E+03    0.18750E-03   -0.24168E-04  3800   0.148E-01    0.158E-02
DAV:   9    -0.141194095733E+03    0.46283E-04   -0.13788E-04  3152   0.624E-02    0.104E-02
DAV:  10    -0.141194051195E+03    0.44538E-04   -0.13089E-04  3064   0.863E-02    0.316E-02
DAV:  11    -0.141193962086E+03    0.89109E-04   -0.86813E-05  3704   0.127E-01    0.175E-02
DAV:  12    -0.141193914997E+03    0.47089E-04   -0.13209E-04  3568   0.129E-01    0.776E-03
DAV:  13    -0.141193904307E+03    0.10690E-04   -0.11893E-04  2808   0.809E-02    0.702E-03
DAV:  14    -0.141193884017E+03    0.20290E-04   -0.26378E-05  2376   0.950E-02    0.546E-03
DAV:  15    -0.141193879918E+03    0.40989E-05   -0.43572E-05  2552   0.684E-02
   2 F= -.14119388E+03 E0= -.14119208E+03  d E =0.140263E-02
       N       E                     dE             d eps       ncg     rms          rms(c)
DAV:   1    -0.141199020926E+03   -0.51369E-02   -0.47235E-01  2752   0.264E+00    0.144E-01
DAV:   2    -0.141200075084E+03   -0.10542E-02   -0.17128E-02  2992   0.426E-01    0.110E-01
DAV:   3    -0.141199763669E+03    0.31141E-03   -0.34410E-04  3160   0.103E-01    0.705E-02
DAV:   4    -0.141199483872E+03    0.27980E-03   -0.73690E-04  3088   0.152E-01    0.196E-02
DAV:   5    -0.141199465254E+03    0.18618E-04   -0.28972E-04  3008   0.715E-02    0.158E-02
DAV:   6    -0.141199428625E+03    0.36629E-04   -0.26795E-05  2568   0.355E-02    0.115E-02
DAV:   7    -0.141199402808E+03    0.25817E-04   -0.20547E-05  2360   0.377E-02    0.719E-03
DAV:   8    -0.141199354765E+03    0.48043E-04   -0.33248E-05  2624   0.714E-02    0.549E-03
DAV:   9    -0.141199338989E+03    0.15776E-04   -0.41786E-05  2744   0.445E-02    0.527E-03
DAV:  10    -0.141199317638E+03    0.21352E-04   -0.92044E-06  2024   0.645E-02    0.488E-03
DAV:  11    -0.141199307097E+03    0.10541E-04   -0.35721E-05  2440   0.570E-02    0.356E-03
DAV:  12    -0.141199298285E+03    0.88119E-05   -0.19263E-05  2184   0.592E-02
   3 F= -.14119930E+03 E0= -.14119757E+03  d E =-.401574E-02
       N       E                     dE             d eps       ncg     rms          rms(c)
DAV:   1    -0.141199956094E+03   -0.64900E-03   -0.10444E-01  2784   0.128E+00    0.529E-02
DAV:   2    -0.141200170388E+03   -0.21429E-03   -0.26969E-03  3024   0.177E-01    0.339E-02
DAV:   3    -0.141200145067E+03    0.25320E-04   -0.54948E-05  3016   0.374E-02    0.213E-02
DAV:   4    -0.141200131710E+03    0.13357E-04   -0.26661E-05  2544   0.236E-02    0.101E-02
DAV:   5    -0.141200124569E+03    0.71410E-05   -0.10541E-05  1904   0.211E-02    0.416E-03
DAV:   6    -0.141200119572E+03    0.49975E-05   -0.82313E-06  1784   0.197E-02
   4 F= -.14120012E+03 E0= -.14119837E+03  d E =-.821287E-03
       N       E                     dE             d eps       ncg     rms          rms(c)
DAV:   1    -0.141200244360E+03   -0.11979E-03   -0.26868E-01  2696   0.203E+00    0.838E-02
DAV:   2    -0.141200758349E+03   -0.51399E-03   -0.65881E-03  3008   0.274E-01    0.504E-02
DAV:   3    -0.141200692741E+03    0.65608E-04   -0.11740E-04  3064   0.517E-02    0.330E-02
DAV:   4    -0.141200647688E+03    0.45054E-04   -0.63220E-05  2968   0.397E-02    0.155E-02
DAV:   5    -0.141200621116E+03    0.26571E-04   -0.32294E-05  2744   0.371E-02    0.681E-03
DAV:   6    -0.141200598853E+03    0.22263E-04   -0.18492E-05  2256   0.347E-02    0.498E-03
DAV:   7    -0.141200588650E+03    0.10203E-04   -0.14269E-05  2072   0.215E-02    0.515E-03
DAV:   8    -0.141200549627E+03    0.39023E-04   -0.37337E-05  2880   0.807E-02    0.119E-02
DAV:   9    -0.141200529716E+03    0.19912E-04   -0.28478E-05  2544   0.532E-02    0.130E-02
DAV:  10    -0.141200520767E+03    0.89489E-05   -0.59169E-05  2576   0.428E-02
   5 F= -.14120052E+03 E0= -.14119875E+03  d E =-.122248E-02
       N       E                     dE             d eps       ncg     rms          rms(c)
DAV:   1    -0.141200940547E+03   -0.41083E-03   -0.10225E-01  2816   0.125E+00    0.528E-02
DAV:   2    -0.141201149830E+03   -0.20928E-03   -0.26291E-03  2992   0.189E-01    0.305E-02
DAV:   3    -0.141201134602E+03    0.15228E-04   -0.59285E-05  2992   0.378E-02    0.211E-02
DAV:   4    -0.141201126931E+03    0.76707E-05   -0.39105E-05  2736   0.286E-02    0.943E-03
DAV:   5    -0.141201125301E+03    0.16306E-05   -0.62839E-06  1720   0.143E-02    0.536E-03
DAV:   6    -0.141201124736E+03    0.56440E-06   -0.68431E-06  1720   0.168E-02
   6 F= -.14120112E+03 E0= -.14119934E+03  d E =-.603970E-03
       N       E                     dE             d eps       ncg     rms          rms(c)
DAV:   1    -0.141200647147E+03    0.47815E-03   -0.66316E-01  2720   0.317E+00    0.128E-01
DAV:   2    -0.141201990672E+03   -0.13435E-02   -0.15990E-02  2952   0.440E-01    0.716E-02
DAV:   3    -0.141201892083E+03    0.98589E-04   -0.22236E-04  3104   0.788E-02    0.491E-02
DAV:   4    -0.141201843709E+03    0.48374E-04   -0.26561E-04  3048   0.804E-02    0.195E-02
DAV:   5    -0.141201842072E+03    0.16376E-05   -0.63967E-05  2856   0.357E-02    0.120E-02
DAV:   6    -0.141201840297E+03    0.17752E-05   -0.40407E-05  2552   0.308E-02
   7 F= -.14120184E+03 E0= -.14120002E+03  d E =-.131953E-02
       N       E                     dE             d eps       ncg     rms          rms(c)
DAV:   1    -0.141202391843E+03   -0.54977E-03   -0.10731E-01  2840   0.143E+00    0.493E-02
DAV:   2    -0.141202540301E+03   -0.14846E-03   -0.21530E-03  3048   0.192E-01    0.314E-02
DAV:   3    -0.141202512693E+03    0.27608E-04   -0.49914E-05  2936   0.372E-02    0.220E-02
DAV:   4    -0.141202478569E+03    0.34124E-04   -0.68618E-05  2960   0.565E-02    0.105E-02
DAV:   5    -0.141202465792E+03    0.12777E-04   -0.27351E-05  2544   0.320E-02    0.106E-02
DAV:   6    -0.141202455130E+03    0.10662E-04   -0.16080E-05  1968   0.222E-02    0.564E-03
DAV:   7    -0.141202433395E+03    0.21734E-04   -0.79019E-06  1912   0.364E-02    0.519E-03
DAV:   8    -0.141202420400E+03    0.12996E-04   -0.11041E-05  1952   0.296E-02    0.625E-03
DAV:   9    -0.141202380659E+03    0.39741E-04   -0.41126E-05  2784   0.113E-01    0.725E-03
DAV:  10    -0.141202366721E+03    0.13938E-04   -0.64081E-05  2960   0.814E-02    0.113E-02
DAV:  11    -0.141202364812E+03    0.19092E-05   -0.40624E-05  2496   0.288E-02
   8 F= -.14120236E+03 E0= -.14120051E+03  d E =-.524516E-03
       N       E                     dE             d eps       ncg     rms          rms(c)
DAV:   1    -0.141202367211E+03   -0.48928E-06   -0.40164E-03  2952   0.277E-01    0.909E-03
DAV:   2    -0.141202372120E+03   -0.49097E-05   -0.82143E-05  2952   0.387E-02    0.845E-03
DAV:   3    -0.141202370581E+03    0.15390E-05   -0.34161E-06  1704   0.113E-02    0.574E-03
DAV:   4    -0.141202368525E+03    0.20561E-05   -0.25030E-06  1704   0.141E-02    0.271E-03
DAV:   5    -0.141202367132E+03    0.13937E-05   -0.30005E-06  1744   0.143E-02    0.218E-03
DAV:   6    -0.141202365844E+03    0.12873E-05   -0.17855E-06  1680   0.118E-02
   9 F= -.14120237E+03 E0= -.14120051E+03  d E =-.525548E-03
       N       E                     dE             d eps       ncg     rms          rms(c)
DAV:   1    -0.141202623026E+03   -0.25589E-03   -0.12416E-01  2768   0.154E+00    0.469E-02
DAV:   2    -0.141202874336E+03   -0.25131E-03   -0.27797E-03  2992   0.213E-01    0.272E-02
DAV:   3    -0.141202856365E+03    0.17971E-04   -0.26080E-05  2408   0.305E-02    0.185E-02
DAV:   4    -0.141202844115E+03    0.12249E-04   -0.68257E-05  2880   0.519E-02    0.676E-03
DAV:   5    -0.141202845680E+03   -0.15644E-05   -0.23168E-05  2144   0.205E-02    0.744E-03
DAV:   6    -0.141202845485E+03    0.19492E-06   -0.15622E-06  1616   0.505E-03
  10 F= -.14120285E+03 E0= -.14120099E+03  d E =-.479641E-03
       N       E                     dE             d eps       ncg     rms          rms(c)
DAV:   1    -0.141201553807E+03    0.12919E-02   -0.11164E+00  2728   0.461E+00    0.141E-01
DAV:   2    -0.141203805520E+03   -0.22517E-02   -0.24999E-02  2952   0.639E-01    0.823E-02
DAV:   3    -0.141203644087E+03    0.16143E-03   -0.23908E-04  3200   0.924E-02    0.564E-02
DAV:   4    -0.141203536466E+03    0.10762E-03   -0.63542E-04  3096   0.159E-01    0.204E-02
DAV:   5    -0.141203549807E+03   -0.13341E-04   -0.21567E-04  2944   0.608E-02    0.234E-02
DAV:   6    -0.141203547200E+03    0.26069E-05   -0.77715E-06  1680   0.116E-02
  11 F= -.14120355E+03 E0= -.14120168E+03  d E =-.118136E-02
       N       E                     dE             d eps       ncg     rms          rms(c)
DAV:   1    -0.141203829509E+03   -0.27970E-03   -0.12634E-01  2712   0.157E+00    0.497E-02
DAV:   2    -0.141204081613E+03   -0.25210E-03   -0.28786E-03  2960   0.220E-01    0.275E-02
DAV:   3    -0.141204060524E+03    0.21089E-04   -0.35087E-05  2656   0.314E-02    0.191E-02
DAV:   4    -0.141204040448E+03    0.20076E-04   -0.47105E-05  2752   0.465E-02    0.674E-03
DAV:   5    -0.141204036787E+03    0.36611E-05   -0.23832E-05  2304   0.252E-02    0.693E-03
DAV:   6    -0.141204033064E+03    0.37232E-05   -0.59786E-06  1704   0.137E-02
  12 F= -.14120403E+03 E0= -.14120216E+03  d E =-.485864E-03
       N       E                     dE             d eps       ncg     rms          rms(c)
DAV:   1    -0.141202866334E+03    0.11705E-02   -0.95307E-01  2704   0.433E+00    0.127E-01
DAV:   2    -0.141204775148E+03   -0.19088E-02   -0.21362E-02  2976   0.600E-01    0.754E-02
DAV:   3    -0.141204603632E+03    0.17152E-03   -0.20038E-04  3208   0.835E-02    0.524E-02
DAV:   4    -0.141204391114E+03    0.21252E-03   -0.39877E-04  3112   0.152E-01    0.175E-02
DAV:   5    -0.141204363511E+03    0.27603E-04   -0.23440E-04  2968   0.766E-02    0.202E-02
DAV:   6    -0.141204350109E+03    0.13402E-04   -0.34084E-05  2432   0.254E-02    0.147E-02
DAV:   7    -0.141204282074E+03    0.68035E-04   -0.25156E-05  2248   0.486E-02    0.104E-02
DAV:   8    -0.141204146249E+03    0.13583E-03   -0.96955E-05  3288   0.124E-01    0.211E-02
DAV:   9    -0.141204068409E+03    0.77840E-04   -0.12121E-04  3336   0.113E-01    0.308E-02
DAV:  10    -0.141203997937E+03    0.70472E-04   -0.40022E-04  4008   0.195E-01    0.458E-02
DAV:  11    -0.141203914440E+03    0.83497E-04   -0.21481E-04  3552   0.168E-01    0.394E-02
DAV:  12    -0.141203890190E+03    0.24251E-04   -0.22551E-04  2976   0.930E-02    0.353E-02
DAV:  13    -0.141203857315E+03    0.32875E-04   -0.94912E-05  2912   0.499E-02    0.156E-02
DAV:  14    -0.141203846715E+03    0.10600E-04   -0.49271E-05  2712   0.585E-02    0.117E-02
DAV:  15    -0.141203842894E+03    0.38213E-05   -0.30785E-05  2400   0.607E-02
  13 F= -.14120384E+03 E0= -.14120196E+03  d E =-.295693E-03
       N       E                     dE             d eps       ncg     rms          rms(c)
DAV:   1    -0.141203870766E+03   -0.24051E-04   -0.23980E-01  2864   0.217E+00    0.645E-02
DAV:   2    -0.141204359532E+03   -0.48877E-03   -0.54424E-03  2944   0.300E-01    0.378E-02
DAV:   3    -0.141204319617E+03    0.39915E-04   -0.54958E-05  3120   0.417E-02    0.263E-02
DAV:   4    -0.141204277289E+03    0.42328E-04   -0.94655E-05  2880   0.676E-02    0.892E-03
DAV:   5    -0.141204272172E+03    0.51168E-05   -0.51331E-05  2728   0.354E-02    0.102E-02
DAV:   6    -0.141204270608E+03    0.15641E-05   -0.63378E-06  1656   0.107E-02
  14 F= -.14120427E+03 E0= -.14120240E+03  d E =-.723408E-03
       N       E                     dE             d eps       ncg     rms          rms(c)
DAV:   1    -0.141204290117E+03   -0.17945E-04   -0.25443E-02  2792   0.708E-01    0.230E-02
DAV:   2    -0.141204330135E+03   -0.40018E-04   -0.58220E-04  2984   0.102E-01    0.130E-02
DAV:   3    -0.141204317750E+03    0.12385E-04   -0.11668E-05  1760   0.247E-02    0.949E-03
DAV:   4    -0.141204299759E+03    0.17990E-04   -0.78639E-06  1784   0.310E-02    0.536E-03
DAV:   5    -0.141204276094E+03    0.23666E-04   -0.14923E-05  2088   0.456E-02    0.492E-03
DAV:   6    -0.141204266162E+03    0.99323E-05   -0.17119E-05  1888   0.279E-02
  15 F= -.14120427E+03 E0= -.14120240E+03  d E =-.718961E-03
       N       E                     dE             d eps       ncg     rms          rms(c)
DAV:   1    -0.141204419101E+03   -0.14301E-03   -0.32373E-02  2792   0.771E-01    0.277E-02
DAV:   2    -0.141204474862E+03   -0.55761E-04   -0.77030E-04  3024   0.113E-01    0.152E-02
DAV:   3    -0.141204467743E+03    0.71191E-05   -0.24820E-05  2352   0.228E-02    0.105E-02
DAV:   4    -0.141204460306E+03    0.74368E-05   -0.93664E-06  1784   0.187E-02    0.517E-03
DAV:   5    -0.141204452593E+03    0.77133E-05   -0.66537E-06  1800   0.212E-02    0.496E-03
DAV:   6    -0.141204445060E+03    0.75331E-05   -0.46264E-06  1776   0.249E-02
  16 F= -.14120445E+03 E0= -.14120257E+03  d E =-.178898E-03
       N       E                     dE             d eps       ncg     rms          rms(c)
DAV:   1    -0.141204346763E+03    0.10583E-03   -0.29315E-01  2688   0.232E+00    0.674E-02
DAV:   2    -0.141204872882E+03   -0.52612E-03   -0.59758E-03  3016   0.303E-01    0.424E-02
DAV:   3    -0.141204831143E+03    0.41739E-04   -0.78441E-05  3144   0.485E-02    0.294E-02
DAV:   4    -0.141204800885E+03    0.30258E-04   -0.17331E-04  3152   0.748E-02    0.130E-02
DAV:   5    -0.141204800988E+03   -0.10302E-06   -0.46519E-05  2704   0.294E-02    0.137E-02
DAV:   6    -0.141204796785E+03    0.42031E-05   -0.16089E-05  1848   0.195E-02
  17 F= -.14120480E+03 E0= -.14120290E+03  d E =-.530623E-03
       N       E                     dE             d eps       ncg     rms          rms(c)
DAV:   1    -0.141205081166E+03   -0.28018E-03   -0.32125E-03  2848   0.241E-01    0.125E-02
DAV:   2    -0.141205083978E+03   -0.28121E-05   -0.12957E-04  3000   0.487E-02    0.928E-03
DAV:   3    -0.141205079869E+03    0.41091E-05   -0.63908E-06  1680   0.143E-02    0.680E-03
DAV:   4    -0.141205070648E+03    0.92206E-05   -0.77335E-06  1768   0.246E-02    0.366E-03
DAV:   5    -0.141205066099E+03    0.45495E-05   -0.62894E-06  1664   0.182E-02    0.496E-03
DAV:   6    -0.141205060609E+03    0.54898E-05   -0.24621E-06  1720   0.198E-02
  18 F= -.14120506E+03 E0= -.14120317E+03  d E =-.263824E-03
       N       E                     dE             d eps       ncg     rms          rms(c)
DAV:   1    -0.141205383161E+03   -0.31706E-03   -0.27438E-02  2896   0.713E-01    0.344E-02
DAV:   2    -0.141205441989E+03   -0.58828E-04   -0.12687E-03  3040   0.157E-01    0.304E-02
DAV:   3    -0.141205416379E+03    0.25610E-04   -0.74471E-05  2896   0.431E-02    0.213E-02
DAV:   4    -0.141205379270E+03    0.37109E-04   -0.38965E-05  2752   0.364E-02    0.102E-02
DAV:   5    -0.141205342178E+03    0.37092E-04   -0.16627E-05  2072   0.499E-02    0.883E-03
DAV:   6    -0.141205288563E+03    0.53616E-04   -0.40434E-05  2776   0.895E-02    0.702E-03
DAV:   7    -0.141205253577E+03    0.34986E-04   -0.44563E-05  2688   0.724E-02    0.772E-03
DAV:   8    -0.141205207643E+03    0.45934E-04   -0.20284E-05  2232   0.870E-02    0.475E-03
DAV:   9    -0.141205136856E+03    0.70787E-04   -0.10662E-04  3528   0.196E-01    0.986E-03
DAV:  10    -0.141205140452E+03   -0.35966E-05   -0.13912E-04  2656   0.537E-02    0.988E-03
DAV:  11    -0.141205140493E+03   -0.40541E-07   -0.26910E-05  2168   0.221E-02
  19 F= -.14120514E+03 E0= -.14120325E+03  d E =-.343708E-03
       N       E                     dE             d eps       ncg     rms          rms(c)
DAV:   1    -0.141205201509E+03   -0.61056E-04   -0.24344E-03  2864   0.211E-01    0.102E-02
DAV:   2    -0.141205205410E+03   -0.39010E-05   -0.90520E-05  3048   0.403E-02    0.756E-03
DAV:   3    -0.141205203633E+03    0.17763E-05   -0.45691E-06  1680   0.134E-02    0.583E-03
DAV:   4    -0.141205201680E+03    0.19530E-05   -0.34176E-06  1696   0.132E-02    0.287E-03
DAV:   5    -0.141205199884E+03    0.17967E-05   -0.25972E-06  1728   0.173E-02    0.252E-03
DAV:   6    -0.141205199563E+03    0.32094E-06   -0.37578E-06  1656   0.107E-02
  20 F= -.14120520E+03 E0= -.14120331E+03  d E =-.402778E-03
       N       E                     dE             d eps       ncg     rms          rms(c)
DAV:   1    -0.141205210176E+03   -0.10292E-04   -0.10367E-03  2856   0.139E-01    0.664E-03
DAV:   2    -0.141205211583E+03   -0.14067E-05   -0.47074E-05  2792   0.309E-02    0.623E-03
DAV:   3    -0.141205210385E+03    0.11975E-05   -0.29694E-06  1600   0.967E-03    0.481E-03
DAV:   4    -0.141205207913E+03    0.24723E-05   -0.26813E-06  1632   0.117E-02    0.223E-03
DAV:   5    -0.141205205673E+03    0.22403E-05   -0.20236E-06  1680   0.150E-02    0.310E-03
DAV:   6    -0.141205202962E+03    0.27108E-05   -0.27167E-06  1672   0.226E-02
  21 F= -.14120520E+03 E0= -.14120331E+03  d E =-.406177E-03
       N       E                     dE             d eps       ncg     rms          rms(c)
DAV:   1    -0.141205327021E+03   -0.12135E-03   -0.32427E-02  2768   0.802E-01    0.243E-02
DAV:   2    -0.141205393737E+03   -0.66716E-04   -0.76927E-04  2968   0.115E-01    0.147E-02
DAV:   3    -0.141205388480E+03    0.52572E-05   -0.11594E-05  1840   0.173E-02    0.105E-02
DAV:   4    -0.141205383749E+03    0.47310E-05   -0.97691E-06  1752   0.193E-02    0.418E-03
DAV:   5    -0.141205381950E+03    0.17983E-05   -0.55985E-06  1680   0.146E-02    0.292E-03
DAV:   6    -0.141205381325E+03    0.62511E-06   -0.21127E-06  1680   0.768E-03
  22 F= -.14120538E+03 E0= -.14120349E+03  d E =-.178364E-03
       N       E                     dE             d eps       ncg     rms          rms(c)
DAV:   1    -0.141205190698E+03    0.19125E-03   -0.21447E-01  2720   0.206E+00    0.633E-02
DAV:   2    -0.141205655744E+03   -0.46505E-03   -0.52356E-03  2984   0.297E-01    0.387E-02
DAV:   3    -0.141205622482E+03    0.33262E-04   -0.72263E-05  3096   0.432E-02    0.276E-02
DAV:   4    -0.141205596723E+03    0.25759E-04   -0.10137E-04  2944   0.545E-02    0.109E-02
DAV:   5    -0.141205591478E+03    0.52457E-05   -0.27826E-05  2360   0.286E-02    0.905E-03
DAV:   6    -0.141205587290E+03    0.41871E-05   -0.17152E-05  2032   0.220E-02
  23 F= -.14120559E+03 E0= -.14120370E+03  d E =-.384329E-03
       N       E                     dE             d eps       ncg     rms          rms(c)
DAV:   1    -0.141205723501E+03   -0.13202E-03   -0.25711E-02  2864   0.684E-01    0.202E-02
DAV:   2    -0.141205769291E+03   -0.45790E-04   -0.54051E-04  3016   0.927E-02    0.122E-02
DAV:   3    -0.141205763405E+03    0.58860E-05   -0.71801E-06  1744   0.178E-02    0.845E-03
DAV:   4    -0.141205755132E+03    0.82729E-05   -0.51474E-06  1752   0.255E-02    0.392E-03
DAV:   5    -0.141205749152E+03    0.59798E-05   -0.87137E-06  1752   0.266E-02    0.273E-03
DAV:   6    -0.141205746998E+03    0.21544E-05   -0.75074E-06  1688   0.151E-02
  24 F= -.14120575E+03 E0= -.14120385E+03  d E =-.159707E-03
       N       E                     dE             d eps       ncg     rms          rms(c)
DAV:   1    -0.141205695747E+03    0.53405E-04   -0.23159E-01  2816   0.205E+00    0.582E-02
DAV:   2    -0.141206138506E+03   -0.44276E-03   -0.48993E-03  3008   0.273E-01    0.358E-02
DAV:   3    -0.141206102132E+03    0.36375E-04   -0.50679E-05  2696   0.418E-02    0.250E-02
DAV:   4    -0.141206055750E+03    0.46382E-04   -0.74549E-05  3000   0.787E-02    0.787E-03
DAV:   5    -0.141206051716E+03    0.40335E-05   -0.80860E-05  2888   0.441E-02    0.984E-03
DAV:   6    -0.141206051502E+03    0.21478E-06   -0.10366E-05  1720   0.122E-02
  25 F= -.14120605E+03 E0= -.14120414E+03  d E =-.464211E-03
       N       E                     dE             d eps       ncg     rms          rms(c)
DAV:   1    -0.141204273050E+03    0.17787E-02   -0.92706E-01  2832   0.410E+00    0.120E-01
DAV:   2    -0.141206053147E+03   -0.17801E-02   -0.19807E-02  3008   0.548E-01    0.712E-02
DAV:   3    -0.141205907326E+03    0.14582E-03   -0.21164E-04  3208   0.860E-02    0.497E-02
DAV:   4    -0.141205732630E+03    0.17470E-03   -0.31381E-04  3608   0.158E-01    0.165E-02
DAV:   5    -0.141205716121E+03    0.16509E-04   -0.30851E-04  3032   0.886E-02    0.201E-02
DAV:   6    -0.141205717489E+03   -0.13682E-05   -0.45585E-05  2544   0.247E-02
  26 F= -.14120572E+03 E0= -.14120377E+03  d E =-.130199E-03
       N       E                     dE             d eps       ncg     rms          rms(c)
DAV:   1    -0.141205265412E+03    0.45071E-03   -0.45454E-01  2848   0.287E+00    0.800E-02
DAV:   2    -0.141206122543E+03   -0.85713E-03   -0.95818E-03  2992   0.381E-01    0.507E-02
DAV:   3    -0.141206062444E+03    0.60099E-04   -0.13209E-04  3192   0.488E-02    0.340E-02
DAV:   4    -0.141206010278E+03    0.52166E-04   -0.16020E-04  3248   0.638E-02    0.118E-02
DAV:   5    -0.141206007570E+03    0.27085E-05   -0.45008E-05  2712   0.291E-02    0.116E-02
DAV:   6    -0.141206001490E+03    0.60799E-05   -0.23482E-05  2360   0.285E-02
  27 F= -.14120600E+03 E0= -.14120408E+03  d E =-.414199E-03
       N       E                     dE             d eps       ncg     rms          rms(c)
DAV:   1    -0.141206095334E+03   -0.87764E-04   -0.33809E-02  2744   0.820E-01    0.262E-02
DAV:   2    -0.141206159369E+03   -0.64035E-04   -0.77327E-04  3024   0.116E-01    0.138E-02
DAV:   3    -0.141206154058E+03    0.53102E-05   -0.15611E-05  1880   0.192E-02    0.998E-03
DAV:   4    -0.141206148975E+03    0.50836E-05   -0.60437E-06  1704   0.187E-02    0.513E-03
DAV:   5    -0.141206143786E+03    0.51886E-05   -0.68501E-06  1776   0.240E-02    0.311E-03
DAV:   6    -0.141206143376E+03    0.41003E-06   -0.66556E-06  1680   0.110E-02
  28 F= -.14120614E+03 E0= -.14120422E+03  d E =-.141886E-03
       N       E                     dE             d eps       ncg     rms          rms(c)
DAV:   1    -0.141205886371E+03    0.25742E-03   -0.30442E-01  2712   0.246E+00    0.745E-02
DAV:   2    -0.141206529948E+03   -0.64358E-03   -0.70848E-03  2984   0.347E-01    0.409E-02
DAV:   3    -0.141206498502E+03    0.31446E-04   -0.11078E-04  3160   0.477E-02    0.297E-02
DAV:   4    -0.141206476534E+03    0.21968E-04   -0.80972E-05  2896   0.494E-02    0.129E-02
DAV:   5    -0.141206470936E+03    0.55978E-05   -0.30796E-05  2208   0.326E-02    0.913E-03
DAV:   6    -0.141206468431E+03    0.25051E-05   -0.13320E-05  1704   0.187E-02
  29 F= -.14120647E+03 E0= -.14120453E+03  d E =-.466941E-03
       N       E                     dE             d eps       ncg     rms          rms(c)
DAV:   1    -0.141204120761E+03    0.23502E-02   -0.12172E+00  2696   0.492E+00    0.147E-01
DAV:   2    -0.141206700927E+03   -0.25802E-02   -0.28207E-02  2984   0.692E-01    0.826E-02
DAV:   3    -0.141206575855E+03    0.12507E-03   -0.42868E-04  3184   0.921E-02    0.592E-02
DAV:   4    -0.141206494537E+03    0.81318E-04   -0.35392E-04  3032   0.984E-02    0.249E-02
DAV:   5    -0.141206483890E+03    0.10647E-04   -0.12162E-04  3032   0.556E-02    0.197E-02
DAV:   6    -0.141206478027E+03    0.58629E-05   -0.52980E-05  2808   0.342E-02
  30 F= -.14120648E+03 E0= -.14120452E+03  d E =-.476537E-03
       N       E                     dE             d eps       ncg     rms          rms(c)
DAV:   1    -0.141206084646E+03    0.39924E-03   -0.25410E-01  2696   0.225E+00    0.663E-02
DAV:   2    -0.141206613254E+03   -0.52861E-03   -0.59021E-03  2984   0.318E-01    0.377E-02
DAV:   3    -0.141206589264E+03    0.23990E-04   -0.11372E-04  3104   0.447E-02    0.280E-02
DAV:   4    -0.141206571959E+03    0.17304E-04   -0.63500E-05  2872   0.369E-02    0.127E-02
DAV:   5    -0.141206567199E+03    0.47601E-05   -0.21661E-05  1800   0.245E-02    0.958E-03
DAV:   6    -0.141206565248E+03    0.19514E-05   -0.10003E-05  1680   0.194E-02
  31 F= -.14120657E+03 E0= -.14120462E+03  d E =-.563758E-03
       N       E                     dE             d eps       ncg     rms          rms(c)
DAV:   1    -0.141206918753E+03   -0.35155E-03   -0.91311E-02  2688   0.135E+00    0.421E-02
DAV:   2    -0.141207090848E+03   -0.17210E-03   -0.21565E-03  2992   0.193E-01    0.249E-02
DAV:   3    -0.141207077995E+03    0.12853E-04   -0.62825E-05  3040   0.358E-02    0.182E-02
DAV:   4    -0.141207069260E+03    0.87351E-05   -0.18974E-05  2160   0.184E-02    0.962E-03
DAV:   5    -0.141207063121E+03    0.61390E-05   -0.11544E-05  1904   0.242E-02    0.515E-03
DAV:   6    -0.141207062007E+03    0.11145E-05   -0.84818E-06  1712   0.178E-02
  32 F= -.14120706E+03 E0= -.14120512E+03  d E =-.496759E-03
       N       E                     dE             d eps       ncg     rms          rms(c)
DAV:   1    -0.141207042806E+03    0.20316E-04   -0.15256E-01  2688   0.175E+00    0.584E-02
DAV:   2    -0.141207332357E+03   -0.28955E-03   -0.37430E-03  2992   0.257E-01    0.314E-02
DAV:   3    -0.141207306259E+03    0.26099E-04   -0.11849E-04  3192   0.509E-02    0.237E-02
DAV:   4    -0.141207283041E+03    0.23218E-04   -0.33739E-05  2560   0.270E-02    0.125E-02
DAV:   5    -0.141207258849E+03    0.24192E-04   -0.25133E-05  2352   0.452E-02    0.891E-03
DAV:   6    -0.141207248337E+03    0.10512E-04   -0.19000E-05  2176   0.366E-02    0.738E-03
DAV:   7    -0.141207234876E+03    0.13461E-04   -0.14314E-05  1968   0.443E-02    0.490E-03
DAV:   8    -0.141207218202E+03    0.16674E-04   -0.68421E-06  1896   0.502E-02    0.440E-03
DAV:   9    -0.141207194999E+03    0.23203E-04   -0.14036E-05  2024   0.675E-02    0.344E-03
DAV:  10    -0.141207172060E+03    0.22939E-04   -0.52870E-05  2984   0.109E-01    0.787E-03
DAV:  11    -0.141207169763E+03    0.22978E-05   -0.65046E-05  2592   0.623E-02
  33 F= -.14120717E+03 E0= -.14120522E+03  d E =-.604515E-03
       N       E                     dE             d eps       ncg     rms          rms(c)
DAV:   1    -0.141207182443E+03   -0.10383E-04   -0.10765E-02  2808   0.466E-01    0.176E-02
DAV:   2    -0.141207201429E+03   -0.18986E-04   -0.27838E-04  3008   0.728E-02    0.846E-03
DAV:   3    -0.141207200189E+03    0.12397E-05   -0.15320E-05  1752   0.189E-02    0.637E-03
DAV:   4    -0.141207199068E+03    0.11214E-05   -0.29117E-06  1680   0.748E-03    0.401E-03
DAV:   5    -0.141207197487E+03    0.15807E-05   -0.35738E-06  1688   0.115E-02    0.243E-03
DAV:   6    -0.141207197078E+03    0.40889E-06   -0.16954E-06  1656   0.849E-03
  34 F= -.14120720E+03 E0= -.14120525E+03  d E =-.631830E-03
       N       E                     dE             d eps       ncg     rms          rms(c)
DAV:   1    -0.141207333031E+03   -0.13554E-03   -0.36490E-02  2760   0.841E-01    0.270E-02
DAV:   2    -0.141207398123E+03   -0.65092E-04   -0.85983E-04  3048   0.123E-01    0.177E-02
DAV:   3    -0.141207391311E+03    0.68126E-05   -0.21993E-05  1976   0.222E-02    0.136E-02
DAV:   4    -0.141207384461E+03    0.68498E-05   -0.16268E-05  1792   0.221E-02    0.601E-03
DAV:   5    -0.141207381923E+03    0.25378E-05   -0.11422E-05  1832   0.213E-02    0.611E-03
DAV:   6    -0.141207381685E+03    0.23815E-06   -0.56286E-06  1664   0.109E-02
  35 F= -.14120738E+03 E0= -.14120541E+03  d E =-.184607E-03
       N       E                     dE             d eps       ncg     rms          rms(c)
DAV:   1    -0.141207390154E+03   -0.82307E-05   -0.67970E-03  2792   0.363E-01    0.135E-02
DAV:   2    -0.141207402171E+03   -0.12018E-04   -0.17758E-04  3016   0.572E-02    0.803E-03
DAV:   3    -0.141207400268E+03    0.19029E-05   -0.58184E-06  1680   0.130E-02    0.630E-03
DAV:   4    -0.141207397713E+03    0.25553E-05   -0.46539E-06  1712   0.143E-02    0.283E-03
DAV:   5    -0.141207396089E+03    0.16240E-05   -0.35551E-06  1736   0.159E-02    0.407E-03
DAV:   6    -0.141207395709E+03    0.37980E-06   -0.31691E-06  1656   0.913E-03
  36 F= -.14120740E+03 E0= -.14120542E+03  d E =-.198631E-03
       N       E                     dE             d eps       ncg     rms          rms(c)
DAV:   1    -0.141207455958E+03   -0.59869E-04   -0.41742E-02  2784   0.910E-01    0.281E-02
DAV:   2    -0.141207547247E+03   -0.91289E-04   -0.99083E-04  2960   0.128E-01    0.158E-02
DAV:   3    -0.141207541227E+03    0.60200E-05   -0.85869E-06  1840   0.168E-02    0.109E-02
DAV:   4    -0.141207536650E+03    0.45771E-05   -0.19622E-05  1848   0.279E-02    0.347E-03
DAV:   5    -0.141207537078E+03   -0.42803E-06   -0.90894E-06  1608   0.132E-02    0.422E-03
DAV:   6    -0.141207537066E+03    0.12036E-07   -0.98875E-07  1520   0.428E-03
  37 F= -.14120754E+03 E0= -.14120555E+03  d E =-.141356E-03
       N       E                     dE             d eps       ncg     rms          rms(c)
DAV:   1    -0.141207040648E+03    0.49643E-03   -0.37546E-01  2784   0.273E+00    0.844E-02
DAV:   2    -0.141207850116E+03   -0.80947E-03   -0.88435E-03  2936   0.384E-01    0.472E-02
DAV:   3    -0.141207793018E+03    0.57098E-04   -0.86648E-05  3128   0.522E-02    0.328E-02
DAV:   4    -0.141207742763E+03    0.50255E-04   -0.14608E-04  3008   0.789E-02    0.119E-02
DAV:   5    -0.141207738162E+03    0.46006E-05   -0.73630E-05  2856   0.416E-02    0.123E-02
DAV:   6    -0.141207734747E+03    0.34154E-05   -0.11233E-05  1696   0.162E-02
  38 F= -.14120773E+03 E0= -.14120572E+03  d E =-.339037E-03
       N       E                     dE             d eps       ncg     rms          rms(c)
DAV:   1    -0.141207791966E+03   -0.53804E-04   -0.46655E-02  2752   0.962E-01    0.327E-02
DAV:   2    -0.141207882907E+03   -0.90941E-04   -0.11156E-03  3008   0.139E-01    0.199E-02
DAV:   3    -0.141207871351E+03    0.11556E-04   -0.16892E-05  1976   0.239E-02    0.142E-02
DAV:   4    -0.141207856710E+03    0.14641E-04   -0.28009E-05  2384   0.352E-02    0.610E-03
DAV:   5    -0.141207850590E+03    0.61201E-05   -0.11762E-05  1728   0.231E-02    0.562E-03
DAV:   6    -0.141207846734E+03    0.38556E-05   -0.66170E-06  1656   0.158E-02
  39 F= -.14120785E+03 E0= -.14120579E+03  d E =-.111988E-03
