 vasp.5.3.5 31Mar14 (build Apr 08 2024 10:12:10) complex                        
  
 executed on             LinuxIFC date 2024.07.29  19:00:38
 running on    8 total cores
 distrk:  each k-point on    8 cores,    1 groups
 distr:  one band on NCORES_PER_BAND=   4 cores,    2 groups


--------------------------------------------------------------------------------------------------------


 INCAR:
 POTCAR:    PAW_PBE O 08Apr2002                   
 POTCAR:    PAW_PBE Mg 13Apr2007                  
 POTCAR:    PAW_PBE Al 04Jan2001                  
 POTCAR:    PAW_PBE O 08Apr2002                   
   VRHFIN =O: s2p4                                                              
   LEXCH  = PE                                                                  
   EATOM  =   432.3788 eV,   31.7789 Ry                                         
                                                                                
   TITEL  = PAW_PBE O 08Apr2002                                                 
   LULTRA =        F    use ultrasoft PP ?                                      
   IUNSCR =        1    unscreen: 0-lin 1-nonlin 2-no                           
   RPACOR =    1.200    partial core radius                                     
   POMASS =   16.000; ZVAL   =    6.000    mass and valenz                      
   RCORE  =    1.520    outmost cutoff radius                                   
   RWIGS  =    1.550; RWIGS  =    0.820    wigner-seitz radius (au A)           
   ENMAX  =  400.000; ENMIN  =  300.000 eV                                      
   ICORE  =        2    local potential                                         
   LCOR   =        T    correct aug charges                                     
   LPAW   =        T    paw PP                                                  
   EAUG   =  605.392                                                            
   DEXC   =    0.000                                                            
   RMAX   =    1.553    core radius for proj-oper                               
   RAUG   =    1.300    factor for augmentation sphere                          
   RDEP   =    1.550    radius for radial grids                                 
   RDEPT  =    1.329    core radius for aug-charge                              
                                                                                
   Atomic configuration                                                         
    4 entries                                                                   
     n  l   j            E        occ.                                          
     1  0  0.50      -514.6923   2.0000                                         
     2  0  0.50       -23.9615   2.0000                                         
     2  1  0.50        -9.0305   4.0000                                         
     3  2  1.50        -9.5241   0.0000                                         
   Description                                                                  
     l       E           TYP  RCUT    TYP  RCUT                                 
     0    -23.9615318     23  1.200                                             
     0     -9.5240782     23  1.200                                             
     1     -9.0304911     23  1.520                                             
     1      8.1634956     23  1.520                                             
     2     -9.5240782      7  1.500                                             
  local pseudopotential read in
  partial core-charges read in
  partial kinetic energy density read in
  kinetic energy density of atom read in
  atomic valenz-charges read in
  non local Contribution for L=           0  read in
    real space projection operators read in
  non local Contribution for L=           0  read in
    real space projection operators read in
  non local Contribution for L=           1  read in
    real space projection operators read in
  non local Contribution for L=           1  read in
    real space projection operators read in
    PAW grid and wavefunctions read in
 
   number of l-projection  operators is LMAX  =           4
   number of lm-projection operators is LMMAX =           8
 
 POTCAR:    PAW_PBE Mg 13Apr2007                  
   VRHFIN =Mg: s2p0                                                             
   LEXCH  = PE                                                                  
   EATOM  =    23.0369 eV,    1.6932 Ry                                         
                                                                                
   TITEL  = PAW_PBE Mg 13Apr2007                                                
   LULTRA =        F    use ultrasoft PP ?                                      
   IUNSCR =        1    unscreen: 0-lin 1-nonlin 2-no                           
   RPACOR =    1.500    partial core radius                                     
   POMASS =   24.305; ZVAL   =    2.000    mass and valenz                      
   RCORE  =    2.000    outmost cutoff radius                                   
   RWIGS  =    2.880; RWIGS  =    1.524    wigner-seitz radius (au A)           
   ENMAX  =  200.000; ENMIN  =  100.000 eV                                      
   RCLOC  =    1.506    cutoff for local pot                                    
   LCOR   =        T    correct aug charges                                     
   LPAW   =        T    paw PP                                                  
   EAUG   =  454.734                                                            
   DEXC   =    0.000                                                            
   RMAX   =    2.045    core radius for proj-oper                               
   RAUG   =    1.300    factor for augmentation sphere                          
   RDEP   =    2.025    radius for radial grids                                 
   RDEPT  =    1.942    core radius for aug-charge                              
                                                                                
   Atomic configuration                                                         
    6 entries                                                                   
     n  l   j            E        occ.                                          
     1  0  0.50     -1259.6230   2.0000                                         
     2  0  0.50       -79.8442   2.0000                                         
     2  1  1.50       -46.6121   6.0000                                         
     3  0  0.50        -4.7055   2.0000                                         
     3  1  0.50        -1.3660   0.0000                                         
     3  2  1.50        -1.3606   0.0000                                         
   Description                                                                  
     l       E           TYP  RCUT    TYP  RCUT                                 
     0     -4.7054661     23  2.000                                             
     0     27.2116520     23  2.000                                             
     1      1.3605826     23  2.000                                             
     1     27.2116520     23  2.000                                             
     2     -1.3605826     23  2.000                                             
  local pseudopotential read in
  partial core-charges read in
  partial kinetic energy density read in
  atomic valenz-charges read in
  non local Contribution for L=           0  read in
    real space projection operators read in
  non local Contribution for L=           0  read in
    real space projection operators read in
  non local Contribution for L=           1  read in
    real space projection operators read in
  non local Contribution for L=           1  read in
    real space projection operators read in
  non local Contribution for L=           2  read in
    real space projection operators read in
    PAW grid and wavefunctions read in
 
   number of l-projection  operators is LMAX  =           5
   number of lm-projection operators is LMMAX =          13
 
 POTCAR:    PAW_PBE Al 04Jan2001                  
   VRHFIN =Al: s2p1                                                             
   LEXCH  = PE                                                                  
   EATOM  =    53.5387 eV,    3.9350 Ry                                         
                                                                                
   TITEL  = PAW_PBE Al 04Jan2001                                                
   LULTRA =        F    use ultrasoft PP ?                                      
   IUNSCR =        1    unscreen: 0-lin 1-nonlin 2-no                           
   RPACOR =    1.500    partial core radius                                     
   POMASS =   26.981; ZVAL   =    3.000    mass and valenz                      
   RCORE  =    1.900    outmost cutoff radius                                   
   RWIGS  =    2.650; RWIGS  =    1.402    wigner-seitz radius (au A)           
   ENMAX  =  240.300; ENMIN  =  180.225 eV                                      
   ICORE  =        2    local potential                                         
   LCOR   =        T    correct aug charges                                     
   LPAW   =        T    paw PP                                                  
   EAUG   =  291.052                                                            
   DEXC   =    0.000                                                            
   RMAX   =    1.939    core radius for proj-oper                               
   RAUG   =    1.300    factor for augmentation sphere                          
   RDEP   =    1.966    radius for radial grids                                 
   RDEPT  =    1.856    core radius for aug-charge                              
                                                                                
   Atomic configuration                                                         
    6 entries                                                                   
     n  l   j            E        occ.                                          
     1  0  0.50     -1511.1048   2.0000                                         
     2  0  0.50      -108.1629   2.0000                                         
     2  1  1.50       -69.6402   6.0000                                         
     3  0  0.50        -7.7528   2.0000                                         
     3  1  1.50        -2.7121   1.0000                                         
     3  2  2.50        -2.7212   0.0000                                         
   Description                                                                  
     l       E           TYP  RCUT    TYP  RCUT                                 
     0     -7.7528455     23  1.900                                             
     0     -3.3096929     23  1.900                                             
     1     -2.7120682     23  1.900                                             
     1     13.6058260     23  1.900                                             
     2     -2.7211652      7  1.900                                             
  local pseudopotential read in
  partial core-charges read in
  partial kinetic energy density read in
  atomic valenz-charges read in
  non local Contribution for L=           0  read in
    real space projection operators read in
  non local Contribution for L=           0  read in
    real space projection operators read in
  non local Contribution for L=           1  read in
    real space projection operators read in
  non local Contribution for L=           1  read in
    real space projection operators read in
    PAW grid and wavefunctions read in
 
   number of l-projection  operators is LMAX  =           4
   number of lm-projection operators is LMMAX =           8
 

 ----------------------------------------------------------------------------- 
|                                                                             |
|  ADVICE TO THIS USER RUNNING 'VASP/VAMP'   (HEAR YOUR MASTER'S VOICE ...):  |
|                                                                             |
|      You have a (more or less) 'large supercell' and for larger cells       |
|      it might be more efficient to use real space projection opertators     |
|      So try LREAL= Auto  in the INCAR   file.                               |
|      Mind: At the moment your POTCAR file does not contain real space       |
|       projectors, and has to be modified,  BUT if you                       |
|      want to do an extremely  accurate calculation you might also keep the  |
|      reciprocal projection scheme          (i.e. LREAL=.FALSE.)             |
|                                                                             |
 ----------------------------------------------------------------------------- 

  PAW_PBE O 08Apr2002                   :
 energy of atom  1       EATOM= -432.3788
 kinetic energy error for atom=    0.0208 (will be added to EATOM!!)
  PAW_PBE Mg 13Apr2007                  :
 energy of atom  2       EATOM=  -23.0369
 kinetic energy error for atom=    0.0000 (will be added to EATOM!!)
  PAW_PBE Al 04Jan2001                  :
 energy of atom  3       EATOM=  -53.5387
 kinetic energy error for atom=    0.0002 (will be added to EATOM!!)
 
 
 POSCAR: Layer                                   
  positions in direct lattice
  velocities in cartesian coordinates
 exchange correlation table for  LEXCH =        8
   RHO(1)=    0.500       N(1)  =     2000
   RHO(2)=  100.500       N(2)  =     4000
 


--------------------------------------------------------------------------------------------------------


 ion  position               nearest neighbor table
   1  0.000  0.000  0.249-  21 1.75  14 2.09  14 2.09  14 2.09
   2  0.333  0.667  0.308-  11 2.15  11 2.15  11 2.15  14 2.15  14 2.15  14 2.15
   3  0.000  0.000  0.433-  15 2.15  15 2.15  15 2.15  17 2.15  17 2.15  17 2.15
   4  0.333  0.667  0.495-  12 2.15  12 2.15  12 2.15  15 2.15  15 2.15  15 2.15
   5  0.000  0.000  0.619-  18 2.15  18 2.15  18 2.15  16 2.15  16 2.15  16 2.15
   6  0.333  0.667  0.681-  16 2.15  16 2.15  16 2.15  13 2.15  13 2.15  13 2.15
   7  0.000  0.000  0.803-  24 1.75  19 2.09  19 2.09  19 2.09
   8  0.667  0.333  0.371-  17 2.15  17 2.15  17 2.15  11 2.15  11 2.15  11 2.15
   9  0.667  0.333  0.557-  12 2.15  12 2.15  12 2.15  18 2.15  18 2.15  18 2.15
  10  0.667  0.333  0.744-  13 2.15  13 2.15  13 2.15  19 2.15  19 2.15  19 2.15
  11  0.000  0.000  0.340-   2 2.15   2 2.15   2 2.15   8 2.15   8 2.15   8 2.15  17 3.08  17 3.08
                            17 3.08  14 3.08  14 3.08  14 3.08
  12  0.000  0.000  0.526-   9 2.15   9 2.15   9 2.15   4 2.15   4 2.15   4 2.15  18 3.08  18 3.08
                            18 3.08  15 3.08  15 3.08  15 3.08
  13  0.000  0.000  0.713-  10 2.15  10 2.15  10 2.15   6 2.15   6 2.15   6 2.15  16 3.08  16 3.08
                            16 3.08  19 3.08  19 3.08  19 3.08
  14  0.667  0.333  0.277-   1 2.09   1 2.09   1 2.09   2 2.15   2 2.15   2 2.15  11 3.08  11 3.08
                            11 3.08  21 3.40  21 3.40  21 3.40
  15  0.667  0.333  0.464-   3 2.15   3 2.15   3 2.15   4 2.15   4 2.15   4 2.15  17 3.08  17 3.08
                            17 3.08  12 3.08  12 3.08  12 3.08
  16  0.667  0.333  0.650-   6 2.15   6 2.15   6 2.15   5 2.15   5 2.15   5 2.15  18 3.08  18 3.08
                            18 3.08  13 3.08  13 3.08  13 3.08
  17  0.333  0.667  0.402-   8 2.15   8 2.15   8 2.15   3 2.15   3 2.15   3 2.15  15 3.08  15 3.08
                            15 3.08  11 3.08  11 3.08  11 3.08
  18  0.333  0.667  0.588-   5 2.15   5 2.15   5 2.15   9 2.15   9 2.15   9 2.15  16 3.08  16 3.08
                            16 3.08  12 3.08  12 3.08  12 3.08
  19  0.333  0.667  0.775-   7 2.09   7 2.09   7 2.09  10 2.15  10 2.15  10 2.15  13 3.08  13 3.08
                            13 3.08  24 3.40  24 3.40  24 3.40
  20  0.000  0.000  0.026-  23 3.00  23 3.00  23 3.00  25 3.00  25 3.00  25 3.00
  21  0.000  0.000  0.206-   1 1.75  22 2.96  22 2.96  22 2.96  14 3.40  14 3.40  14 3.40
  22  0.667  0.333  0.147-  21 2.96  21 2.96  21 2.96  23 3.03  23 3.03  23 3.03
  23  0.333  0.667  0.086-  20 3.00  20 3.00  20 3.00  22 3.03  22 3.03  22 3.03
  24  0.000  0.000  0.846-   7 1.75  26 2.96  26 2.96  26 2.96  19 3.40  19 3.40  19 3.40
  25  0.667  0.333  0.966-  20 3.00  20 3.00  20 3.00  26 3.03  26 3.03  26 3.03
  26  0.333  0.667  0.905-  24 2.96  24 2.96  24 2.96  25 3.03  25 3.03  25 3.03
 
  LATTYP: Found a hexagonal cell.
 ALAT       =     3.0027496481
 C/A-ratio  =    13.6059030023
  
  Lattice vectors:
  
 A1 = (   2.6004576727,  -1.5013744842,   0.0000000000)
 A2 = (   0.0000000000,   3.0027489684,   0.0000000000)
 A3 = (   0.0000000000,  -0.0000000000,  40.8551204526)


Analysis of symmetry for initial positions (statically):
=====================================================================
 Subroutine PRICEL returns:
 Original cell was already a primitive cell.
 

 Routine SETGRP: Setting up the symmetry group for a 
 hexagonal supercell.


 Subroutine GETGRP returns: Found  6 space group operations
 (whereof  6 operations were pure point group operations)
 out of a pool of 24 trial point group operations.


The static configuration has the point symmetry C_3v.


Analysis of symmetry for dynamics (positions and initial velocities):
=====================================================================
 Subroutine PRICEL returns:
 Original cell was already a primitive cell.
 

 Routine SETGRP: Setting up the symmetry group for a 
 hexagonal supercell.


 Subroutine GETGRP returns: Found  6 space group operations
 (whereof  6 operations were pure point group operations)
 out of a pool of 24 trial point group operations.


The dynamic configuration has the point symmetry C_3v.


Analysis of constrained symmetry for selective dynamics:
=====================================================================
 Subroutine PRICEL returns:
 Original cell was already a primitive cell.
 

 Routine SETGRP: Setting up the symmetry group for a 
 hexagonal supercell.


 Subroutine GETGRP returns: Found  6 space group operations
 (whereof  6 operations were pure point group operations)
 out of a pool of 24 trial point group operations.


The constrained configuration has the point symmetry C_3v.
 
 
 KPOINTS: K-Spacing Value to Generate K-Mesh: 0.02

Automatic generation of k-mesh.
Space group operators:
 irot       det(A)        alpha          n_x          n_y          n_z        tau_x        tau_y        tau_z
    1     1.000000     0.000000     1.000000     0.000000     0.000000     0.000000     0.000000     0.000000
    2     1.000000   120.000000    -0.000000    -0.000000    -1.000000     0.000000     0.000000     0.000000
    3     1.000000   120.000000     0.000000    -0.000000     1.000000     0.000000     0.000000     0.000000
    4    -1.000000   180.000000    -0.866025     0.500000     0.000000     0.000000     0.000000     0.000000
    5    -1.000000   179.999999     0.000000     1.000000     0.000000     0.000000     0.000000     0.000000
    6    -1.000000   180.000000    -0.866025    -0.500000     0.000000     0.000000     0.000000     0.000000
 
 Subroutine IBZKPT returns following result:
 ===========================================
 
 Found     21 irreducible k-points:
 
 Following reciprocal coordinates:
            Coordinates               Weight
  0.000000  0.000000  0.000000      1.000000
  0.076923  0.000000  0.000000      6.000000
  0.153846  0.000000  0.000000      6.000000
  0.230769  0.000000  0.000000      6.000000
  0.307692  0.000000  0.000000      6.000000
  0.384615  0.000000  0.000000      6.000000
  0.461538  0.000000  0.000000      6.000000
  0.076923  0.076923 -0.000000      6.000000
  0.153846  0.076923  0.000000     12.000000
  0.230769  0.076923  0.000000     12.000000
  0.307692  0.076923  0.000000     12.000000
  0.384615  0.076923  0.000000     12.000000
  0.461538  0.076923  0.000000      6.000000
  0.153846  0.153846  0.000000      6.000000
  0.230769  0.153846  0.000000     12.000000
  0.307692  0.153846  0.000000     12.000000
  0.384615  0.153846  0.000000     12.000000
  0.230769  0.230769  0.000000      6.000000
  0.307692  0.230769  0.000000     12.000000
  0.384615  0.230769 -0.000000      6.000000
  0.307692  0.307692  0.000000      6.000000
 
 Following cartesian coordinates:
            Coordinates               Weight
  0.000000  0.000000  0.000000      1.000000
  0.029581  0.000000 -0.000000      6.000000
  0.059161  0.000000 -0.000000      6.000000
  0.088742  0.000000 -0.000000      6.000000
  0.118322  0.000000 -0.000000      6.000000
  0.147903  0.000000 -0.000000      6.000000
  0.177484  0.000000 -0.000000      6.000000
  0.044371  0.025618 -0.000000      6.000000
  0.073951  0.025618 -0.000000     12.000000
  0.103532  0.025618 -0.000000     12.000000
  0.133113  0.025618 -0.000000     12.000000
  0.162693  0.025618 -0.000000     12.000000
  0.192274  0.025618 -0.000000      6.000000
  0.088742  0.051235 -0.000000      6.000000
  0.118322  0.051235 -0.000000     12.000000
  0.147903  0.051235 -0.000000     12.000000
  0.177484  0.051235 -0.000000     12.000000
  0.133113  0.076853 -0.000000      6.000000
  0.162693  0.076853 -0.000000     12.000000
  0.192274  0.076853 -0.000000      6.000000
  0.177484  0.102470 -0.000000      6.000000
 


--------------------------------------------------------------------------------------------------------




 Dimension of arrays:
   k-points           NKPTS =     21   k-points in BZ     NKDIM =     21   number of bands    NBANDS=     64
   number of dos      NEDOS =    301   number of ions     NIONS =     26
   non local maximal  LDIM  =      5   non local SUM 2l+1 LMDIM =     13
   total plane-waves  NPLWV = 184320
   max r-space proj   IRMAX =      1   max aug-charges    IRDMAX= 196526
   dimension x,y,z NGX =    24 NGY =   24 NGZ =  320
   dimension x,y,z NGXF=    48 NGYF=   48 NGZF=  640
   support grid    NGXF=    96 NGYF=   96 NGZF= 1280
   ions per type =              10   9   7
 NGX,Y,Z   is equivalent  to a cutoff of  13.29, 13.29, 13.02 a.u.
 NGXF,Y,Z  is equivalent  to a cutoff of  26.57, 26.57, 26.04 a.u.


 I would recommend the setting:
   dimension x,y,z NGX =    22 NGY =   22 NGZ =  304
 SYSTEM =  unknown system                          
 POSCAR =  Layer                                   

 Startparameter for this run:
   NWRITE =      2    write-flag & timer
   PREC   = accura    normal or accurate (medium, high low for compatibility)
   ISTART =      0    job   : 0-new  1-cont  2-samecut
   ICHARG =      2    charge: 1-file 2-atom 10-const
   ISPIN  =      1    spin polarized calculation?
   LNONCOLLINEAR =      F non collinear calculations
   LSORBIT =      F    spin-orbit coupling
   INIWAV =      1    electr: 0-lowe 1-rand  2-diag
   LASPH  =      F    aspherical Exc in radial PAW
   METAGGA=      F    non-selfconsistent MetaGGA calc.

 Electronic Relaxation 1
   ENCUT  =  520.0 eV  38.22 Ry    6.18 a.u.   5.58  5.58 75.96*2*pi/ulx,y,z
   ENINI  =  520.0     initial cutoff
   ENAUG  =  605.4 eV  augmentation charge cutoff
   NELM   =    100;   NELMIN=  6; NELMDL=  0     # of ELM steps 
   EDIFF  = 0.1E-04   stopping-criterion for ELM
   LREAL  =      F    real-space projection
   NLSPLINE    = F    spline interpolate recip. space projectors
   LCOMPAT=      F    compatible to vasp.4.4
   GGA_COMPAT  = T    GGA compatible to vasp.4.4-vasp.4.6
   LMAXPAW     = -100 max onsite density
   LMAXMIX     =    2 max onsite mixed and CHGCAR
   VOSKOWN=      0    Vosko Wilk Nusair interpolation
   ROPT   =    0.00000   0.00000   0.00000
 Ionic relaxation
   EDIFFG = -.2E-01   stopping-criterion for IOM
   NSW    =    500    number of steps for IOM
   NBLOCK =      1;   KBLOCK =    500    inner block; outer block 
   IBRION =      2    ionic relax: 0-MD 1-quasi-New 2-CG
   NFREE  =      1    steps in history (QN), initial steepest desc. (CG)
   ISIF   =      2    stress and relaxation
   IWAVPR =     11    prediction:  0-non 1-charg 2-wave 3-comb
   ISYM   =      2    0-nonsym 1-usesym 2-fastsym
   LCORR  =      T    Harris-Foulkes like correction to forces

   POTIM  = 0.5000    time-step for ionic-motion
   TEIN   =    0.0    initial temperature
   TEBEG  =    0.0;   TEEND  =   0.0 temperature during run
   SMASS  =  -3.00    Nose mass-parameter (am)
   estimated Nose-frequenzy (Omega)   =  0.10E-29 period in steps =****** mass=  -0.206E-27a.u.
   SCALEE = 1.0000    scale energy and forces
   NPACO  =    256;   APACO  = 16.0  distance and # of slots for P.C.
   PSTRESS=    0.0 pullay stress

  Mass of Ions in am
   POMASS =  16.00 24.30 26.98
  Ionic Valenz
   ZVAL   =   6.00  2.00  3.00
  Atomic Wigner-Seitz radii
   RWIGS  =  -1.00 -1.00 -1.00
  virtual crystal weights 
   VCA    =   1.00  1.00  1.00
   NELECT =      99.0000    total number of electrons
   NUPDOWN=      -1.0000    fix difference up-down

 DOS related values:
   EMIN   =  10.00;   EMAX   =-10.00  energy-range for DOS
   EFERMI =   0.00
   ISMEAR =     0;   SIGMA  =   0.05  broadening in eV -4-tet -1-fermi 0-gaus

 Electronic relaxation 2 (details)
   IALGO  =     38    algorithm
   LDIAG  =      T    sub-space diagonalisation (order eigenvalues)
   LSUBROT=      F    optimize rotation matrix (better conditioning)
   TURBO    =      0    0=normal 1=particle mesh
   IRESTART =      0    0=no restart 2=restart with 2 vectors
   NREBOOT  =      0    no. of reboots
   NMIN     =      0    reboot dimension
   EREF     =   0.00    reference energy to select bands
   IMIX   =      4    mixing-type and parameters
     AMIX     =   0.40;   BMIX     =  1.00
     AMIX_MAG =   1.60;   BMIX_MAG =  1.00
     AMIN     =   0.01
     WC   =   100.;   INIMIX=   1;  MIXPRE=   1;  MAXMIX= -45

 Intra band minimization:
   WEIMIN = 0.0010     energy-eigenvalue tresh-hold
   EBREAK =  0.39E-07  absolut break condition
   DEPER  =   0.30     relativ break condition  

   TIME   =   0.40     timestep for ELM

  volume/ion in A,a.u.               =      12.27        82.80
  Fermi-wavevector in a.u.,A,eV,Ry     =   1.108362  2.094500 16.714286  1.228465
  Thomas-Fermi vector in A             =   2.244888
 
 Write flags
   LWAVE  =      F    write WAVECAR
   LCHARG =      T    write CHGCAR
   LVTOT  =      F    write LOCPOT, total local potential
   LVHAR  =      F    write LOCPOT, Hartree potential only
   LELF   =      F    write electronic localiz. function (ELF)
   LORBIT =      0    0 simple, 1 ext, 2 COOP (PROOUT)


 Dipole corrections
   LMONO  =      F    monopole corrections only (constant potential shift)
   LDIPOL =      F    correct potential (dipole corrections)
   IDIPOL =      0    1-x, 2-y, 3-z, 4-all directions 
   EPSILON=  1.0000000 bulk dielectric constant

 Exchange correlation treatment:
   GGA     =    --    GGA type
   LEXCH   =     8    internal setting for exchange type
   VOSKOWN=      0    Vosko Wilk Nusair interpolation
   LHFCALC =     F    Hartree Fock is set to
   LHFONE  =     F    Hartree Fock one center treatment
   AEXX    =    0.0000 exact exchange contribution

 Linear response parameters
   LEPSILON=     F    determine dielectric tensor
   LRPA    =     F    only Hartree local field effects (RPA)
   LNABLA  =     F    use nabla operator in PAW spheres
   LVEL    =     F    velocity operator in full k-point grid
   LINTERFAST=   F  fast interpolation
   KINTER  =     0    interpolate to denser k-point grid
   CSHIFT  =0.1000    complex shift for real part using Kramers Kronig
   OMEGAMAX=  -1.0    maximum frequency
   DEG_THRESHOLD= 0.2000000E-02 threshold for treating states as degnerate
   RTIME   =    0.100 relaxation time in fs

 Orbital magnetization related:
   ORBITALMAG=     F  switch on orbital magnetization
   LCHIMAG   =     F  perturbation theory with respect to B field
   DQ        =  0.001000  dq finite difference perturbation B field



--------------------------------------------------------------------------------------------------------


 conjugate gradient relaxation of ions
   using selective dynamics as specified on POSCAR
 charge density and potential will be updated during run
 non-spin polarized calculation
 Variant of blocked Davidson
 Davidson routine will perform the subspace rotation
 perform sub-space diagonalisation
    after iterative eigenvector-optimisation
 modified Broyden-mixing scheme, WC =      100.0
 initial mixing is a Kerker type mixing with AMIX =  0.4000 and BMIX =      1.0000
 Hartree-type preconditioning will be used
 using additional bands           14
 reciprocal scheme for non local part
 use partial core corrections
 calculate Harris-corrections to forces 
   (improved forces if not selfconsistent)
 use gradient corrections 
 use of overlap-Matrix (Vanderbilt PP)
 Gauss-broadening in eV      SIGMA  =   0.05


--------------------------------------------------------------------------------------------------------


  energy-cutoff  :      520.00
  volume of cell :      319.02
      direct lattice vectors                 reciprocal lattice vectors
     2.600457673 -1.501374484  0.000000000     0.384547693  0.000000000 -0.000000000
     0.000000000  3.002748968  0.000000000     0.192273847  0.333028172 -0.000000000
     0.000000000 -0.000000000 40.855120453     0.000000000  0.000000000  0.024476736

  length of vectors
     3.002749648  3.002748968 40.855120453     0.384547693  0.384547781  0.024476736


 
 k-points in units of 2pi/SCALE and weight: K-Spacing Value to Generate K-Mesh: 0.02
   0.00000000  0.00000000  0.00000000       0.006
   0.02958059  0.00000000 -0.00000000       0.036
   0.05916118  0.00000000 -0.00000000       0.036
   0.08874178  0.00000000 -0.00000000       0.036
   0.11832237  0.00000000 -0.00000000       0.036
   0.14790296  0.00000000 -0.00000000       0.036
   0.17748355  0.00000000 -0.00000000       0.036
   0.04437089  0.02561755 -0.00000000       0.036
   0.07395148  0.02561755 -0.00000000       0.071
   0.10353207  0.02561755 -0.00000000       0.071
   0.13311266  0.02561755 -0.00000000       0.071
   0.16269325  0.02561755 -0.00000000       0.071
   0.19227385  0.02561755 -0.00000000       0.036
   0.08874178  0.05123510 -0.00000000       0.036
   0.11832237  0.05123510 -0.00000000       0.071
   0.14790296  0.05123510 -0.00000000       0.071
   0.17748355  0.05123510 -0.00000000       0.071
   0.13311266  0.07685266 -0.00000000       0.036
   0.16269325  0.07685266 -0.00000000       0.071
   0.19227385  0.07685266 -0.00000000       0.036
   0.17748355  0.10247021 -0.00000000       0.036
 
 k-points in reciprocal lattice and weights: K-Spacing Value to Generate K-Mesh: 0.02
   0.00000000  0.00000000  0.00000000       0.006
   0.07692308  0.00000000  0.00000000       0.036
   0.15384615  0.00000000  0.00000000       0.036
   0.23076923  0.00000000  0.00000000       0.036
   0.30769231  0.00000000  0.00000000       0.036
   0.38461538  0.00000000  0.00000000       0.036
   0.46153846  0.00000000  0.00000000       0.036
   0.07692308  0.07692308 -0.00000000       0.036
   0.15384615  0.07692308  0.00000000       0.071
   0.23076923  0.07692308  0.00000000       0.071
   0.30769231  0.07692308  0.00000000       0.071
   0.38461538  0.07692308  0.00000000       0.071
   0.46153846  0.07692308  0.00000000       0.036
   0.15384615  0.15384615  0.00000000       0.036
   0.23076923  0.15384615  0.00000000       0.071
   0.30769231  0.15384615  0.00000000       0.071
   0.38461538  0.15384615  0.00000000       0.071
   0.23076923  0.23076923  0.00000000       0.036
   0.30769231  0.23076923  0.00000000       0.071
   0.38461538  0.23076923 -0.00000000       0.036
   0.30769231  0.30769231  0.00000000       0.036
 
 position of ions in fractional coordinates (direct lattice) 
   0.00000000  0.00000000  0.24865331
   0.33333300  0.66666700  0.30844627
   0.00000000  0.00000000  0.43278588
   0.33333300  0.66666700  0.49495204
   0.00000000  0.00000000  0.61928601
   0.33333300  0.66666700  0.68146218
   0.00000000  0.00000000  0.80342325
   0.66666700  0.33333300  0.37061495
   0.66666700  0.33333300  0.55711690
   0.66666700  0.33333300  0.74363527
   0.00000000  0.00000000  0.33951139
   0.00000000  0.00000000  0.52603967
   0.00000000  0.00000000  0.71255882
   0.66666700  0.33333300  0.27726445
   0.66666700  0.33333300  0.46386144
   0.66666700  0.33333300  0.65038548
   0.33333300  0.66666700  0.40168847
   0.33333300  0.66666700  0.58821515
   0.33333300  0.66666700  0.77480526
   0.00000000  0.00000000  0.02603761
   0.00000000  0.00000000  0.20569733
   0.66666700  0.33333300  0.14683800
   0.33333300  0.66666700  0.08597870
   0.00000000  0.00000000  0.84637692
   0.66666700  0.33333300  0.96609590
   0.33333300  0.66666700  0.90523635
 
 position of ions in cartesian coordinates  (Angst):
   0.00000000 -0.00000000 10.15876104
   0.86681836  1.50137599 12.60160942
   0.00000000 -0.00000000 17.68151929
   0.86681836  1.50137599 20.22132523
   0.00000000 -0.00000000 25.30100463
   0.86681836  1.50137599 27.84121956
   0.00000000 -0.00000000 32.82395360
   1.73363932 -0.00000150 15.14151855
   1.73363932 -0.00000150 22.76107788
   1.73363932 -0.00000150 30.38130854
   0.00000000 -0.00000000 13.87077868
   0.00000000 -0.00000000 21.49141420
   0.00000000 -0.00000000 29.11167658
   1.73363932 -0.00000150 11.32767264
   1.73363932 -0.00000150 18.95111496
   1.73363932 -0.00000150 26.57157699
   0.86681836  1.50137599 16.41103098
   0.86681836  1.50137599 24.03160090
   0.86681836  1.50137599 31.65476206
   0.00000000 -0.00000000  1.06376953
   0.00000000 -0.00000000  8.40378907
   1.73363932 -0.00000150  5.99908403
   0.86681836  1.50137599  3.51267031
   0.00000000 -0.00000000 34.57883097
   1.73363932 -0.00000150 39.46996420
   0.86681836  1.50137599 36.98354016
 


--------------------------------------------------------------------------------------------------------


 k-point  1 :   0.0000 0.0000 0.0000  plane waves:    8683
 k-point  2 :   0.0769 0.0000 0.0000  plane waves:    8685
 k-point  3 :   0.1538 0.0000 0.0000  plane waves:    8669
 k-point  4 :   0.2308 0.0000 0.0000  plane waves:    8642
 k-point  5 :   0.3077 0.0000 0.0000  plane waves:    8578
 k-point  6 :   0.3846 0.0000 0.0000  plane waves:    8544
 k-point  7 :   0.4615 0.0000 0.0000  plane waves:    8562
 k-point  8 :   0.0769 0.0769-0.0000  plane waves:    8679
 k-point  9 :   0.1538 0.0769 0.0000  plane waves:    8658
 k-point 10 :   0.2308 0.0769 0.0000  plane waves:    8599
 k-point 11 :   0.3077 0.0769 0.0000  plane waves:    8572
 k-point 12 :   0.3846 0.0769 0.0000  plane waves:    8551
 k-point 13 :   0.4615 0.0769 0.0000  plane waves:    8544
 k-point 14 :   0.1538 0.1538 0.0000  plane waves:    8609
 k-point 15 :   0.2308 0.1538 0.0000  plane waves:    8586
 k-point 16 :   0.3077 0.1538 0.0000  plane waves:    8574
 k-point 17 :   0.3846 0.1538 0.0000  plane waves:    8534
 k-point 18 :   0.2308 0.2308 0.0000  plane waves:    8576
 k-point 19 :   0.3077 0.2308 0.0000  plane waves:    8563
 k-point 20 :   0.3846 0.2308-0.0000  plane waves:    8564
 k-point 21 :   0.3077 0.3077 0.0000  plane waves:    8574

 maximum and minimum number of plane-waves per node :      2185     2112

 maximum number of plane-waves:      8685
 maximum index in each direction: 
   IXMAX=    5   IYMAX=    5   IZMAX=   75
   IXMIN=   -6   IYMIN=   -5   IZMIN=  -75

 NGX is ok and might be reduce to  24
 NGY is ok and might be reduce to  22
 NGZ is ok and might be reduce to 302

 parallel 3D FFT for wavefunctions:
    minimum data exchange during FFTs selected (reduces bandwidth)
 parallel 3D FFT for charge:
    minimum data exchange during FFTs selected (reduces bandwidth)


 total amount of memory used by VASP on root node   146788. kBytes
========================================================================

   base      :      30000. kBytes
   nonl-proj :      15232. kBytes
   fftplans  :      55169. kBytes
   grid      :      22118. kBytes
   one-center:         56. kBytes
   wavefun   :      24213. kBytes
 
     INWAV:  cpu time    0.00: real time    0.00
 Broyden mixing: mesh for mixing (old mesh)
   NGX = 11   NGY = 11   NGZ =151
  (NGX  = 48   NGY  = 48   NGZ  =640)
  gives a total of  18271 points

 initial charge density was supplied:
 charge density of overlapping atoms calculated
 number of electron      99.0000000 magnetization 
 keeping initial charge density in first step


--------------------------------------------------------------------------------------------------------


 Maximum index for augmentation-charges        23720 (set IRDMAX)


--------------------------------------------------------------------------------------------------------


 First call to EWALD:  gamma=   0.259
 Maximum number of real-space cells 6x 6x 1
 Maximum number of reciprocal cells 1x 1x14

 FEWALD executed in parallel
    FEWALD:  cpu time    0.00: real time    0.00


----------------------------------------- Iteration    1(   1)  ---------------------------------------


    POTLOK:  cpu time    0.11: real time    0.11
    SETDIJ:  cpu time    0.11: real time    0.11
     EDDAV:  cpu time    4.22: real time    4.24
       DOS:  cpu time    0.00: real time    0.00
    --------------------------------------------
      LOOP:  cpu time    4.44: real time    4.46

 eigenvalue-minimisations  :  2704
 total energy-change (2. order) : 0.5024343E+03  (-0.4438514E+04)
 number of electron      99.0000000 magnetization 
 augmentation part       99.0000000 magnetization 

 Free energy of the ion-electron system (eV)
  ---------------------------------------------------
  alpha Z        PSCENC =       132.28605287
  Ewald energy   TEWEN  =      9913.36285878
  -Hartree energ DENC   =    -15078.18264348
  -exchange      EXHF   =         0.00000000
  -V(xc)+E(xc)   XCENC  =      -343.12682640
  PAW double counting   =      4516.65612620    -3844.19644948
  entropy T*S    EENTRO =        -0.00465035
  eigenvalues    EBANDS =       299.95894821
  atomic energy  EATOM  =      4905.68083858
  ---------------------------------------------------
  free energy    TOTEN  =       502.43425492 eV

  energy without entropy =      502.43890528  energy(sigma->0) =      502.43658010


--------------------------------------------------------------------------------------------------------




----------------------------------------- Iteration    1(   2)  ---------------------------------------


     EDDAV:  cpu time    5.02: real time    5.03
       DOS:  cpu time    0.00: real time    0.00
    --------------------------------------------
      LOOP:  cpu time    5.02: real time    5.03

 eigenvalue-minimisations  :  3512
 total energy-change (2. order) :-0.6060813E+03  (-0.5779534E+03)
 number of electron      99.0000000 magnetization 
 augmentation part       99.0000000 magnetization 

 Free energy of the ion-electron system (eV)
  ---------------------------------------------------
  alpha Z        PSCENC =       132.28605287
  Ewald energy   TEWEN  =      9913.36285878
  -Hartree energ DENC   =    -15078.18264348
  -exchange      EXHF   =         0.00000000
  -V(xc)+E(xc)   XCENC  =      -343.12682640
  PAW double counting   =      4516.65612620    -3844.19644948
  entropy T*S    EENTRO =        -0.00424200
  eigenvalues    EBANDS =      -306.12275625
  atomic energy  EATOM  =      4905.68083858
  ---------------------------------------------------
  free energy    TOTEN  =      -103.64704118 eV

  energy without entropy =     -103.64279918  energy(sigma->0) =     -103.64492018


--------------------------------------------------------------------------------------------------------




----------------------------------------- Iteration    1(   3)  ---------------------------------------


     EDDAV:  cpu time    4.70: real time    4.70
       DOS:  cpu time    0.00: real time    0.00
    --------------------------------------------
      LOOP:  cpu time    4.70: real time    4.71

 eigenvalue-minimisations  :  3160
 total energy-change (2. order) :-0.5397833E+02  (-0.5369464E+02)
 number of electron      99.0000000 magnetization 
 augmentation part       99.0000000 magnetization 

 Free energy of the ion-electron system (eV)
  ---------------------------------------------------
  alpha Z        PSCENC =       132.28605287
  Ewald energy   TEWEN  =      9913.36285878
  -Hartree energ DENC   =    -15078.18264348
  -exchange      EXHF   =         0.00000000
  -V(xc)+E(xc)   XCENC  =      -343.12682640
  PAW double counting   =      4516.65612620    -3844.19644948
  entropy T*S    EENTRO =        -0.00473595
  eigenvalues    EBANDS =      -360.10059380
  atomic energy  EATOM  =      4905.68083858
  ---------------------------------------------------
  free energy    TOTEN  =      -157.62537268 eV

  energy without entropy =     -157.62063674  energy(sigma->0) =     -157.62300471


--------------------------------------------------------------------------------------------------------




----------------------------------------- Iteration    1(   4)  ---------------------------------------


     EDDAV:  cpu time    4.60: real time    4.60
       DOS:  cpu time    0.00: real time    0.00
    --------------------------------------------
      LOOP:  cpu time    4.60: real time    4.61

 eigenvalue-minimisations  :  3136
 total energy-change (2. order) :-0.6577692E+00  (-0.6568108E+00)
 number of electron      99.0000000 magnetization 
 augmentation part       99.0000000 magnetization 

 Free energy of the ion-electron system (eV)
  ---------------------------------------------------
  alpha Z        PSCENC =       132.28605287
  Ewald energy   TEWEN  =      9913.36285878
  -Hartree energ DENC   =    -15078.18264348
  -exchange      EXHF   =         0.00000000
  -V(xc)+E(xc)   XCENC  =      -343.12682640
  PAW double counting   =      4516.65612620    -3844.19644948
  entropy T*S    EENTRO =        -0.00470399
  eigenvalues    EBANDS =      -360.75839498
  atomic energy  EATOM  =      4905.68083858
  ---------------------------------------------------
  free energy    TOTEN  =      -158.28314190 eV

  energy without entropy =     -158.27843791  energy(sigma->0) =     -158.28078991


--------------------------------------------------------------------------------------------------------




----------------------------------------- Iteration    1(   5)  ---------------------------------------


     EDDAV:  cpu time    4.70: real time    4.71
       DOS:  cpu time    0.00: real time    0.00
    CHARGE:  cpu time    0.37: real time    0.37
    MIXING:  cpu time    0.01: real time    0.01
    --------------------------------------------
      LOOP:  cpu time    5.08: real time    5.08

 eigenvalue-minimisations  :  3216
 total energy-change (2. order) :-0.9629525E-02  (-0.9625924E-02)
 number of electron      99.0000001 magnetization 
 augmentation part        7.7891814 magnetization 

 Broyden mixing:
  rms(total) = 0.23628E+01    rms(broyden)= 0.23623E+01
  rms(prec ) = 0.24292E+01
  weight for this iteration     100.00

 Free energy of the ion-electron system (eV)
  ---------------------------------------------------
  alpha Z        PSCENC =       132.28605287
  Ewald energy   TEWEN  =      9913.36285878
  -Hartree energ DENC   =    -15078.18264348
  -exchange      EXHF   =         0.00000000
  -V(xc)+E(xc)   XCENC  =      -343.12682640
  PAW double counting   =      4516.65612620    -3844.19644948
  entropy T*S    EENTRO =        -0.00469055
  eigenvalues    EBANDS =      -360.76803794
  atomic energy  EATOM  =      4905.68083858
  ---------------------------------------------------
  free energy    TOTEN  =      -158.29277143 eV

  energy without entropy =     -158.28808088  energy(sigma->0) =     -158.29042615


--------------------------------------------------------------------------------------------------------




----------------------------------------- Iteration    1(   6)  ---------------------------------------


    POTLOK:  cpu time    0.10: real time    0.10
    SETDIJ:  cpu time    0.11: real time    0.11
     EDDAV:  cpu time    4.67: real time    4.68
       DOS:  cpu time    0.00: real time    0.00
    CHARGE:  cpu time    0.39: real time    0.39
    MIXING:  cpu time    0.00: real time    0.00
    --------------------------------------------
      LOOP:  cpu time    5.28: real time    5.29

 eigenvalue-minimisations  :  3192
 total energy-change (2. order) : 0.1685870E+02  (-0.9346202E+01)
 number of electron      99.0000002 magnetization 
 augmentation part        6.2645643 magnetization 

 Broyden mixing:
  rms(total) = 0.79424E+00    rms(broyden)= 0.79320E+00
  rms(prec ) = 0.80228E+00
  weight for this iteration     100.00

 eigenvalues of (default mixing * dielectric matrix)
  average eigenvalue GAMMA=   0.8426
  0.8426

 Free energy of the ion-electron system (eV)
  ---------------------------------------------------
  alpha Z        PSCENC =       132.28605287
  Ewald energy   TEWEN  =      9913.36285878
  -Hartree energ DENC   =    -15280.84249843
  -exchange      EXHF   =         0.00000000
  -V(xc)+E(xc)   XCENC  =      -329.50560480
  PAW double counting   =      5388.07645873    -4719.14019136
  entropy T*S    EENTRO =        -0.00361876
  eigenvalues    EBANDS =      -151.34836969
  atomic energy  EATOM  =      4905.68083858
  ---------------------------------------------------
  free energy    TOTEN  =      -141.43407408 eV

  energy without entropy =     -141.43045532  energy(sigma->0) =     -141.43226470


--------------------------------------------------------------------------------------------------------




----------------------------------------- Iteration    1(   7)  ---------------------------------------


    POTLOK:  cpu time    0.10: real time    0.10
    SETDIJ:  cpu time    0.11: real time    0.11
     EDDAV:  cpu time    4.46: real time    4.47
       DOS:  cpu time    0.00: real time    0.00
    CHARGE:  cpu time    0.37: real time    0.37
    MIXING:  cpu time    0.00: real time    0.00
    --------------------------------------------
      LOOP:  cpu time    5.05: real time    5.06

 eigenvalue-minimisations  :  2984
 total energy-change (2. order) : 0.5448116E-02  (-0.3190789E+00)
 number of electron      99.0000002 magnetization 
 augmentation part        6.2844550 magnetization 

 Broyden mixing:
  rms(total) = 0.49582E+00    rms(broyden)= 0.49579E+00
  rms(prec ) = 0.50439E+00
  weight for this iteration     100.00

 eigenvalues of (default mixing * dielectric matrix)
  average eigenvalue GAMMA=   1.4608
  1.0208  1.9009

 Free energy of the ion-electron system (eV)
  ---------------------------------------------------
  alpha Z        PSCENC =       132.28605287
  Ewald energy   TEWEN  =      9913.36285878
  -Hartree energ DENC   =    -15281.45766527
  -exchange      EXHF   =         0.00000000
  -V(xc)+E(xc)   XCENC  =      -329.18612369
  PAW double counting   =      5717.06245014    -5047.64764405
  entropy T*S    EENTRO =        -0.00432257
  eigenvalues    EBANDS =      -151.52507076
  atomic energy  EATOM  =      4905.68083858
  ---------------------------------------------------
  free energy    TOTEN  =      -141.42862596 eV

  energy without entropy =     -141.42430339  energy(sigma->0) =     -141.42646468


--------------------------------------------------------------------------------------------------------




----------------------------------------- Iteration    1(   8)  ---------------------------------------


    POTLOK:  cpu time    0.10: real time    0.10
    SETDIJ:  cpu time    0.10: real time    0.10
     EDDAV:  cpu time    4.59: real time    4.60
       DOS:  cpu time    0.00: real time    0.00
    CHARGE:  cpu time    0.37: real time    0.37
    MIXING:  cpu time    0.00: real time    0.00
    --------------------------------------------
      LOOP:  cpu time    5.17: real time    5.18

 eigenvalue-minimisations  :  3112
 total energy-change (2. order) : 0.1453258E+00  (-0.7728651E-01)
 number of electron      99.0000002 magnetization 
 augmentation part        6.3551072 magnetization 

 Broyden mixing:
  rms(total) = 0.12960E+00    rms(broyden)= 0.12954E+00
  rms(prec ) = 0.13910E+00
  weight for this iteration     100.00

 eigenvalues of (default mixing * dielectric matrix)
  average eigenvalue GAMMA=   1.3626
  2.3925  0.9073  0.7882

 Free energy of the ion-electron system (eV)
  ---------------------------------------------------
  alpha Z        PSCENC =       132.28605287
  Ewald energy   TEWEN  =      9913.36285878
  -Hartree energ DENC   =    -15288.45478058
  -exchange      EXHF   =         0.00000000
  -V(xc)+E(xc)   XCENC  =      -328.25871333
  PAW double counting   =      6158.48928796    -5488.70997778
  entropy T*S    EENTRO =        -0.00324694
  eigenvalues    EBANDS =      -145.67561978
  atomic energy  EATOM  =      4905.68083858
  ---------------------------------------------------
  free energy    TOTEN  =      -141.28330021 eV

  energy without entropy =     -141.28005326  energy(sigma->0) =     -141.28167674


--------------------------------------------------------------------------------------------------------




----------------------------------------- Iteration    1(   9)  ---------------------------------------


    POTLOK:  cpu time    0.10: real time    0.10
    SETDIJ:  cpu time    0.10: real time    0.10
     EDDAV:  cpu time    4.56: real time    4.57
       DOS:  cpu time    0.00: real time    0.00
    CHARGE:  cpu time    0.37: real time    0.37
    MIXING:  cpu time    0.01: real time    0.01
    --------------------------------------------
      LOOP:  cpu time    5.14: real time    5.15

 eigenvalue-minimisations  :  3048
 total energy-change (2. order) : 0.4249373E-01  (-0.1753635E-01)
 number of electron      99.0000002 magnetization 
 augmentation part        6.3222468 magnetization 

 Broyden mixing:
  rms(total) = 0.64819E-01    rms(broyden)= 0.64812E-01
  rms(prec ) = 0.74470E-01
  weight for this iteration     100.00

 eigenvalues of (default mixing * dielectric matrix)
  average eigenvalue GAMMA=   1.3100
  2.4068  0.9153  0.9153  1.0028

 Free energy of the ion-electron system (eV)
  ---------------------------------------------------
  alpha Z        PSCENC =       132.28605287
  Ewald energy   TEWEN  =      9913.36285878
  -Hartree energ DENC   =    -15297.05070819
  -exchange      EXHF   =         0.00000000
  -V(xc)+E(xc)   XCENC  =      -327.58262095
  PAW double counting   =      6270.27507994    -5600.52298389
  entropy T*S    EENTRO =        -0.00367045
  eigenvalues    EBANDS =      -137.68565317
  atomic energy  EATOM  =      4905.68083858
  ---------------------------------------------------
  free energy    TOTEN  =      -141.24080648 eV

  energy without entropy =     -141.23713603  energy(sigma->0) =     -141.23897125


--------------------------------------------------------------------------------------------------------




----------------------------------------- Iteration    1(  10)  ---------------------------------------


    POTLOK:  cpu time    0.10: real time    0.10
    SETDIJ:  cpu time    0.10: real time    0.10
     EDDAV:  cpu time    4.46: real time    4.46
       DOS:  cpu time    0.00: real time    0.00
    CHARGE:  cpu time    0.38: real time    0.38
    MIXING:  cpu time    0.01: real time    0.01
    --------------------------------------------
      LOOP:  cpu time    5.04: real time    5.05

 eigenvalue-minimisations  :  3024
 total energy-change (2. order) : 0.5707918E-02  (-0.6450470E-02)
 number of electron      99.0000002 magnetization 
 augmentation part        6.3047743 magnetization 

 Broyden mixing:
  rms(total) = 0.29268E-01    rms(broyden)= 0.29243E-01
  rms(prec ) = 0.40637E-01
  weight for this iteration     100.00

 eigenvalues of (default mixing * dielectric matrix)
  average eigenvalue GAMMA=   1.3244
  2.5129  1.6102  0.9620  0.7684  0.7684

 Free energy of the ion-electron system (eV)
  ---------------------------------------------------
  alpha Z        PSCENC =       132.28605287
  Ewald energy   TEWEN  =      9913.36285878
  -Hartree energ DENC   =    -15299.45612004
  -exchange      EXHF   =         0.00000000
  -V(xc)+E(xc)   XCENC  =      -327.46250076
  PAW double counting   =      6260.63623059    -5590.90572294
  entropy T*S    EENTRO =        -0.00350063
  eigenvalues    EBANDS =      -135.37323500
  atomic energy  EATOM  =      4905.68083858
  ---------------------------------------------------
  free energy    TOTEN  =      -141.23509856 eV

  energy without entropy =     -141.23159793  energy(sigma->0) =     -141.23334824


--------------------------------------------------------------------------------------------------------




----------------------------------------- Iteration    1(  11)  ---------------------------------------


    POTLOK:  cpu time    0.11: real time    0.11
    SETDIJ:  cpu time    0.10: real time    0.10
     EDDAV:  cpu time    4.41: real time    4.42
       DOS:  cpu time    0.00: real time    0.00
    CHARGE:  cpu time    0.37: real time    0.37
    MIXING:  cpu time    0.00: real time    0.00
    --------------------------------------------
      LOOP:  cpu time    5.00: real time    5.01

 eigenvalue-minimisations  :  3128
 total energy-change (2. order) : 0.6345239E-02  (-0.1129272E-02)
 number of electron      99.0000002 magnetization 
 augmentation part        6.3004009 magnetization 

 Broyden mixing:
  rms(total) = 0.20322E-01    rms(broyden)= 0.20317E-01
  rms(prec ) = 0.35681E-01
  weight for this iteration     100.00

 eigenvalues of (default mixing * dielectric matrix)
  average eigenvalue GAMMA=   1.3337
  2.5675  2.0976  0.8984  0.8984  0.7703  0.7703

 Free energy of the ion-electron system (eV)
  ---------------------------------------------------
  alpha Z        PSCENC =       132.28605287
  Ewald energy   TEWEN  =      9913.36285878
  -Hartree energ DENC   =    -15302.02011360
  -exchange      EXHF   =         0.00000000
  -V(xc)+E(xc)   XCENC  =      -327.35746345
  PAW double counting   =      6233.38087732    -5563.66586854
  entropy T*S    EENTRO =        -0.00366541
  eigenvalues    EBANDS =      -132.89226987
  atomic energy  EATOM  =      4905.68083858
  ---------------------------------------------------
  free energy    TOTEN  =      -141.22875332 eV

  energy without entropy =     -141.22508791  energy(sigma->0) =     -141.22692061


--------------------------------------------------------------------------------------------------------




----------------------------------------- Iteration    1(  12)  ---------------------------------------


    POTLOK:  cpu time    0.11: real time    0.11
    SETDIJ:  cpu time    0.10: real time    0.10
     EDDAV:  cpu time    5.29: real time    5.29
       DOS:  cpu time    0.00: real time    0.00
    CHARGE:  cpu time    0.38: real time    0.38
    MIXING:  cpu time    0.02: real time    0.02
    --------------------------------------------
      LOOP:  cpu time    5.89: real time    5.90

 eigenvalue-minimisations  :  3624
 total energy-change (2. order) : 0.4409444E-02  (-0.4344414E-03)
 number of electron      99.0000002 magnetization 
 augmentation part        6.2984898 magnetization 

 Broyden mixing:
  rms(total) = 0.15588E-01    rms(broyden)= 0.15588E-01
  rms(prec ) = 0.29930E-01
  weight for this iteration     100.00

 eigenvalues of (default mixing * dielectric matrix)
  average eigenvalue GAMMA=   1.3796
  2.7642  2.5461  0.9857  0.9857  0.8890  0.8890  0.5976

 Free energy of the ion-electron system (eV)
  ---------------------------------------------------
  alpha Z        PSCENC =       132.28605287
  Ewald energy   TEWEN  =      9913.36285878
  -Hartree energ DENC   =    -15303.19843336
  -exchange      EXHF   =         0.00000000
  -V(xc)+E(xc)   XCENC  =      -327.33843519
  PAW double counting   =      6221.44561334    -5551.73432603
  entropy T*S    EENTRO =        -0.00359193
  eigenvalues    EBANDS =      -131.72492093
  atomic energy  EATOM  =      4905.68083858
  ---------------------------------------------------
  free energy    TOTEN  =      -141.22434388 eV

  energy without entropy =     -141.22075194  energy(sigma->0) =     -141.22254791


--------------------------------------------------------------------------------------------------------




----------------------------------------- Iteration    1(  13)  ---------------------------------------


    POTLOK:  cpu time    0.11: real time    0.11
    SETDIJ:  cpu time    0.12: real time    0.12
     EDDAV:  cpu time    6.01: real time    6.02
       DOS:  cpu time    0.00: real time    0.00
    CHARGE:  cpu time    0.37: real time    0.37
    MIXING:  cpu time    0.01: real time    0.01
    --------------------------------------------
      LOOP:  cpu time    6.62: real time    6.63

 eigenvalue-minimisations  :  4304
 total energy-change (2. order) : 0.8708998E-02  (-0.7296779E-03)
 number of electron      99.0000002 magnetization 
 augmentation part        6.3015927 magnetization 

 Broyden mixing:
  rms(total) = 0.85039E-02    rms(broyden)= 0.85001E-02
  rms(prec ) = 0.23569E-01
  weight for this iteration     100.00

 eigenvalues of (default mixing * dielectric matrix)
  average eigenvalue GAMMA=   1.3435
  2.8401  2.4921  1.1327  0.8385  0.8385  0.9682  0.9682  0.6699

 Free energy of the ion-electron system (eV)
  ---------------------------------------------------
  alpha Z        PSCENC =       132.28605287
  Ewald energy   TEWEN  =      9913.36285878
  -Hartree energ DENC   =    -15305.15457384
  -exchange      EXHF   =         0.00000000
  -V(xc)+E(xc)   XCENC  =      -327.37748637
  PAW double counting   =      6196.26230879    -5526.54361653
  entropy T*S    EENTRO =        -0.00356765
  eigenvalues    EBANDS =      -129.72844950
  atomic energy  EATOM  =      4905.68083858
  ---------------------------------------------------
  free energy    TOTEN  =      -141.21563488 eV

  energy without entropy =     -141.21206722  energy(sigma->0) =     -141.21385105


--------------------------------------------------------------------------------------------------------




----------------------------------------- Iteration    1(  14)  ---------------------------------------


    POTLOK:  cpu time    0.10: real time    0.10
    SETDIJ:  cpu time    0.10: real time    0.10
     EDDAV:  cpu time    4.73: real time    4.74
       DOS:  cpu time    0.00: real time    0.00
    CHARGE:  cpu time    0.37: real time    0.37
    MIXING:  cpu time    0.01: real time    0.01
    --------------------------------------------
      LOOP:  cpu time    5.31: real time    5.32

 eigenvalue-minimisations  :  3192
 total energy-change (2. order) : 0.3037201E-02  (-0.7155618E-03)
 number of electron      99.0000002 magnetization 
 augmentation part        6.3040420 magnetization 

 Broyden mixing:
  rms(total) = 0.11853E-01    rms(broyden)= 0.11849E-01
  rms(prec ) = 0.23403E-01
  weight for this iteration     100.00

 eigenvalues of (default mixing * dielectric matrix)
  average eigenvalue GAMMA=   1.3554
  3.0926  2.5111  1.2785  1.2785  1.0095  0.8478  0.8478  0.6741  0.6584

 Free energy of the ion-electron system (eV)
  ---------------------------------------------------
  alpha Z        PSCENC =       132.28605287
  Ewald energy   TEWEN  =      9913.36285878
  -Hartree energ DENC   =    -15306.33669552
  -exchange      EXHF   =         0.00000000
  -V(xc)+E(xc)   XCENC  =      -327.38994142
  PAW double counting   =      6196.17823166    -5526.45511820
  entropy T*S    EENTRO =        -0.00355712
  eigenvalues    EBANDS =      -128.53526730
  atomic energy  EATOM  =      4905.68083858
  ---------------------------------------------------
  free energy    TOTEN  =      -141.21259768 eV

  energy without entropy =     -141.20904056  energy(sigma->0) =     -141.21081912


--------------------------------------------------------------------------------------------------------




----------------------------------------- Iteration    1(  15)  ---------------------------------------


    POTLOK:  cpu time    0.10: real time    0.10
    SETDIJ:  cpu time    0.11: real time    0.11
     EDDAV:  cpu time    5.73: real time    5.74
       DOS:  cpu time    0.00: real time    0.00
    CHARGE:  cpu time    0.38: real time    0.38
    MIXING:  cpu time    0.01: real time    0.01
    --------------------------------------------
      LOOP:  cpu time    6.33: real time    6.34

 eigenvalue-minimisations  :  4128
 total energy-change (2. order) : 0.9217266E-02  (-0.1237299E-02)
 number of electron      99.0000002 magnetization 
 augmentation part        6.2976882 magnetization 

 Broyden mixing:
  rms(total) = 0.18167E-01    rms(broyden)= 0.18163E-01
  rms(prec ) = 0.22197E-01
  weight for this iteration     100.00

 eigenvalues of (default mixing * dielectric matrix)
  average eigenvalue GAMMA=   1.4977
  3.8846  2.7491  2.2888  0.9864  0.9864  0.9357  0.9357  0.7828  0.7828  0.6444

 Free energy of the ion-electron system (eV)
  ---------------------------------------------------
  alpha Z        PSCENC =       132.28605287
  Ewald energy   TEWEN  =      9913.36285878
  -Hartree energ DENC   =    -15311.63806580
  -exchange      EXHF   =         0.00000000
  -V(xc)+E(xc)   XCENC  =      -327.37042419
  PAW double counting   =      6188.65377519    -5518.94005888
  entropy T*S    EENTRO =        -0.00343301
  eigenvalues    EBANDS =      -123.23492395
  atomic energy  EATOM  =      4905.68083858
  ---------------------------------------------------
  free energy    TOTEN  =      -141.20338041 eV

  energy without entropy =     -141.19994740  energy(sigma->0) =     -141.20166391


--------------------------------------------------------------------------------------------------------




----------------------------------------- Iteration    1(  16)  ---------------------------------------


    POTLOK:  cpu time    0.10: real time    0.10
    SETDIJ:  cpu time    0.11: real time    0.11
     EDDAV:  cpu time    4.77: real time    4.78
       DOS:  cpu time    0.00: real time    0.00
    CHARGE:  cpu time    0.37: real time    0.37
    MIXING:  cpu time    0.01: real time    0.01
    --------------------------------------------
      LOOP:  cpu time    5.35: real time    5.36

 eigenvalue-minimisations  :  3280
 total energy-change (2. order) : 0.3639321E-02  (-0.8779610E-03)
 number of electron      99.0000002 magnetization 
 augmentation part        6.2981634 magnetization 

 Broyden mixing:
  rms(total) = 0.14573E-01    rms(broyden)= 0.14571E-01
  rms(prec ) = 0.17261E-01
  weight for this iteration     100.00

 eigenvalues of (default mixing * dielectric matrix)
  average eigenvalue GAMMA=   1.5683
  4.7369  2.8547  2.4434  1.1372  1.1372  0.9712  0.9712  0.8284  0.8284  0.6713
  0.6713

 Free energy of the ion-electron system (eV)
  ---------------------------------------------------
  alpha Z        PSCENC =       132.28605287
  Ewald energy   TEWEN  =      9913.36285878
  -Hartree energ DENC   =    -15313.84427912
  -exchange      EXHF   =         0.00000000
  -V(xc)+E(xc)   XCENC  =      -327.41762994
  PAW double counting   =      6195.27729289    -5525.55336736
  entropy T*S    EENTRO =        -0.00338832
  eigenvalues    EBANDS =      -120.98811947
  atomic energy  EATOM  =      4905.68083858
  ---------------------------------------------------
  free energy    TOTEN  =      -141.19974109 eV

  energy without entropy =     -141.19635277  energy(sigma->0) =     -141.19804693


--------------------------------------------------------------------------------------------------------




----------------------------------------- Iteration    1(  17)  ---------------------------------------


    POTLOK:  cpu time    0.10: real time    0.10
    SETDIJ:  cpu time    0.10: real time    0.10
     EDDAV:  cpu time    4.78: real time    4.79
       DOS:  cpu time    0.00: real time    0.00
    CHARGE:  cpu time    0.37: real time    0.37
    MIXING:  cpu time    0.01: real time    0.01
    --------------------------------------------
      LOOP:  cpu time    5.37: real time    5.38

 eigenvalue-minimisations  :  3288
 total energy-change (2. order) : 0.1951146E-02  (-0.1212646E-02)
 number of electron      99.0000002 magnetization 
 augmentation part        6.2995350 magnetization 

 Broyden mixing:
  rms(total) = 0.10688E-01    rms(broyden)= 0.10682E-01
  rms(prec ) = 0.12824E-01
  weight for this iteration     100.00

 eigenvalues of (default mixing * dielectric matrix)
  average eigenvalue GAMMA=   1.7844
  6.4680  3.2293  2.3309  2.3309  1.0279  1.0279  0.9835  0.9835  0.8095  0.8095
  0.7357  0.6762

 Free energy of the ion-electron system (eV)
  ---------------------------------------------------
  alpha Z        PSCENC =       132.28605287
  Ewald energy   TEWEN  =      9913.36285878
  -Hartree energ DENC   =    -15315.37906484
  -exchange      EXHF   =         0.00000000
  -V(xc)+E(xc)   XCENC  =      -327.44388405
  PAW double counting   =      6205.09596006    -5535.36325766
  entropy T*S    EENTRO =        -0.00335987
  eigenvalues    EBANDS =      -119.43393381
  atomic energy  EATOM  =      4905.68083858
  ---------------------------------------------------
  free energy    TOTEN  =      -141.19778994 eV

  energy without entropy =     -141.19443007  energy(sigma->0) =     -141.19611000


--------------------------------------------------------------------------------------------------------




----------------------------------------- Iteration    1(  18)  ---------------------------------------


    POTLOK:  cpu time    0.10: real time    0.10
    SETDIJ:  cpu time    0.10: real time    0.10
     EDDAV:  cpu time    4.97: real time    4.98
       DOS:  cpu time    0.00: real time    0.00
    CHARGE:  cpu time    0.37: real time    0.37
    MIXING:  cpu time    0.01: real time    0.01
    --------------------------------------------
      LOOP:  cpu time    5.56: real time    5.57

 eigenvalue-minimisations  :  3464
 total energy-change (2. order) : 0.1210476E-02  (-0.4120392E-03)
 number of electron      99.0000002 magnetization 
 augmentation part        6.2991665 magnetization 

 Broyden mixing:
  rms(total) = 0.12730E-01    rms(broyden)= 0.12729E-01
  rms(prec ) = 0.13839E-01
  weight for this iteration     100.00

 eigenvalues of (default mixing * dielectric matrix)
  average eigenvalue GAMMA=   1.8455
  8.0206  3.3235  2.4369  2.4369  0.9955  0.9955  0.9994  0.9994  0.8116  0.8116
  0.8180  0.6712  0.6712

 Free energy of the ion-electron system (eV)
  ---------------------------------------------------
  alpha Z        PSCENC =       132.28605287
  Ewald energy   TEWEN  =      9913.36285878
  -Hartree energ DENC   =    -15316.74555201
  -exchange      EXHF   =         0.00000000
  -V(xc)+E(xc)   XCENC  =      -327.43804171
  PAW double counting   =      6207.47832240    -5537.74671594
  entropy T*S    EENTRO =        -0.00334562
  eigenvalues    EBANDS =      -118.07099682
  atomic energy  EATOM  =      4905.68083858
  ---------------------------------------------------
  free energy    TOTEN  =      -141.19657947 eV

  energy without entropy =     -141.19323384  energy(sigma->0) =     -141.19490665


--------------------------------------------------------------------------------------------------------




----------------------------------------- Iteration    1(  19)  ---------------------------------------


    POTLOK:  cpu time    0.10: real time    0.10
    SETDIJ:  cpu time    0.10: real time    0.11
     EDDAV:  cpu time    5.31: real time    5.32
       DOS:  cpu time    0.00: real time    0.00
    CHARGE:  cpu time    0.37: real time    0.37
    MIXING:  cpu time    0.01: real time    0.01
    --------------------------------------------
      LOOP:  cpu time    5.89: real time    5.90

 eigenvalue-minimisations  :  3768
 total energy-change (2. order) : 0.1036691E-02  (-0.3428227E-03)
 number of electron      99.0000002 magnetization 
 augmentation part        6.2985150 magnetization 

 Broyden mixing:
  rms(total) = 0.51102E-02    rms(broyden)= 0.51080E-02
  rms(prec ) = 0.59088E-02
  weight for this iteration     100.00

 eigenvalues of (default mixing * dielectric matrix)
  average eigenvalue GAMMA=   1.9005
  8.9554  3.7912  2.5468  2.4998  1.0412  1.0412  1.1684  0.9823  0.9823  0.8177
  0.8177  0.6604  0.6510  0.6510

 Free energy of the ion-electron system (eV)
  ---------------------------------------------------
  alpha Z        PSCENC =       132.28605287
  Ewald energy   TEWEN  =      9913.36285878
  -Hartree energ DENC   =    -15317.75345324
  -exchange      EXHF   =         0.00000000
  -V(xc)+E(xc)   XCENC  =      -327.43153522
  PAW double counting   =      6205.97925395    -5536.25022718
  entropy T*S    EENTRO =        -0.00333791
  eigenvalues    EBANDS =      -117.06599340
  atomic energy  EATOM  =      4905.68083858
  ---------------------------------------------------
  free energy    TOTEN  =      -141.19554278 eV

  energy without entropy =     -141.19220487  energy(sigma->0) =     -141.19387382


--------------------------------------------------------------------------------------------------------




----------------------------------------- Iteration    1(  20)  ---------------------------------------


    POTLOK:  cpu time    0.10: real time    0.10
    SETDIJ:  cpu time    0.10: real time    0.10
     EDDAV:  cpu time    4.82: real time    4.82
       DOS:  cpu time    0.00: real time    0.00
    CHARGE:  cpu time    0.37: real time    0.37
    MIXING:  cpu time    0.01: real time    0.01
    --------------------------------------------
      LOOP:  cpu time    5.40: real time    5.41

 eigenvalue-minimisations  :  3328
 total energy-change (2. order) : 0.2337065E-03  (-0.2445905E-03)
 number of electron      99.0000002 magnetization 
 augmentation part        6.2984836 magnetization 

 Broyden mixing:
  rms(total) = 0.29489E-02    rms(broyden)= 0.29451E-02
  rms(prec ) = 0.33035E-02
  weight for this iteration     100.00

 eigenvalues of (default mixing * dielectric matrix)
  average eigenvalue GAMMA=   2.0532
  9.9382  5.2350  2.7077  2.5245  1.6112  1.0472  1.0472  1.0290  1.0107  1.0107
  0.8129  0.8129  0.7634  0.6778  0.5694

 Free energy of the ion-electron system (eV)
  ---------------------------------------------------
  alpha Z        PSCENC =       132.28605287
  Ewald energy   TEWEN  =      9913.36285878
  -Hartree energ DENC   =    -15318.16275288
  -exchange      EXHF   =         0.00000000
  -V(xc)+E(xc)   XCENC  =      -327.42697327
  PAW double counting   =      6203.49260223    -5533.76517015
  entropy T*S    EENTRO =        -0.00333508
  eigenvalues    EBANDS =      -116.65943014
  atomic energy  EATOM  =      4905.68083858
  ---------------------------------------------------
  free energy    TOTEN  =      -141.19530907 eV

  energy without entropy =     -141.19197399  energy(sigma->0) =     -141.19364153


--------------------------------------------------------------------------------------------------------




----------------------------------------- Iteration    1(  21)  ---------------------------------------


    POTLOK:  cpu time    0.10: real time    0.10
    SETDIJ:  cpu time    0.11: real time    0.11
     EDDAV:  cpu time    4.79: real time    4.80
       DOS:  cpu time    0.00: real time    0.00
    CHARGE:  cpu time    0.37: real time    0.37
    MIXING:  cpu time    0.01: real time    0.01
    --------------------------------------------
      LOOP:  cpu time    5.38: real time    5.39

 eigenvalue-minimisations  :  3280
 total energy-change (2. order) : 0.4986529E-04  (-0.9392169E-04)
 number of electron      99.0000002 magnetization 
 augmentation part        6.2980421 magnetization 

 Broyden mixing:
  rms(total) = 0.26463E-02    rms(broyden)= 0.26450E-02
  rms(prec ) = 0.27325E-02
  weight for this iteration     100.00

 eigenvalues of (default mixing * dielectric matrix)
  average eigenvalue GAMMA=   2.4626
 16.8364  5.4306  3.0008  2.4986  2.1607  1.0408  1.0408  0.9911  0.9638  0.9638
  0.8316  0.8316  0.8363  0.7205  0.6838  0.5705

 Free energy of the ion-electron system (eV)
  ---------------------------------------------------
  alpha Z        PSCENC =       132.28605287
  Ewald energy   TEWEN  =      9913.36285878
  -Hartree energ DENC   =    -15318.52557336
  -exchange      EXHF   =         0.00000000
  -V(xc)+E(xc)   XCENC  =      -327.42177736
  PAW double counting   =      6201.14272922    -5531.41722418
  entropy T*S    EENTRO =        -0.00333752
  eigenvalues    EBANDS =      -116.29982623
  atomic energy  EATOM  =      4905.68083858
  ---------------------------------------------------
  free energy    TOTEN  =      -141.19525920 eV

  energy without entropy =     -141.19192168  energy(sigma->0) =     -141.19359044


--------------------------------------------------------------------------------------------------------




----------------------------------------- Iteration    1(  22)  ---------------------------------------


    POTLOK:  cpu time    0.10: real time    0.10
    SETDIJ:  cpu time    0.10: real time    0.11
     EDDAV:  cpu time    4.29: real time    4.29
       DOS:  cpu time    0.00: real time    0.00
    CHARGE:  cpu time    0.37: real time    0.37
    MIXING:  cpu time    0.01: real time    0.01
    --------------------------------------------
      LOOP:  cpu time    4.88: real time    4.88

 eigenvalue-minimisations  :  2848
 total energy-change (2. order) :-0.2893672E-04  (-0.5799362E-04)
 number of electron      99.0000002 magnetization 
 augmentation part        6.2978612 magnetization 

 Broyden mixing:
  rms(total) = 0.21421E-02    rms(broyden)= 0.21417E-02
  rms(prec ) = 0.21794E-02
  weight for this iteration     100.00

 eigenvalues of (default mixing * dielectric matrix)
  average eigenvalue GAMMA=   2.6175
 20.2141  5.4509  3.1925  2.5815  2.1793  1.0315  1.0315  1.1728  1.1728  0.8095
  0.8095  1.0020  0.9343  0.9343  0.7311  0.6832  0.5663

 Free energy of the ion-electron system (eV)
  ---------------------------------------------------
  alpha Z        PSCENC =       132.28605287
  Ewald energy   TEWEN  =      9913.36285878
  -Hartree energ DENC   =    -15318.57923276
  -exchange      EXHF   =         0.00000000
  -V(xc)+E(xc)   XCENC  =      -327.42049287
  PAW double counting   =      6199.09548606    -5529.37048947
  entropy T*S    EENTRO =        -0.00333840
  eigenvalues    EBANDS =      -116.24697092
  atomic energy  EATOM  =      4905.68083858
  ---------------------------------------------------
  free energy    TOTEN  =      -141.19528814 eV

  energy without entropy =     -141.19194974  energy(sigma->0) =     -141.19361894


--------------------------------------------------------------------------------------------------------




----------------------------------------- Iteration    1(  23)  ---------------------------------------


    POTLOK:  cpu time    0.10: real time    0.10
    SETDIJ:  cpu time    0.11: real time    0.11
     EDDAV:  cpu time    4.22: real time    4.23
       DOS:  cpu time    0.00: real time    0.00
    --------------------------------------------
      LOOP:  cpu time    4.43: real time    4.44

 eigenvalue-minimisations  :  2808
 total energy-change (2. order) : 0.5597170E-05  (-0.5980915E-05)
 number of electron      99.0000002 magnetization 
 augmentation part        6.2978612 magnetization 

 Free energy of the ion-electron system (eV)
  ---------------------------------------------------
  alpha Z        PSCENC =       132.28605287
  Ewald energy   TEWEN  =      9913.36285878
  -Hartree energ DENC   =    -15318.54579129
  -exchange      EXHF   =         0.00000000
  -V(xc)+E(xc)   XCENC  =      -327.42242629
  PAW double counting   =      6198.25706808    -5528.53097223
  entropy T*S    EENTRO =        -0.00333879
  eigenvalues    EBANDS =      -116.27957225
  atomic energy  EATOM  =      4905.68083858
  ---------------------------------------------------
  free energy    TOTEN  =      -141.19528254 eV

  energy without entropy =     -141.19194375  energy(sigma->0) =     -141.19361315


--------------------------------------------------------------------------------------------------------




 average (electrostatic) potential at core
  the test charge radii are     0.7215  1.0714  1.0406
  (the norm of the test charge is              1.0000)
       1 -69.6160       2 -68.9208       3 -68.9145       4 -68.9108       5 -68.9230
       6 -68.9283       7 -69.6161       8 -68.9190       9 -68.9145      10 -68.9259
      11 -34.6039      12 -34.5989      13 -34.6117      14 -34.6095      15 -34.5988
      16 -34.6105      17 -34.6008      18 -34.6054      19 -34.6116      20 -75.8500
      21 -75.4902      22 -75.9110      23 -75.8273      24 -75.4902      25 -75.8273
      26 -75.9110
 
 
 
 E-fermi :   4.8993     XC(G=0): -10.3294     alpha+bet :-12.5570


 k-point     1 :       0.0000    0.0000    0.0000
  band No.  band energies     occupation 
      1     -13.5303      2.00000
      2     -13.5295      2.00000
      3     -13.0998      2.00000
      4     -13.0060      2.00000
      5     -12.8625      2.00000
      6     -12.6919      2.00000
      7     -12.5115      2.00000
      8     -12.3408      2.00000
      9     -12.2017      2.00000
     10     -12.1052      2.00000
     11      -5.0411      2.00000
     12      -4.7151      2.00000
     13      -4.2018      2.00000
     14      -3.3900      2.00000
     15      -2.4301      2.00000
     16      -1.5466      2.00000
     17      -0.8266      2.00000
     18      -0.4965      2.00000
     19      -0.3277      2.00000
     20       0.2234      2.00000
     21       0.3021      2.00000
     22       1.1134      2.00000
     23       1.2056      2.00000
     24       1.9877      2.00000
     25       2.3047      2.00000
     26       3.0681      2.00000
     27       3.1497      2.00000
     28       3.1497      2.00000
     29       3.1502      2.00000
     30       3.1503      2.00000
     31       3.1799      2.00000
     32       3.4096      2.00000
     33       3.4096      2.00000
     34       3.4583      2.00000
     35       3.4583      2.00000
     36       3.5343      2.00000
     37       3.5343      2.00000
     38       3.5832      2.00000
     39       3.6223      2.00000
     40       3.6223      2.00000
     41       3.7130      2.00000
     42       3.7130      2.00000
     43       3.7964      2.00000
     44       3.7964      2.00000
     45       3.8616      2.00000
     46       3.8616      2.00000
     47       3.9086      2.00000
     48       3.9086      2.00000
     49       4.9288      0.40423
     50       6.7730      0.00000
     51       8.1300      0.00000
     52       8.6521      0.00000
     53       8.7113      0.00000
     54       9.4416      0.00000
     55       9.8848      0.00000
     56      10.6082      0.00000
     57      10.8125      0.00000
     58      11.2621      0.00000
     59      11.3773      0.00000
     60      11.5495      0.00000
     61      12.4106      0.00000
     62      13.4754      0.00000
     63      14.9030      0.00000
     64      14.9720      0.00000

 k-point     2 :       0.0769    0.0000    0.0000
  band No.  band energies     occupation 
      1     -13.4893      2.00000
      2     -13.4886      2.00000
      3     -13.0487      2.00000
      4     -12.9576      2.00000
      5     -12.8179      2.00000
      6     -12.6516      2.00000
      7     -12.4759      2.00000
      8     -12.3097      2.00000
      9     -12.1744      2.00000
[...]
 k-point    19 :       0.3077    0.2308    0.0000
  band No.  band energies     occupation 
      1     -12.7889      2.00000
      2     -12.7879      2.00000
      3     -11.9805      2.00000
      4     -11.9618      2.00000
      5     -11.9305      2.00000
      6     -11.8930      2.00000
      7     -11.8527      2.00000
      8     -11.8148      2.00000
      9     -11.7840      2.00000
     10     -11.7616      2.00000
     11      -0.4104      2.00000
     12      -0.3768      2.00000
     13      -0.1103      2.00000
     14      -0.0239      2.00000
     15       0.0231      2.00000
     16       0.1286      2.00000
     17       0.2564      2.00000
     18       0.3237      2.00000
     19       0.3726      2.00000
     20       0.4144      2.00000
     21       0.4526      2.00000
     22       0.5946      2.00000
     23       0.8130      2.00000
     24       0.8572      2.00000
     25       1.0127      2.00000
     26       1.2876      2.00000
     27       1.4523      2.00000
     28       1.4728      2.00000
     29       1.4901      2.00000
     30       1.6553      2.00000
     31       1.6829      2.00000
     32       1.8141      2.00000
     33       1.8710      2.00000
     34       1.9939      2.00000
     35       2.0422      2.00000
     36       2.1733      2.00000
     37       2.2517      2.00000
     38       2.4075      2.00000
     39       2.5424      2.00000
     40       2.6329      2.00000
     41       2.7114      2.00000
     42       2.8007      2.00000
     43       2.8717      2.00000
     44       2.8954      2.00000
     45       3.0041      2.00000
     46       3.0406      2.00000
     47       3.3749      2.00000
     48       3.7617      2.00000
     49       4.1453      2.00000
     50       4.6015      2.00000
     51       4.8186      1.99999
     52       4.9514      1.46686
     53       5.3198      0.00000
     54       5.7857      0.00000
     55       5.8487      0.00000
     56       6.4052      0.00000
     57       7.0928      0.00000
     58       7.5067      0.00000
     59       7.5536      0.00000
     60       8.4772      0.00000
     61       8.7489      0.00000
     62       9.1279      0.00000
     63      10.0412      0.00000
     64      10.0714      0.00000

 k-point    20 :       0.3846    0.2308   -0.0000
  band No.  band energies     occupation 
      1     -12.7538      2.00000
      2     -12.7527      2.00000
      3     -11.8915      2.00000
      4     -11.8833      2.00000
      5     -11.8682      2.00000
      6     -11.8494      2.00000
      7     -11.8282      2.00000
      8     -11.8072      2.00000
      9     -11.7898      2.00000
     10     -11.7757      2.00000
     11      -0.1644      2.00000
     12      -0.1608      2.00000
     13       0.0192      2.00000
     14       0.0296      2.00000
     15       0.0753      2.00000
     16       0.2452      2.00000
     17       0.4391      2.00000
     18       0.4439      2.00000
     19       0.4929      2.00000
     20       0.5343      2.00000
     21       0.7478      2.00000
     22       0.7511      2.00000
     23       1.2761      2.00000
     24       1.2943      2.00000
     25       1.3421      2.00000
     26       1.3488      2.00000
     27       1.4392      2.00000
     28       1.4737      2.00000
     29       1.4908      2.00000
     30       1.5401      2.00000
     31       1.6065      2.00000
     32       1.6549      2.00000
     33       1.6986      2.00000
     34       1.8535      2.00000
     35       1.9102      2.00000
     36       2.0773      2.00000
     37       2.2208      2.00000
     38       2.2972      2.00000
     39       2.4428      2.00000
     40       2.4555      2.00000
     41       2.5235      2.00000
     42       2.5587      2.00000
     43       2.6938      2.00000
     44       2.7974      2.00000
     45       2.8732      2.00000
     46       2.8750      2.00000
     47       3.0154      2.00000
     48       3.1574      2.00000
     49       3.9923      2.00000
     50       4.4752      2.00000
     51       4.5267      2.00000
     52       4.7975      2.00000
     53       5.0890      0.00109
     54       5.5369      0.00000
     55       5.6314      0.00000
     56       6.4768      0.00000
     57       6.8158      0.00000
     58       7.0524      0.00000
     59       7.5790      0.00000
     60       8.4210      0.00000
     61       8.4447      0.00000
     62       9.0681      0.00000
     63       9.7894      0.00000
     64       9.9796      0.00000

 k-point    21 :       0.3077    0.3077    0.0000
  band No.  band energies     occupation 
      1     -12.7386      2.00000
      2     -12.7375      2.00000
      3     -11.8588      2.00000
      4     -11.8529      2.00000
      5     -11.8418      2.00000
      6     -11.8285      2.00000
      7     -11.8138      2.00000
      8     -11.7997      2.00000
      9     -11.7883      2.00000
     10     -11.7785      2.00000
     11      -0.0303      2.00000
     12      -0.0301      2.00000
     13       0.2375      2.00000
     14       0.2407      2.00000
     15       0.3858      2.00000
     16       0.3999      2.00000
     17       0.5027      2.00000
     18       0.5248      2.00000
     19       0.6008      2.00000
     20       0.6982      2.00000
     21       0.7609      2.00000
     22       0.8918      2.00000
     23       0.9888      2.00000
     24       1.0162      2.00000
     25       1.1548      2.00000
     26       1.1835      2.00000
     27       1.1912      2.00000
     28       1.2181      2.00000
     29       1.3898      2.00000
     30       1.4254      2.00000
     31       1.5599      2.00000
     32       1.5703      2.00000
     33       1.6427      2.00000
     34       1.7626      2.00000
     35       2.1591      2.00000
     36       2.4199      2.00000
     37       2.5169      2.00000
     38       2.6096      2.00000
     39       2.6425      2.00000
     40       2.6941      2.00000
     41       2.6952      2.00000
     42       2.7294      2.00000
     43       2.7845      2.00000
     44       2.7931      2.00000
     45       2.8401      2.00000
     46       2.9972      2.00000
     47       3.1436      2.00000
     48       3.1534      2.00000
     49       3.6255      2.00000
     50       3.6542      2.00000
     51       3.9236      2.00000
     52       4.3311      2.00000
     53       4.7468      2.00000
     54       5.3506      0.00000
     55       5.6797      0.00000
     56       6.0143      0.00000
     57       6.7994      0.00000
     58       6.9198      0.00000
     59       7.2064      0.00000
     60       8.1312      0.00000
     61       8.5494      0.00000
     62       8.5511      0.00000
     63       9.7491      0.00000
     64      10.1884      0.00000


--------------------------------------------------------------------------------------------------------


 soft charge-density along one line, spin component           1
         0         1         2         3         4         5         6         7         8         9
 total charge-density along one line
 
 pseudopotential strength for first ion, spin component:           1
 12.100   0.000 -14.716   0.000  -0.000   0.000   0.022   0.000   0.000   0.000   0.000   0.000  -0.028   0.000  -0.000   0.000
-14.716   0.000  17.916   0.000   0.000   0.000  -0.028   0.000  -0.000   0.000  -0.000   0.000   0.036   0.000   0.000   0.000
 -0.000   0.000   0.000   0.000  -8.194   0.000  -0.000   0.000   0.000   0.000   9.786   0.000   0.000   0.000  -0.000   0.000
  0.022   0.000  -0.028   0.000  -0.000   0.000  -8.257   0.000   0.000   0.000   0.000   0.000   9.870   0.000  -0.000   0.000
  0.000   0.000  -0.000   0.000   0.000   0.000   0.000   0.000  -8.194   0.000  -0.000   0.000  -0.000   0.000   9.786   0.000
  0.000   0.000  -0.000   0.000   9.786   0.000   0.000   0.000  -0.000   0.000 -11.519   0.000  -0.000   0.000   0.000   0.000
 -0.028   0.000   0.036   0.000   0.000   0.000   9.870   0.000  -0.000   0.000  -0.000   0.000 -11.632   0.000   0.000   0.000
 -0.000   0.000   0.000   0.000  -0.000   0.000  -0.000   0.000   9.786   0.000   0.000   0.000   0.000   0.000 -11.519   0.000
 total augmentation occupancy for first ion, spin component:           1
  2.635   0.376   0.000  -0.076  -0.000   0.000  -0.031  -0.000
  0.376   0.076   0.000  -0.071  -0.000   0.000  -0.016  -0.000
  0.000   0.000   2.121  -0.000   0.000   0.231  -0.000   0.000
 -0.076  -0.071  -0.000   2.232   0.000  -0.000   0.313   0.000
 -0.000  -0.000   0.000   0.000   2.121   0.000   0.000   0.231
  0.000   0.000   0.231  -0.000   0.000   0.028  -0.000   0.000
 -0.031  -0.016  -0.000   0.313   0.000  -0.000   0.048   0.000
 -0.000  -0.000   0.000   0.000   0.231   0.000   0.000   0.028


------------------------ aborting loop because EDIFF is reached ----------------------------------------


    CHARGE:  cpu time    0.38: real time    0.39
    FORLOC:  cpu time    0.03: real time    0.03
    FORNL :  cpu time    2.99: real time    2.99
    STRESS:  cpu time    4.07: real time    4.08
    FORCOR:  cpu time    0.14: real time    0.14
    FORHAR:  cpu time    0.06: real time    0.06
    MIXING:  cpu time    0.00: real time    0.00
    OFIELD:  cpu time    0.00: real time    0.00

  FORCE on cell =-STRESS in cart. coord.  units (eV):
  Direction    XX          YY          ZZ          XY          YZ          ZX
  --------------------------------------------------------------------------------------
  Alpha Z   132.28605   132.28605   132.28605
  Ewald   12915.29537 12915.29570-15496.66223    -0.00003    -0.00000    -0.00015
  Hartree 14779.10836 14779.10827-13817.99170    -0.00000    -0.00000     0.00004
  E(xc)    -413.62239  -413.62240  -413.76155    -0.00000     0.00000    -0.00000
  Local  -28921.33715-28921.33662 28098.24107    -0.00019    -0.00000     0.00005
  n-local   -60.23286   -75.38521   -58.72469     3.22150    -1.41169     4.63644
  augment    60.84931    60.84906    58.93598     0.00018     0.00000     0.00000
  Kinetic  1520.19624  1500.78503  1477.64366    -1.69751    -0.64640     1.13113
  Fock        0.00000     0.00000     0.00000     0.00000     0.00000     0.00000
  -------------------------------------------------------------------------------------
  Total      -4.73860    -4.73860   -20.03341     0.00000     0.00000    -0.00000
  in kB     -23.79826   -23.79825  -100.61207     0.00000     0.00000    -0.00000
  external pressure =      -49.40 kB  Pullay stress =        0.00 kB


 VOLUME and BASIS-vectors are now :
 -----------------------------------------------------------------------------
  energy-cutoff  :      520.00
  volume of cell :      319.02
      direct lattice vectors                 reciprocal lattice vectors
     2.600457673 -1.501374484  0.000000000     0.384547693  0.000000000 -0.000000000
     0.000000000  3.002748968  0.000000000     0.192273847  0.333028172 -0.000000000
     0.000000000 -0.000000000 40.855120453     0.000000000  0.000000000  0.024476736

  length of vectors
     3.002749648  3.002748968 40.855120453     0.384547693  0.384547781  0.024476736


 FORCES acting on ions
    electron-ion (+dipol)            ewald-force                    non-local-force                 convergence-correction
 -----------------------------------------------------------------------------------------------
   0.215E-05 -.425E-06 0.117E+04   0.234E-04 -.261E-04 -.116E+04   -.146E-15 0.245E-16 -.904E+01   -.151E-08 0.237E-08 -.130E+00
   0.106E-02 -.184E-02 0.912E+03   0.556E-04 -.950E-04 -.912E+03   -.228E-18 -.881E-18 0.341E-01   0.151E-09 -.259E-09 -.141E+00
   0.100E-08 -.442E-09 0.391E+03   0.109E-06 -.123E-06 -.391E+03   -.624E-19 0.825E-20 -.361E-02   0.119E-09 -.307E-09 -.750E-01
   0.107E-02 -.185E-02 0.130E+03   0.544E-04 -.943E-04 -.130E+03   0.147E-18 -.307E-19 0.880E-02   -.443E-08 0.739E-08 -.217E-01
   -.209E-08 0.642E-09 -.391E+03   -.821E-07 0.934E-07 0.391E+03   0.649E-19 -.831E-20 0.376E-02   -.113E-09 0.350E-09 0.889E-01
   0.107E-02 -.185E-02 -.651E+03   0.544E-04 -.943E-04 0.651E+03   0.227E-18 -.393E-19 0.132E-01   0.581E-08 -.986E-08 0.125E+00
   -.215E-05 0.425E-06 -.117E+04   -.234E-04 0.261E-04 0.116E+04   0.158E-15 -.245E-16 0.905E+01   0.195E-08 -.310E-08 0.115E+00
   -.107E-02 0.185E-02 0.651E+03   -.544E-04 0.943E-04 -.651E+03   -.130E-18 0.302E-19 -.757E-02   -.777E-08 0.133E-07 -.121E+00
   -.107E-02 0.185E-02 -.130E+03   -.544E-04 0.943E-04 0.130E+03   -.251E-18 0.431E-19 -.142E-01   0.434E-08 -.711E-08 0.411E-01
   -.106E-02 0.184E-02 -.912E+03   -.556E-04 0.951E-04 0.912E+03   -.177E-18 0.977E-20 -.240E-01   0.607E-08 -.106E-07 0.133E+00
   0.524E-07 0.218E-08 0.260E+03   -.184E-06 0.206E-06 -.260E+03   0.447E-18 0.424E-18 0.238E-01   0.150E-08 -.264E-08 -.444E-01
   -.534E-08 0.196E-07 -.586E-02   -.204E-07 0.228E-07 0.310E-02   0.620E-20 0.533E-19 0.217E-02   0.367E-10 -.649E-10 0.337E-02
   -.644E-07 0.250E-07 -.260E+03   0.172E-06 -.192E-06 0.260E+03   -.549E-18 0.871E-20 -.214E-01   -.185E-08 0.328E-08 0.435E-01
   0.464E-04 -.778E-04 0.351E+03   -.517E-04 0.856E-04 -.351E+03   0.121E-17 0.342E-17 0.121E+00   -.865E-09 0.147E-08 -.469E-01
   0.420E-04 -.726E-04 0.868E+02   -.470E-04 0.813E-04 -.868E+02   0.190E-18 0.105E-18 0.953E-02   -.387E-09 0.740E-09 -.161E-01
   0.419E-04 -.726E-04 -.174E+03   -.469E-04 0.814E-04 0.174E+03   -.302E-18 0.330E-18 -.107E-01   0.169E-08 -.294E-08 0.368E-01
   -.419E-04 0.726E-04 0.174E+03   0.469E-04 -.814E-04 -.174E+03   0.150E-18 0.211E-18 0.144E-01   -.156E-08 0.270E-08 -.336E-01
   -.419E-04 0.726E-04 -.868E+02   0.470E-04 -.814E-04 0.868E+02   -.208E-18 0.165E-18 -.640E-02   0.243E-09 -.488E-09 0.219E-01
   -.464E-04 0.778E-04 -.351E+03   0.517E-04 -.856E-04 0.351E+03   -.120E-17 -.342E-17 -.116E+00   0.212E-08 -.370E-08 0.429E-01
   -.133E-09 0.322E-09 -.113E-01   -.200E-09 0.194E-09 0.109E-01   -.240E-20 0.349E-20 -.248E-03   -.155E-11 0.312E-12 0.531E-03
   -.459E-06 -.367E-07 0.647E+03   0.203E-05 -.185E-05 -.642E+03   -.699E-16 -.257E-16 -.503E+01   -.258E-10 0.299E-10 -.539E-01
   0.151E-04 -.260E-04 0.422E+03   -.258E-05 0.415E-05 -.422E+03   0.805E-18 -.115E-18 0.282E+00   -.573E-10 0.777E-10 -.342E-01
   -.145E-04 0.252E-04 0.208E+03   0.233E-05 -.394E-05 -.208E+03   0.533E-17 -.176E-19 0.432E-01   0.411E-10 -.827E-10 -.155E-01
   0.459E-06 0.368E-07 -.647E+03   -.203E-05 0.185E-05 0.642E+03   0.699E-16 -.298E-16 0.505E+01   0.373E-10 -.404E-10 0.465E-01
   0.145E-04 -.252E-04 -.208E+03   -.233E-05 0.394E-05 0.208E+03   0.552E-17 0.349E-17 -.428E-01   -.328E-10 0.690E-10 0.155E-01
   -.151E-04 0.260E-04 -.422E+03   0.258E-05 -.415E-05 0.422E+03   -.775E-17 -.138E-16 -.283E+00   0.494E-10 -.639E-10 0.309E-01
 -----------------------------------------------------------------------------------------------
   0.306E-07 0.675E-08 -.672E-01   0.298E-13 0.126E-14 0.796E-12   0.155E-16 -.655E-16 0.580E-01   0.556E-08 -.954E-08 0.104E-01
 
 
 POSITION                                       TOTAL-FORCE (eV/Angst)
 -----------------------------------------------------------------------------------
      0.00000     -0.00000     10.20752         0.000000      0.000000      0.004437
      0.86682      1.50138     12.64103        -0.000000     -0.000000     -0.007101
      0.00000     -0.00000     17.69931        -0.000000      0.000000     -0.010103
      0.86682      1.50138     20.22689         0.000000      0.000000      0.001832
      0.00000     -0.00000     25.28342         0.000000     -0.000000      0.008152
      0.86682      1.50138     27.81170         0.000000     -0.000000      0.018187
      0.00000     -0.00000     32.77541        -0.000000      0.000000     -0.013337
      1.73364     -0.00000     15.17108        -0.000000     -0.000000     -0.017794
      1.73364     -0.00000     22.75592         0.000000     -0.000000     -0.006098
      1.73364     -0.00000     30.34178         0.000000     -0.000000      0.008382
      0.00000     -0.00000     13.90407         0.000000     -0.000000      0.016093
      0.00000     -0.00000     21.49118         0.000000      0.000000      0.002726
      0.00000     -0.00000     29.07859        -0.000000      0.000000     -0.019021
      1.73364     -0.00000     11.37159         0.000000     -0.000000      0.007992
      1.73364     -0.00000     18.96228         0.000000      0.000000      0.006748
      1.73364     -0.00000     26.54864        -0.000000      0.000000     -0.003688
      0.86682      1.50138     16.43381         0.000000      0.000000      0.005867
      0.86682      1.50138     24.02019        -0.000000      0.000000     -0.004411
      0.86682      1.50138     31.61092        -0.000000      0.000000     -0.007396
      0.00000     -0.00000      1.06372        -0.000000      0.000000     -0.000202
      0.00000     -0.00000      8.46556         0.000000     -0.000000      0.015439
      1.73364     -0.00000      6.04563         0.000000      0.000000      0.005455
      0.86682      1.50138      3.53330         0.000000      0.000000      0.000805
      0.00000     -0.00000     34.51687        -0.000000      0.000000     -0.006194
      1.73364     -0.00000     39.44921        -0.000000      0.000000     -0.000713
      0.86682      1.50138     36.93697        -0.000000      0.000000     -0.006057
 -----------------------------------------------------------------------------------
    total drift:                                0.000000     -0.000000      0.001232


--------------------------------------------------------------------------------------------------------



  FREE ENERGIE OF THE ION-ELECTRON SYSTEM (eV)
  ---------------------------------------------------
  free  energy   TOTEN  =      -141.20784673 eV

  energy  without entropy=     -141.20374307  energy(sigma->0) =     -141.20579490
 
 d Force = 0.1546101E-03[ 0.904E-04, 0.219E-03]  d Energy = 0.1119878E-03 0.426E-04
 d Force =-0.1036934E+02[-0.104E+02,-0.104E+02]  d Ewald  =-0.1036934E+02 0.578E-09


--------------------------------------------------------------------------------------------------------


    POTLOK:  cpu time    0.22: real time    0.22


--------------------------------------------------------------------------------------------------------


 Conjugate gradient step on ions:
 trial-energy change:   -0.000112  1 .order   -0.000155   -0.000219   -0.000090
  (g-gl).g = 0.210E-03      g.g   = 0.232E-03  gl.gl    = 0.236E-03
 g(Force)  = 0.232E-03   g(Stress)= 0.000E+00 ortho     = 0.337E-04
 gamma     =   0.88857
 trial     =   0.83505
 opt step  =   1.42262  (harmonic =   1.42262) maximal distance =0.00286501
 next E    =  -141.207921   (d E  =  -0.00019)


--------------------------------------------------------------------------------------------------------


  
 reached required accuracy - stopping structural energy minimisation
     LOOP+:  cpu time   33.08: real time   33.14
    4ORBIT:  cpu time    0.00: real time    0.00

 total amount of memory used by VASP on root node   146788. kBytes
========================================================================

   base      :      30000. kBytes
   nonl-proj :      15232. kBytes
   fftplans  :      55169. kBytes
   grid      :      22118. kBytes
   one-center:         56. kBytes
   wavefun   :      24213. kBytes
 
  
  
 General timing and accounting informations for this job:
 ========================================================
  
                  Total CPU time used (sec):     1684.369
                            User time (sec):     1662.906
                          System time (sec):       21.463
                         Elapsed time (sec):     1687.061
  
                   Maximum memory used (kb):      254904.
                   Average memory used (kb):           0.
  
                          Minor page faults:       383530
                          Major page faults:            0
                 Voluntary context switches:          231
