 vasp.5.4.4.18Apr17-6-g9f103f2a35 (build Nov 15 2019 10:10:58) complex          
  
 executed on             LinuxIFC date 2024.07.29  10:39:52
 running on   20 total cores
 distrk:  each k-point on   20 cores,    1 groups
 distr:  one band on NCORES_PER_BAND=   4 cores,    5 groups


--------------------------------------------------------------------------------------------------------


 INCAR:
 POTCAR:    PAW_PBE O 08Apr2002                   
 POTCAR:    PAW_PBE Mg 13Apr2007                  
 POTCAR:    PAW_PBE O 08Apr2002                   
   VRHFIN =O: s2p4                                                              
   LEXCH  = PE                                                                  
   EATOM  =   432.3788 eV,   31.7789 Ry                                         
                                                                                
   TITEL  = PAW_PBE O 08Apr2002                                                 
   LULTRA =        F    use ultrasoft PP ?                                      
   IUNSCR =        1    unscreen: 0-lin 1-nonlin 2-no                           
   RPACOR =    1.200    partial core radius                                     
   POMASS =   16.000; ZVAL   =    6.000    mass and valenz                      
   RCORE  =    1.520    outmost cutoff radius                                   
   RWIGS  =    1.550; RWIGS  =    0.820    wigner-seitz radius (au A)           
   ENMAX  =  400.000; ENMIN  =  300.000 eV                                      
   ICORE  =        2    local potential                                         
   LCOR   =        T    correct aug charges                                     
   LPAW   =        T    paw PP                                                  
   EAUG   =  605.392                                                            
   DEXC   =    0.000                                                            
   RMAX   =    1.553    core radius for proj-oper                               
   RAUG   =    1.300    factor for augmentation sphere                          
   RDEP   =    1.550    radius for radial grids                                 
   RDEPT  =    1.329    core radius for aug-charge                              
                                                                                
   Atomic configuration                                                         
    4 entries                                                                   
     n  l   j            E        occ.                                          
     1  0  0.50      -514.6923   2.0000                                         
     2  0  0.50       -23.9615   2.0000                                         
     2  1  0.50        -9.0305   4.0000                                         
     3  2  1.50        -9.5241   0.0000                                         
   Description                                                                  
     l       E           TYP  RCUT    TYP  RCUT                                 
     0    -23.9615318     23  1.200                                             
     0     -9.5240782     23  1.200                                             
     1     -9.0304911     23  1.520                                             
     1      8.1634956     23  1.520                                             
     2     -9.5240782      7  1.500                                             
  local pseudopotential read in
  partial core-charges read in
  partial kinetic energy density read in
  kinetic energy density of atom read in
  atomic valenz-charges read in
  non local Contribution for L=           0  read in
    real space projection operators read in
  non local Contribution for L=           0  read in
    real space projection operators read in
  non local Contribution for L=           1  read in
    real space projection operators read in
  non local Contribution for L=           1  read in
    real space projection operators read in
    PAW grid and wavefunctions read in
 
   number of l-projection  operators is LMAX  =           4
   number of lm-projection operators is LMMAX =           8
 
 POTCAR:    PAW_PBE Mg 13Apr2007                  
   VRHFIN =Mg: s2p0                                                             
   LEXCH  = PE                                                                  
   EATOM  =    23.0369 eV,    1.6932 Ry                                         
                                                                                
   TITEL  = PAW_PBE Mg 13Apr2007                                                
   LULTRA =        F    use ultrasoft PP ?                                      
   IUNSCR =        1    unscreen: 0-lin 1-nonlin 2-no                           
   RPACOR =    1.500    partial core radius                                     
   POMASS =   24.305; ZVAL   =    2.000    mass and valenz                      
   RCORE  =    2.000    outmost cutoff radius                                   
   RWIGS  =    2.880; RWIGS  =    1.524    wigner-seitz radius (au A)           
   ENMAX  =  200.000; ENMIN  =  100.000 eV                                      
   RCLOC  =    1.506    cutoff for local pot                                    
   LCOR   =        T    correct aug charges                                     
   LPAW   =        T    paw PP                                                  
   EAUG   =  454.734                                                            
   DEXC   =    0.000                                                            
   RMAX   =    2.045    core radius for proj-oper                               
   RAUG   =    1.300    factor for augmentation sphere                          
   RDEP   =    2.025    radius for radial grids                                 
   RDEPT  =    1.942    core radius for aug-charge                              
                                                                                
   Atomic configuration                                                         
    6 entries                                                                   
     n  l   j            E        occ.                                          
     1  0  0.50     -1259.6230   2.0000                                         
     2  0  0.50       -79.8442   2.0000                                         
     2  1  1.50       -46.6121   6.0000                                         
     3  0  0.50        -4.7055   2.0000                                         
     3  1  0.50        -1.3660   0.0000                                         
     3  2  1.50        -1.3606   0.0000                                         
   Description                                                                  
     l       E           TYP  RCUT    TYP  RCUT                                 
     0     -4.7054661     23  2.000                                             
     0     27.2116520     23  2.000                                             
     1      1.3605826     23  2.000                                             
     1     27.2116520     23  2.000                                             
     2     -1.3605826     23  2.000                                             
  local pseudopotential read in
  partial core-charges read in
  partial kinetic energy density read in
  atomic valenz-charges read in
  non local Contribution for L=           0  read in
    real space projection operators read in
  non local Contribution for L=           0  read in
    real space projection operators read in
  non local Contribution for L=           1  read in
    real space projection operators read in
  non local Contribution for L=           1  read in
    real space projection operators read in
  non local Contribution for L=           2  read in
    real space projection operators read in
    PAW grid and wavefunctions read in
 
   number of l-projection  operators is LMAX  =           5
   number of lm-projection operators is LMMAX =          13
 
 Optimization of the real space projectors (new method)

 maximal supplied QI-value         = 24.76
 optimisation between [QCUT,QGAM] = [ 11.64, 28.96] = [ 37.91,234.92] Ry 
 Optimized for a Real-space Cutoff    0.91 Angstroem

   l    n(q)    QCUT    max X(q) W(low)/X(q) W(high)/X(q)  e(spline) 
   0      8    11.635    20.381    0.20E-03    0.22E-03    0.69E-07
   0      8    11.635    15.268    0.22E-03    0.24E-03    0.73E-07
   1      7    11.635     5.964    0.40E-03    0.67E-03    0.12E-06
   1      7    11.635     5.382    0.33E-03    0.56E-03    0.11E-06
 Optimization of the real space projectors (new method)

 maximal supplied QI-value         = 18.90
 optimisation between [QCUT,QGAM] = [ 11.53, 29.10] = [ 37.21,237.16] Ry 
 Optimized for a Real-space Cutoff    1.12 Angstroem

   l    n(q)    QCUT    max X(q) W(low)/X(q) W(high)/X(q)  e(spline) 
   0     10    11.527    28.265    0.21E-03    0.84E-05    0.64E-06
   0     10    11.527    10.429    0.17E-03    0.65E-05    0.50E-06
   1      9    11.527    13.073    0.75E-04    0.28E-03    0.46E-06
   1      9    11.527     9.625    0.62E-04    0.23E-03    0.39E-06
   2      9    11.527     4.652    0.39E-03    0.81E-04    0.28E-06
  PAW_PBE O 08Apr2002                   :
 energy of atom  1       EATOM= -432.3788
 kinetic energy error for atom=    0.0208 (will be added to EATOM!!)
  PAW_PBE Mg 13Apr2007                  :
 energy of atom  2       EATOM=  -23.0369
 kinetic energy error for atom=    0.0000 (will be added to EATOM!!)
 
 
 POSCAR: MgO(1 1 1 (2)                           
  positions in direct lattice
  No initial velocities read in
 exchange correlation table for  LEXCH =        8
   RHO(1)=    0.500       N(1)  =     2000
   RHO(2)=  100.500       N(2)  =     4000

 VTST: version 3.2, (02/03/18)

 CHAIN: initializing optimizer
 
 OPT: Using VASP Conjugate-Gradient optimizer
 CHAIN: Read ICHAIN            0
 
 POSCAR: MgO(1 1 1 (2)                           
  positions in direct lattice
  No initial velocities read in
 


--------------------------------------------------------------------------------------------------------


 ion  position               nearest neighbor table
   1  0.500  0.500  0.126-  14 2.12  15 2.12  14 2.12  14 2.12  15 2.12  15 2.12
   2  0.500  0.500  0.325-  17 2.12  16 2.12  17 2.12  17 2.12  16 2.12  16 2.12
   3  0.500  0.500  0.523-  19 2.12  19 2.12  19 2.12  18 2.12  18 2.12  18 2.12
   4  0.167  0.833  0.060-  14 2.12  14 2.12  14 2.12  10 2.12  10 2.12  10 2.12
   5  0.833  0.167  0.192-  11 2.12  11 2.12  11 2.12  15 2.12  15 2.12  15 2.12
   6  0.167  0.833  0.259-  11 2.12  11 2.12  11 2.12  16 2.12  16 2.12  16 2.12
   7  0.833  0.167  0.391-  17 2.12  17 2.12  17 2.12  12 2.12  12 2.12  12 2.12
   8  0.167  0.833  0.457-  12 2.12  18 2.12  18 2.12  12 2.12  12 2.12  18 2.12
   9  0.833  0.167  0.589-  13 2.12  19 2.12  19 2.12  13 2.12  13 2.12  19 2.12
  10  0.500  0.500  0.027-   4 2.12   4 2.12   4 2.12  14 3.00  14 3.00  14 3.00
  11  0.500  0.500  0.225-   5 2.12   6 2.12   5 2.12   5 2.12   6 2.12   6 2.12  15 3.00  16 3.00
                            15 3.00  15 3.00  16 3.00  16 3.00
  12  0.500  0.500  0.424-   8 2.12   8 2.12   8 2.12   7 2.12   7 2.12   7 2.12  18 3.00  18 3.00
                            18 3.00  17 3.00  17 3.00  17 3.00
  13  0.500  0.500  0.622-   9 2.12   9 2.12   9 2.12  19 3.00  19 3.00  19 3.00
  14  0.833  0.167  0.093-   1 2.12   4 2.12   4 2.12   1 2.12   1 2.12   4 2.12  15 3.00  15 3.00
                            15 3.00  10 3.00  10 3.00  10 3.00
  15  0.167  0.833  0.159-   1 2.12   1 2.12   1 2.12   5 2.12   5 2.12   5 2.12  14 3.00  14 3.00
                            14 3.00  11 3.00  11 3.00  11 3.00
  16  0.833  0.167  0.292-   2 2.12   2 2.12   2 2.12   6 2.12   6 2.12   6 2.12  17 3.00  17 3.00
                            17 3.00  11 3.00  11 3.00  11 3.00
  17  0.167  0.833  0.358-   2 2.12   7 2.12   7 2.12   2 2.12   2 2.12   7 2.12  16 3.00  16 3.00
                            16 3.00  12 3.00  12 3.00  12 3.00
  18  0.833  0.167  0.490-   8 2.12   8 2.12   8 2.12   3 2.12   3 2.12   3 2.12  12 3.00  12 3.00
                            12 3.00  19 3.00  19 3.00  19 3.00
  19  0.167  0.833  0.556-   3 2.12   9 2.12   9 2.12   3 2.12   3 2.12   9 2.12  13 3.00  13 3.00
                            13 3.00  18 3.00  18 3.00  18 3.00
 
  LATTYP: Found a hexagonal cell.
 ALAT       =     3.0044062036
 C/A-ratio  =    12.3411345745
  
  Lattice vectors:
  
 A1 = (   2.1244360000,  -2.1244360000,   0.0000000000)
 A2 = (   0.0000000000,   2.1244360000,  -2.1244360000)
 A3 = (  21.4068670000,  21.4068670000,  21.4068670000)


Analysis of symmetry for initial positions (statically):
=====================================================================
 Subroutine PRICEL returns:
 Original cell was already a primitive cell.
 

 Routine SETGRP: Setting up the symmetry group for a 
 hexagonal supercell.


 Subroutine GETGRP returns: Found 12 space group operations
 (whereof  2 operations were pure point group operations)
 out of a pool of 24 trial point group operations.


The static configuration has the point symmetry C_1h.
 The point group associated with its full space group is D_3d.


Analysis of symmetry for dynamics (positions and initial velocities):
=====================================================================
 Subroutine PRICEL returns:
 Original cell was already a primitive cell.
 

 Routine SETGRP: Setting up the symmetry group for a 
 hexagonal supercell.


 Subroutine GETGRP returns: Found 12 space group operations
 (whereof  2 operations were pure point group operations)
 out of a pool of 24 trial point group operations.


The dynamic configuration has the point symmetry C_1h.
 The point group associated with its full space group is D_3d.


Analysis of constrained symmetry for selective dynamics:
=====================================================================
 Subroutine PRICEL returns:
 Original cell was already a primitive cell.
 

 Routine SETGRP: Setting up the symmetry group for a 
 hexagonal supercell.


 Subroutine GETGRP returns: Found 12 space group operations
 (whereof  2 operations were pure point group operations)
 out of a pool of 24 trial point group operations.


The constrained configuration has the point symmetry C_1h.
 The point group associated with its full space group is D_3d.


 Subroutine INISYM returns: Found 12 space group operations
 (whereof  2 operations are pure point group operations),
 and found     1 'primitive' translations

 
 
 KPOINTS: K-Spacing Value to Generate K-Mesh: 0.02

Automatic generation of k-mesh.
Space group operators:
 irot       det(A)        alpha          n_x          n_y          n_z        tau_x        tau_y        tau_z
    1     1.000000     0.000000     1.000000     0.000000     0.000000     0.000000     0.000000     0.000000
    2    -1.000000   180.000000     0.707107     0.000000    -0.707107     0.000000     0.000000     0.000000
    3    -1.000000     0.000000     1.000000     0.000000     0.000000     0.000000     0.000000     0.649386
    4     1.000000   120.000000    -0.577350    -0.577350    -0.577350     0.000000     0.500000     0.000000
    5    -1.000000   120.000000    -0.577350    -0.577350    -0.577350     0.000000     0.500000     0.649386
    6     1.000000   120.000000     0.577350     0.577350     0.577350     0.500001     0.000000     0.000000
    7    -1.000000   120.000000     0.577350     0.577350     0.577350     0.500001     0.000000     0.649385
    8     1.000000   180.000000     0.707107    -0.707107    -0.000000     0.500001     0.000000     0.649385
    9    -1.000000   180.000000     0.707107    -0.707107    -0.000000     0.500001     0.000000     0.000000
   10     1.000000   180.000000    -0.000000    -0.707107     0.707107     0.000000     0.500000     0.649386
   11    -1.000000   180.000000    -0.000000    -0.707107     0.707107     0.000000     0.500000     0.000000
   12     1.000000   180.000000     0.707107     0.000000    -0.707107     0.000000     0.000000     0.649386
 
 Subroutine IBZKPT returns following result:
 ===========================================
 
 Found     20 irreducible k-points:
 
 Following reciprocal coordinates:
            Coordinates               Weight
  0.062500  0.062500  0.000000     48.000000
  0.187500  0.062500 -0.000000     96.000000
  0.312500  0.062500  0.000000     96.000000
  0.437500  0.062500 -0.000000     96.000000
 -0.437500  0.062500  0.000000     96.000000
 -0.312500  0.062500  0.000000     96.000000
 -0.187500  0.062500 -0.000000     96.000000
 -0.062500  0.062500 -0.000000     48.000000
  0.187500  0.187500  0.000000     48.000000
  0.312500  0.187500  0.000000     96.000000
  0.437500  0.187500  0.000000     96.000000
 -0.437500  0.187500 -0.000000     96.000000
 -0.312500  0.187500  0.000000     96.000000
 -0.187500  0.187500  0.000000     48.000000
  0.312500  0.312500  0.000000     48.000000
  0.437500  0.312500  0.000000     96.000000
 -0.437500  0.312500 -0.000000     96.000000
 -0.312500  0.312500  0.000000     48.000000
  0.437500  0.437500  0.000000     48.000000
 -0.437500  0.437500  0.000000     48.000000
 
 Following cartesian coordinates:
            Coordinates               Weight
  0.029420  0.000000 -0.029420     48.000000
  0.068646 -0.019613 -0.049033     96.000000
  0.107872 -0.039226 -0.068646     96.000000
  0.147098 -0.058839 -0.088259     96.000000
 -0.127485  0.078452  0.049033     96.000000
 -0.088259  0.058839  0.029420     96.000000
 -0.049033  0.039226  0.009807     96.000000
 -0.009807  0.019613 -0.009807     48.000000
  0.088259  0.000000 -0.088259     48.000000
  0.127485 -0.019613 -0.107872     96.000000
  0.166711 -0.039226 -0.127485     96.000000
 -0.107872  0.098065  0.009807     96.000000
 -0.068646  0.078452 -0.009807     96.000000
 -0.029420  0.058839 -0.029420     48.000000
  0.147098  0.000000 -0.147098     48.000000
  0.186324 -0.019613 -0.166711     96.000000
 -0.088259  0.117678 -0.029420     96.000000
 -0.049033  0.098065 -0.049033     48.000000
  0.205937  0.000000 -0.205937     48.000000
 -0.068646  0.137291 -0.068646     48.000000
 


--------------------------------------------------------------------------------------------------------




 Dimension of arrays:
   k-points           NKPTS =     20   k-points in BZ     NKDIM =     20   number of bands    NBANDS=     50
   number of dos      NEDOS =    301   number of ions     NIONS =     19
   non local maximal  LDIM  =      5   non local SUM 2l+1 LMDIM =     13
   total plane-waves  NPLWV = 161280
   max r-space proj   IRMAX =   3350   max aug-charges    IRDMAX=   7703
   dimension x,y,z NGX =    24 NGY =   24 NGZ =  280
   dimension x,y,z NGXF=    32 NGYF=   32 NGZF=  400
   support grid    NGXF=    32 NGYF=   32 NGZF=  400
   ions per type =               9  10
   NGX,Y,Z   is equivalent  to a cutoff of  13.28, 13.28, 12.55 a.u.
   NGXF,Y,Z  is equivalent  to a cutoff of  17.71, 17.71, 17.93 a.u.

 SYSTEM =  Al110                                   
 POSCAR =  MgO(1 1 1 (2)                           

 Startparameter for this run:
   NWRITE =      2    write-flag & timer
   PREC   = h         normal or accurate (medium, high low for compatibility)
   ISTART =      0    job   : 0-new  1-cont  2-samecut
   ICHARG =      2    charge: 1-file 2-atom 10-const
   ISPIN  =      1    spin polarized calculation?
   LNONCOLLINEAR =      F non collinear calculations
   LSORBIT =      F    spin-orbit coupling
   INIWAV =      1    electr: 0-lowe 1-rand  2-diag
   LASPH  =      F    aspherical Exc in radial PAW
   METAGGA=      F    non-selfconsistent MetaGGA calc.

 Electronic Relaxation 1
   ENCUT  =  520.0 eV  38.22 Ry    6.18 a.u.   5.59  5.59 68.94*2*pi/ulx,y,z
   ENINI  =  520.0     initial cutoff
   ENAUG  =  605.4 eV  augmentation charge cutoff
   NELM   =    100;   NELMIN=  6; NELMDL=  8     # of ELM steps 
   EDIFF  = 0.1E-04   stopping-criterion for ELM
   LREAL  =      T    real-space projection
   NLSPLINE    = F    spline interpolate recip. space projectors
   LCOMPAT=      F    compatible to vasp.4.4
   GGA_COMPAT  = T    GGA compatible to vasp.4.4-vasp.4.6
   LMAXPAW     = -100 max onsite density
   LMAXMIX     =    2 max onsite mixed and CHGCAR
   VOSKOWN=      0    Vosko Wilk Nusair interpolation
   ROPT   =   -0.00040  -0.00040
 Ionic relaxation
   EDIFFG = -.1E-01   stopping-criterion for IOM
   NSW    =    500    number of steps for IOM
   NBLOCK =      1;   KBLOCK =    500    inner block; outer block 
   IBRION =      2    ionic relax: 0-MD 1-quasi-New 2-CG
   NFREE  =      1    steps in history (QN), initial steepest desc. (CG)
   ISIF   =      2    stress and relaxation
   IWAVPR =     11    prediction:  0-non 1-charg 2-wave 3-comb
   ISYM   =      2    0-nonsym 1-usesym 2-fastsym
   LCORR  =      T    Harris-Foulkes like correction to forces

   POTIM  = 0.5000    time-step for ionic-motion
   TEIN   =    0.0    initial temperature
   TEBEG  =    0.0;   TEEND  =   0.0 temperature during run
   SMASS  =  -3.00    Nose mass-parameter (am)
   estimated Nose-frequenzy (Omega)   =  0.10E-29 period in steps =****** mass=  -0.206E-27a.u.
   SCALEE = 1.0000    scale energy and forces
   NPACO  =    256;   APACO  = 16.0  distance and # of slots for P.C.
   PSTRESS=    0.0 pullay stress

  Mass of Ions in am
   POMASS =  16.00 24.30
  Ionic Valenz
   ZVAL   =   6.00  2.00
  Atomic Wigner-Seitz radii
   RWIGS  =  -1.00 -1.00
  virtual crystal weights 
   VCA    =   1.00  1.00
   NELECT =      74.0000    total number of electrons
   NUPDOWN=      -1.0000    fix difference up-down

 DOS related values:
   EMIN   =  10.00;   EMAX   =-10.00  energy-range for DOS
   EFERMI =   0.00
   ISMEAR =     0;   SIGMA  =   0.05  broadening in eV -4-tet -1-fermi 0-gaus

 Electronic relaxation 2 (details)
   IALGO  =     68    algorithm
   LDIAG  =      T    sub-space diagonalisation (order eigenvalues)
   LSUBROT=      F    optimize rotation matrix (better conditioning)
   TURBO    =      0    0=normal 1=particle mesh
   IRESTART =      0    0=no restart 2=restart with 2 vectors
   NREBOOT  =      0    no. of reboots
   NMIN     =      0    reboot dimension
   EREF     =   0.00    reference energy to select bands
   IMIX   =      4    mixing-type and parameters
     AMIX     =   0.40;   BMIX     =  1.00
     AMIX_MAG =   1.60;   BMIX_MAG =  1.00
     AMIN     =   0.10
     WC   =   100.;   INIMIX=   1;  MIXPRE=   1;  MAXMIX= -45

 Intra band minimization:
   WEIMIN = 0.0010     energy-eigenvalue tresh-hold
   EBREAK =  0.50E-07  absolut break condition
   DEPER  =   0.30     relativ break condition  

   TIME   =   0.40     timestep for ELM

  volume/ion in A,a.u.               =      15.25       102.94
  Fermi-wavevector in a.u.,A,eV,Ry     =   1.038560  1.962593 14.675332  1.078606
  Thomas-Fermi vector in A             =   2.173050
 
 Write flags
   LWAVE        =      F    write WAVECAR
   LDOWNSAMPLE  =      F    k-point downsampling of WAVECAR
   LCHARG       =      F    write CHGCAR
   LVTOT        =      F    write LOCPOT, total local potential
   LVHAR        =      F    write LOCPOT, Hartree potential only
   LELF         =      F    write electronic localiz. function (ELF)
   LORBIT       =      0    0 simple, 1 ext, 2 COOP (PROOUT), +10 PAW based schemes


 Dipole corrections
   LMONO  =      F    monopole corrections only (constant potential shift)
   LDIPOL =      F    correct potential (dipole corrections)
   IDIPOL =      0    1-x, 2-y, 3-z, 4-all directions 
   EPSILON=  1.0000000 bulk dielectric constant

 Exchange correlation treatment:
   GGA     =    --    GGA type
   LEXCH   =     8    internal setting for exchange type
   VOSKOWN=      0    Vosko Wilk Nusair interpolation
   LHFCALC =     F    Hartree Fock is set to
   LHFONE  =     F    Hartree Fock one center treatment
   AEXX    =    0.0000 exact exchange contribution

 Linear response parameters
   LEPSILON=     F    determine dielectric tensor
   LRPA    =     F    only Hartree local field effects (RPA)
   LNABLA  =     F    use nabla operator in PAW spheres
   LVEL    =     F    velocity operator in full k-point grid
   LINTERFAST=   F  fast interpolation
   KINTER  =     0    interpolate to denser k-point grid
   CSHIFT  =0.1000    complex shift for real part using Kramers Kronig
   OMEGAMAX=  -1.0    maximum frequency
   DEG_THRESHOLD= 0.2000000E-02 threshold for treating states as degnerate
   RTIME   =   -0.100 relaxation time in fs
  (WPLASMAI=    0.000 imaginary part of plasma frequency in eV, 0.658/RTIME)
   DFIELD  = 0.0000000 0.0000000 0.0000000 field for delta impulse in time
 
 Orbital magnetization related:
   ORBITALMAG=     F  switch on orbital magnetization
   LCHIMAG   =     F  perturbation theory with respect to B field
   DQ        =  0.001000  dq finite difference perturbation B field
   LLRAUG    =     F  two centre corrections for induced B field



--------------------------------------------------------------------------------------------------------


 conjugate gradient relaxation of ions
   using selective dynamics as specified on POSCAR
 charge density and potential will be updated during run
 non-spin polarized calculation
 RMM-DIIS sequential band-by-band and
  variant of blocked Davidson during initial phase
 perform sub-space diagonalisation
    before iterative eigenvector-optimisation
 modified Broyden-mixing scheme, WC =      100.0
 initial mixing is a Kerker type mixing with AMIX =  0.4000 and BMIX =      1.0000
 Hartree-type preconditioning will be used
 using additional bands           13
 real space projection scheme for non local part
 use partial core corrections
 calculate Harris-corrections to forces 
   (improved forces if not selfconsistent)
 use gradient corrections 
 use of overlap-Matrix (Vanderbilt PP)
 Gauss-broadening in eV      SIGMA  =   0.05


--------------------------------------------------------------------------------------------------------


  energy-cutoff  :      520.00
  volume of cell :      289.84
      direct lattice vectors                 reciprocal lattice vectors
     2.124436000 -2.124436000  0.000000000     0.313808779 -0.156904389 -0.156904389
     0.000000000  2.124436000 -2.124436000     0.156904389  0.156904389 -0.313808779
    21.406867000 21.406867000 21.406867000     0.015571327  0.015571327  0.015571327

  length of vectors
     3.004406204  3.004406204 37.077781275     0.384335692  0.384335692  0.026970330


 
 k-points in units of 2pi/SCALE and weight: K-Spacing Value to Generate K-Mesh: 0.02
   0.02941957  0.00000000 -0.02941957       0.031
   0.06864567 -0.01961305 -0.04903262       0.062
   0.10787177 -0.03922610 -0.06864567       0.062
   0.14709787 -0.05883915 -0.08825872       0.062
  -0.12748482  0.07845219  0.04903262       0.062
  -0.08825872  0.05883915  0.02941957       0.062
  -0.04903262  0.03922610  0.00980652       0.062
  -0.00980652  0.01961305 -0.00980652       0.031
   0.08825872  0.00000000 -0.08825872       0.031
   0.12748482 -0.01961305 -0.10787177       0.062
   0.16671091 -0.03922610 -0.12748482       0.062
  -0.10787177  0.09806524  0.00980652       0.062
  -0.06864567  0.07845219 -0.00980652       0.062
  -0.02941957  0.05883915 -0.02941957       0.031
   0.14709787  0.00000000 -0.14709787       0.031
   0.18632396 -0.01961305 -0.16671091       0.062
  -0.08825872  0.11767829 -0.02941957       0.062
  -0.04903262  0.09806524 -0.04903262       0.031
   0.20593701  0.00000000 -0.20593701       0.031
  -0.06864567  0.13729134 -0.06864567       0.031
 
 k-points in reciprocal lattice and weights: K-Spacing Value to Generate K-Mesh: 0.02
   0.06250000  0.06250000  0.00000000       0.031
   0.18750000  0.06250000 -0.00000000       0.062
   0.31250000  0.06250000  0.00000000       0.062
   0.43750000  0.06250000 -0.00000000       0.062
  -0.43750000  0.06250000  0.00000000       0.062
  -0.31250000  0.06250000  0.00000000       0.062
  -0.18750000  0.06250000 -0.00000000       0.062
  -0.06250000  0.06250000 -0.00000000       0.031
   0.18750000  0.18750000  0.00000000       0.031
   0.31250000  0.18750000  0.00000000       0.062
   0.43750000  0.18750000  0.00000000       0.062
  -0.43750000  0.18750000 -0.00000000       0.062
  -0.31250000  0.18750000  0.00000000       0.062
  -0.18750000  0.18750000  0.00000000       0.031
   0.31250000  0.31250000  0.00000000       0.031
   0.43750000  0.31250000  0.00000000       0.062
  -0.43750000  0.31250000 -0.00000000       0.062
  -0.31250000  0.31250000  0.00000000       0.031
   0.43750000  0.43750000  0.00000000       0.031
  -0.43750000  0.43750000  0.00000000       0.031
 
 position of ions in fractional coordinates (direct lattice) 
   0.50000000  0.50000000  0.12621100
   0.50000000  0.50000000  0.32469300
   0.50000000  0.50000000  0.52317500
   0.16666700  0.83333300  0.06005100
   0.83333300  0.16666700  0.19237200
   0.16666700  0.83333300  0.25853200
   0.83333300  0.16666700  0.39085300
   0.16666700  0.83333300  0.45701400
   0.83333300  0.16666700  0.58933500
   0.50000000  0.50000000  0.02697000
   0.50000000  0.50000000  0.22545200
   0.50000000  0.50000000  0.42393400
   0.50000000  0.50000000  0.62241500
   0.83333300  0.16666700  0.09313100
   0.16666700  0.83333300  0.15929100
   0.83333300  0.16666700  0.29161300
   0.16666700  0.83333300  0.35777300
   0.83333300  0.16666700  0.49009400
   0.16666700  0.83333300  0.55625500
 
 position of ions in cartesian coordinates  (Angst):
   3.76400009  2.70178209  1.63956409
   8.01287787  6.95065987  5.88844187
  12.26175564 11.19953764 10.13731964
   1.63957715  2.70179302 -0.48485885
   5.88844444  2.70179257  3.76400844
   5.88843351  6.95064939  3.76399751
  10.13730081  6.95064894  8.01286481
  10.13731129 11.19952717  8.01287529
  14.38617859 11.19952671 12.26174259
   1.63956120  0.57734320 -0.48487480
   5.88843898  4.82622098  3.76400298
  10.13731675  9.07509875  8.01288075
  14.38617312 13.32395512 12.26173712
   3.76400556  0.57735368  1.63956956
   3.76399463  4.82621050  1.63955863
   8.01288333  4.82623146  5.88844733
   8.01287240  9.07508828  5.88843640
  12.26173970  9.07508783 10.13730370
  12.26175018 13.32396605 10.13731418
 


--------------------------------------------------------------------------------------------------------


 k-point  1 :   0.0625 0.0625 0.0000  plane waves:    7893
 k-point  2 :   0.1875 0.0625-0.0000  plane waves:    7842
 k-point  3 :   0.3125 0.0625 0.0000  plane waves:    7784
 k-point  4 :   0.4375 0.0625-0.0000  plane waves:    7763
 k-point  5 :  -0.4375 0.0625 0.0000  plane waves:    7771
 k-point  6 :  -0.3125 0.0625 0.0000  plane waves:    7819
 k-point  7 :  -0.1875 0.0625-0.0000  plane waves:    7861
 k-point  8 :  -0.0625 0.0625-0.0000  plane waves:    7903
 k-point  9 :   0.1875 0.1875 0.0000  plane waves:    7811
 k-point 10 :   0.3125 0.1875 0.0000  plane waves:    7788
 k-point 11 :   0.4375 0.1875 0.0000  plane waves:    7755
 k-point 12 :  -0.4375 0.1875-0.0000  plane waves:    7798
 k-point 13 :  -0.3125 0.1875 0.0000  plane waves:    7832
 k-point 14 :  -0.1875 0.1875 0.0000  plane waves:    7864
 k-point 15 :   0.3125 0.3125 0.0000  plane waves:    7792
 k-point 16 :   0.4375 0.3125 0.0000  plane waves:    7770
 k-point 17 :  -0.4375 0.3125-0.0000  plane waves:    7791
 k-point 18 :  -0.3125 0.3125 0.0000  plane waves:    7802
 k-point 19 :   0.4375 0.4375 0.0000  plane waves:    7742
 k-point 20 :  -0.4375 0.4375 0.0000  plane waves:    7786

 maximum and minimum number of plane-waves per node :      1994     1924

 maximum number of plane-waves:      7903
 maximum index in each direction: 
   IXMAX=    6   IYMAX=    5   IZMAX=   68
   IXMIN=   -6   IYMIN=   -6   IZMIN=  -68


 real space projection operators:
  total allocation   :       4214.33 KBytes
  max/ min on nodes  :       1064.12       1036.92


 parallel 3D FFT for wavefunctions:
    minimum data exchange during FFTs selected (reduces bandwidth)
 parallel 3D FFT for charge:
    minimum data exchange during FFTs selected (reduces bandwidth)


 total amount of memory used by VASP MPI-rank0    44144. kBytes
=======================================================================

   base      :      30000. kBytes
   nonlr-proj:       2381. kBytes
   fftplans  :       2110. kBytes
   grid      :       3053. kBytes
   one-center:         40. kBytes
   wavefun   :       6560. kBytes
 
     INWAV:  cpu time    0.0000: real time    0.0000
 Broyden mixing: mesh for mixing (old mesh)
   NGX = 11   NGY = 11   NGZ =137
  (NGX  = 32   NGY  = 32   NGZ  =400)
  gives a total of  16577 points

 initial charge density was supplied:
 charge density of overlapping atoms calculated
 number of electron      74.0000000 magnetization 
 keeping initial charge density in first step


--------------------------------------------------------------------------------------------------------


 Maximum index for non-local projection operator          825
 Maximum index for augmentation-charges          659 (set IRDMAX)


--------------------------------------------------------------------------------------------------------


 First call to EWALD:  gamma=   0.268
 Maximum number of real-space cells 6x 6x 1
 Maximum number of reciprocal cells 2x 2x13

    FEWALD:  cpu time    0.0013: real time    0.0013


--------------------------------------- Iteration      1(   1)  ---------------------------------------


    POTLOK:  cpu time    0.0116: real time    0.0117
    SETDIJ:  cpu time    0.0022: real time    0.0022
     EDDAV:  cpu time    1.2986: real time    1.3009
       DOS:  cpu time    0.0007: real time    0.0012
    --------------------------------------------
      LOOP:  cpu time    1.3132: real time    1.3160

 eigenvalue-minimisations  :  2000
 total energy-change (2. order) : 0.5307176E+03  (-0.3399040E+04)
 number of electron      74.0000000 magnetization 
 augmentation part       74.0000000 magnetization 

 Free energy of the ion-electron system (eV)
  ---------------------------------------------------
  alpha Z        PSCENC =       110.66729910
  Ewald energy   TEWEN  =     26483.33851024
  -Hartree energ DENC   =    -30414.47700959
  -exchange      EXHF   =         0.00000000
  -V(xc)+E(xc)   XCENC  =      -233.92419226
  PAW double counting   =      3772.01224470    -3269.57291537
  entropy T*S    EENTRO =        -0.00358392
  eigenvalues    EBANDS =       -38.91327959
  atomic energy  EATOM  =      4121.59051638
  Solvation  Ediel_sol  =         0.00000000
  ---------------------------------------------------
  free energy    TOTEN  =       530.71758969 eV

  energy without entropy =      530.72117361  energy(sigma->0) =      530.71938165


--------------------------------------------------------------------------------------------------------




--------------------------------------- Iteration      1(   2)  ---------------------------------------


     EDDAV:  cpu time    1.6067: real time    1.6086
       DOS:  cpu time    0.0007: real time    0.0011
    --------------------------------------------
      LOOP:  cpu time    1.6074: real time    1.6097

 eigenvalue-minimisations  :  2650
 total energy-change (2. order) :-0.5892375E+03  (-0.5680344E+03)
 number of electron      74.0000000 magnetization 
 augmentation part       74.0000000 magnetization 

 Free energy of the ion-electron system (eV)
  ---------------------------------------------------
  alpha Z        PSCENC =       110.66729910
  Ewald energy   TEWEN  =     26483.33851024
  -Hartree energ DENC   =    -30414.47700959
  -exchange      EXHF   =         0.00000000
  -V(xc)+E(xc)   XCENC  =      -233.92419226
  PAW double counting   =      3772.01224470    -3269.57291537
  entropy T*S    EENTRO =        -0.00268392
  eigenvalues    EBANDS =      -628.15171580
  atomic energy  EATOM  =      4121.59051638
  Solvation  Ediel_sol  =         0.00000000
  ---------------------------------------------------
  free energy    TOTEN  =       -58.51994653 eV

  energy without entropy =      -58.51726260  energy(sigma->0) =      -58.51860457


--------------------------------------------------------------------------------------------------------




--------------------------------------- Iteration      1(   3)  ---------------------------------------


     EDDAV:  cpu time    1.4943: real time    1.4958
       DOS:  cpu time    0.0007: real time    0.0007
    --------------------------------------------
      LOOP:  cpu time    1.4950: real time    1.4965

 eigenvalue-minimisations  :  2390
 total energy-change (2. order) :-0.6216869E+02  (-0.6178138E+02)
 number of electron      74.0000000 magnetization 
 augmentation part       74.0000000 magnetization 

 Free energy of the ion-electron system (eV)
  ---------------------------------------------------
  alpha Z        PSCENC =       110.66729910
  Ewald energy   TEWEN  =     26483.33851024
  -Hartree energ DENC   =    -30414.47700959
  -exchange      EXHF   =         0.00000000
  -V(xc)+E(xc)   XCENC  =      -233.92419226
  PAW double counting   =      3772.01224470    -3269.57291537
  entropy T*S    EENTRO =        -0.00470358
  eigenvalues    EBANDS =      -690.31838960
  atomic energy  EATOM  =      4121.59051638
  Solvation  Ediel_sol  =         0.00000000
  ---------------------------------------------------
  free energy    TOTEN  =      -120.68863998 eV

  energy without entropy =     -120.68393640  energy(sigma->0) =     -120.68628819


--------------------------------------------------------------------------------------------------------




--------------------------------------- Iteration      1(   4)  ---------------------------------------


     EDDAV:  cpu time    1.6008: real time    1.6020
       DOS:  cpu time    0.0007: real time    0.0011
    --------------------------------------------
      LOOP:  cpu time    1.6015: real time    1.6031

 eigenvalue-minimisations  :  2650
 total energy-change (2. order) :-0.1255342E+01  (-0.1252839E+01)
 number of electron      74.0000000 magnetization 
 augmentation part       74.0000000 magnetization 

 Free energy of the ion-electron system (eV)
  ---------------------------------------------------
  alpha Z        PSCENC =       110.66729910
  Ewald energy   TEWEN  =     26483.33851024
  -Hartree energ DENC   =    -30414.47700959
  -exchange      EXHF   =         0.00000000
  -V(xc)+E(xc)   XCENC  =      -233.92419226
  PAW double counting   =      3772.01224470    -3269.57291537
  entropy T*S    EENTRO =        -0.00479450
  eigenvalues    EBANDS =      -691.57364064
  atomic energy  EATOM  =      4121.59051638
  Solvation  Ediel_sol  =         0.00000000
  ---------------------------------------------------
  free energy    TOTEN  =      -121.94398194 eV

  energy without entropy =     -121.93918744  energy(sigma->0) =     -121.94158469


--------------------------------------------------------------------------------------------------------




--------------------------------------- Iteration      1(   5)  ---------------------------------------


     EDDAV:  cpu time    1.5342: real time    1.5356
       DOS:  cpu time    0.0007: real time    0.0007
    --------------------------------------------
      LOOP:  cpu time    1.5350: real time    1.5364

 eigenvalue-minimisations  :  2510
 total energy-change (2. order) :-0.2127774E-01  (-0.2126985E-01)
 number of electron      74.0000000 magnetization 
 augmentation part       74.0000000 magnetization 

 Free energy of the ion-electron system (eV)
  ---------------------------------------------------
  alpha Z        PSCENC =       110.66729910
  Ewald energy   TEWEN  =     26483.33851024
  -Hartree energ DENC   =    -30414.47700959
  -exchange      EXHF   =         0.00000000
  -V(xc)+E(xc)   XCENC  =      -233.92419226
  PAW double counting   =      3772.01224470    -3269.57291537
  entropy T*S    EENTRO =        -0.00477335
  eigenvalues    EBANDS =      -691.59493953
  atomic energy  EATOM  =      4121.59051638
  Solvation  Ediel_sol  =         0.00000000
  ---------------------------------------------------
  free energy    TOTEN  =      -121.96525969 eV

  energy without entropy =     -121.96048634  energy(sigma->0) =     -121.96287301


--------------------------------------------------------------------------------------------------------




--------------------------------------- Iteration      1(   6)  ---------------------------------------


     EDDAV:  cpu time    1.7159: real time    1.7172
       DOS:  cpu time    0.0008: real time    0.0008
    --------------------------------------------
      LOOP:  cpu time    1.7166: real time    1.7180

 eigenvalue-minimisations  :  2660
 total energy-change (2. order) :-0.5602389E-03  (-0.5601297E-03)
 number of electron      74.0000000 magnetization 
 augmentation part       74.0000000 magnetization 

 Free energy of the ion-electron system (eV)
  ---------------------------------------------------
  alpha Z        PSCENC =       110.66729910
  Ewald energy   TEWEN  =     26483.33851024
  -Hartree energ DENC   =    -30414.47700959
  -exchange      EXHF   =         0.00000000
  -V(xc)+E(xc)   XCENC  =      -233.92419226
  PAW double counting   =      3772.01224470    -3269.57291537
  entropy T*S    EENTRO =        -0.00477313
  eigenvalues    EBANDS =      -691.59549999
  atomic energy  EATOM  =      4121.59051638
  Solvation  Ediel_sol  =         0.00000000
  ---------------------------------------------------
  free energy    TOTEN  =      -121.96581992 eV

  energy without entropy =     -121.96104679  energy(sigma->0) =     -121.96343336


--------------------------------------------------------------------------------------------------------




--------------------------------------- Iteration      1(   7)  ---------------------------------------


     EDDAV:  cpu time    1.6493: real time    1.6507
       DOS:  cpu time    0.0007: real time    0.0007
    --------------------------------------------
      LOOP:  cpu time    1.6500: real time    1.6513

 eigenvalue-minimisations  :  2560
 total energy-change (2. order) :-0.1937570E-04  (-0.1937436E-04)
 number of electron      74.0000000 magnetization 
 augmentation part       74.0000000 magnetization 

 Free energy of the ion-electron system (eV)
  ---------------------------------------------------
  alpha Z        PSCENC =       110.66729910
  Ewald energy   TEWEN  =     26483.33851024
  -Hartree energ DENC   =    -30414.47700959
  -exchange      EXHF   =         0.00000000
  -V(xc)+E(xc)   XCENC  =      -233.92419226
  PAW double counting   =      3772.01224470    -3269.57291537
  entropy T*S    EENTRO =        -0.00477312
  eigenvalues    EBANDS =      -691.59551937
  atomic energy  EATOM  =      4121.59051638
  Solvation  Ediel_sol  =         0.00000000
  ---------------------------------------------------
  free energy    TOTEN  =      -121.96583930 eV

  energy without entropy =     -121.96106618  energy(sigma->0) =     -121.96345274


--------------------------------------------------------------------------------------------------------




--------------------------------------- Iteration      1(   8)  ---------------------------------------


     EDDAV:  cpu time    1.2809: real time    1.2820
       DOS:  cpu time    0.0008: real time    0.0008
    CHARGE:  cpu time    0.0700: real time    0.0701
    MIXING:  cpu time    0.0010: real time    0.0010
    --------------------------------------------
      LOOP:  cpu time    1.3527: real time    1.3539

 eigenvalue-minimisations  :  1950
 total energy-change (2. order) :-0.6466562E-06  (-0.6467535E-06)
 number of electron      74.0000017 magnetization 
 augmentation part        7.2223040 magnetization 

 Broyden mixing:
  rms(total) = 0.22132E+01    rms(broyden)= 0.22127E+01
  rms(prec ) = 0.22890E+01
  weight for this iteration     100.00

 Free energy of the ion-electron system (eV)
  ---------------------------------------------------
  alpha Z        PSCENC =       110.66729910
  Ewald energy   TEWEN  =     26483.33851024
  -Hartree energ DENC   =    -30414.47700959
  -exchange      EXHF   =         0.00000000
  -V(xc)+E(xc)   XCENC  =      -233.92419226
  PAW double counting   =      3772.01224470    -3269.57291537
  entropy T*S    EENTRO =        -0.00477312
  eigenvalues    EBANDS =      -691.59552002
  atomic energy  EATOM  =      4121.59051638
  Solvation  Ediel_sol  =         0.00000000
  ---------------------------------------------------
  free energy    TOTEN  =      -121.96583995 eV

  energy without entropy =     -121.96106682  energy(sigma->0) =     -121.96345339


--------------------------------------------------------------------------------------------------------




--------------------------------------- Iteration      1(   9)  ---------------------------------------


    POTLOK:  cpu time    0.0096: real time    0.0103
    SETDIJ:  cpu time    0.0021: real time    0.0025
    EDDIAG:  cpu time    0.3647: real time    0.3696
  RMM-DIIS:  cpu time    1.0494: real time    1.0510
    ORTHCH:  cpu time    0.0390: real time    0.0391
       DOS:  cpu time    0.0008: real time    0.0008
    CHARGE:  cpu time    0.1033: real time    0.1034
    MIXING:  cpu time    0.0010: real time    0.0010
    --------------------------------------------
      LOOP:  cpu time    1.5700: real time    1.5776

 eigenvalue-minimisations  :  2000
 total energy-change (2. order) : 0.1464748E+02  (-0.6983618E+01)
 number of electron      74.0000014 magnetization 
 augmentation part        5.9401425 magnetization 

 Broyden mixing:
  rms(total) = 0.70747E+00    rms(broyden)= 0.70654E+00
  rms(prec ) = 0.71536E+00
  weight for this iteration     100.00

 eigenvalues of (default mixing * dielectric matrix)
  average eigenvalue GAMMA=   0.8467
  0.8467

 Free energy of the ion-electron system (eV)
  ---------------------------------------------------
  alpha Z        PSCENC =       110.66729910
  Ewald energy   TEWEN  =     26483.33851024
  -Hartree energ DENC   =    -30667.16569399
  -exchange      EXHF   =         0.00000000
  -V(xc)+E(xc)   XCENC  =      -221.79347415
  PAW double counting   =      4422.27186977    -3922.94719412
  entropy T*S    EENTRO =        -0.00363301
  eigenvalues    EBANDS =      -433.27655669
  atomic energy  EATOM  =      4121.59051638
  Solvation  Ediel_sol  =         0.00000000
  ---------------------------------------------------
  free energy    TOTEN  =      -107.31835648 eV

  energy without entropy =     -107.31472346  energy(sigma->0) =     -107.31653997


--------------------------------------------------------------------------------------------------------




--------------------------------------- Iteration      1(  10)  ---------------------------------------


    POTLOK:  cpu time    0.0114: real time    0.0115
    SETDIJ:  cpu time    0.0023: real time    0.0023
    EDDIAG:  cpu time    0.2827: real time    0.2830
  RMM-DIIS:  cpu time    1.2012: real time    1.2028
    ORTHCH:  cpu time    0.0329: real time    0.0329
       DOS:  cpu time    0.0007: real time    0.0007
    CHARGE:  cpu time    0.0819: real time    0.0820
    MIXING:  cpu time    0.0010: real time    0.0007
    --------------------------------------------
      LOOP:  cpu time    1.6139: real time    1.6159

 eigenvalue-minimisations  :  2005
 total energy-change (2. order) : 0.2711055E+00  (-0.6271429E-01)
 number of electron      74.0000014 magnetization 
 augmentation part        5.9351066 magnetization 

 Broyden mixing:
  rms(total) = 0.45887E+00    rms(broyden)= 0.45883E+00
  rms(prec ) = 0.46484E+00
  weight for this iteration     100.00

 eigenvalues of (default mixing * dielectric matrix)
  average eigenvalue GAMMA=   1.6576
  1.0100  2.3052

 Free energy of the ion-electron system (eV)
  ---------------------------------------------------
  alpha Z        PSCENC =       110.66729910
  Ewald energy   TEWEN  =     26483.33851024
  -Hartree energ DENC   =    -30658.50590694
  -exchange      EXHF   =         0.00000000
  -V(xc)+E(xc)   XCENC  =      -221.44123421
  PAW double counting   =      4617.05658298    -4117.42526190
  entropy T*S    EENTRO =        -0.00357101
  eigenvalues    EBANDS =      -442.32418559
  atomic energy  EATOM  =      4121.59051638
  Solvation  Ediel_sol  =         0.00000000
  ---------------------------------------------------
  free energy    TOTEN  =      -107.04725095 eV

  energy without entropy =     -107.04367994  energy(sigma->0) =     -107.04546545


--------------------------------------------------------------------------------------------------------




--------------------------------------- Iteration      1(  11)  ---------------------------------------


    POTLOK:  cpu time    0.0103: real time    0.0107
    SETDIJ:  cpu time    0.0023: real time    0.0023
    EDDIAG:  cpu time    0.3240: real time    0.3250
  RMM-DIIS:  cpu time    1.2920: real time    1.2938
    ORTHCH:  cpu time    0.0329: real time    0.0329
       DOS:  cpu time    0.0008: real time    0.0008
    CHARGE:  cpu time    0.0834: real time    0.0835
    MIXING:  cpu time    0.0009: real time    0.0009
    --------------------------------------------
      LOOP:  cpu time    1.7468: real time    1.7500

 eigenvalue-minimisations  :  2000
 total energy-change (2. order) : 0.7944152E-01  (-0.5793842E-01)
 number of electron      74.0000014 magnetization 
 augmentation part        6.0168074 magnetization 

 Broyden mixing:
  rms(total) = 0.99956E-01    rms(broyden)= 0.99908E-01
  rms(prec ) = 0.10282E+00
  weight for this iteration     100.00

 eigenvalues of (default mixing * dielectric matrix)
  average eigenvalue GAMMA=   1.4293
  2.4881  0.8999  0.8999

 Free energy of the ion-electron system (eV)
  ---------------------------------------------------
  alpha Z        PSCENC =       110.66729910
  Ewald energy   TEWEN  =     26483.33851024
  -Hartree energ DENC   =    -30640.98474731
  -exchange      EXHF   =         0.00000000
  -V(xc)+E(xc)   XCENC  =      -220.63964255
  PAW double counting   =      4950.70699645    -4450.63771180
  entropy T*S    EENTRO =        -0.00356509
  eigenvalues    EBANDS =      -461.00546486
  atomic energy  EATOM  =      4121.59051638
  Solvation  Ediel_sol  =         0.00000000
  ---------------------------------------------------
  free energy    TOTEN  =      -106.96780944 eV

  energy without entropy =     -106.96424435  energy(sigma->0) =     -106.96602689


--------------------------------------------------------------------------------------------------------




--------------------------------------- Iteration      1(  12)  ---------------------------------------


    POTLOK:  cpu time    0.0107: real time    0.0108
    SETDIJ:  cpu time    0.0024: real time    0.0024
    EDDIAG:  cpu time    0.3010: real time    0.3015
  RMM-DIIS:  cpu time    1.3075: real time    1.3116
    ORTHCH:  cpu time    0.0325: real time    0.0325
       DOS:  cpu time    0.0008: real time    0.0008
    CHARGE:  cpu time    0.0998: real time    0.1001
    MIXING:  cpu time    0.0075: real time    0.0075
    --------------------------------------------
      LOOP:  cpu time    1.7622: real time    1.7671

 eigenvalue-minimisations  :  2002
 total energy-change (2. order) : 0.2451255E-01  (-0.6900365E-02)
 number of electron      74.0000014 magnetization 
 augmentation part        5.9846033 magnetization 

 Broyden mixing:
  rms(total) = 0.37972E-01    rms(broyden)= 0.37968E-01
  rms(prec ) = 0.38874E-01
  weight for this iteration     100.00

 eigenvalues of (default mixing * dielectric matrix)
  average eigenvalue GAMMA=   1.7942
  0.9247  0.9247  2.9568  2.3706

 Free energy of the ion-electron system (eV)
  ---------------------------------------------------
  alpha Z        PSCENC =       110.66729910
  Ewald energy   TEWEN  =     26483.33851024
  -Hartree energ DENC   =    -30645.42289630
  -exchange      EXHF   =         0.00000000
  -V(xc)+E(xc)   XCENC  =      -220.11488525
  PAW double counting   =      4972.55910366    -4472.59772566
  entropy T*S    EENTRO =        -0.00356617
  eigenvalues    EBANDS =      -456.95965289
  atomic energy  EATOM  =      4121.59051638
  Solvation  Ediel_sol  =         0.00000000
  ---------------------------------------------------
  free energy    TOTEN  =      -106.94329689 eV

  energy without entropy =     -106.93973072  energy(sigma->0) =     -106.94151380


--------------------------------------------------------------------------------------------------------




--------------------------------------- Iteration      1(  13)  ---------------------------------------


    POTLOK:  cpu time    0.0104: real time    0.0105
    SETDIJ:  cpu time    0.0024: real time    0.0024
    EDDIAG:  cpu time    0.3036: real time    0.3057
  RMM-DIIS:  cpu time    1.2232: real time    1.2263
    ORTHCH:  cpu time    0.0364: real time    0.0365
       DOS:  cpu time    0.0008: real time    0.0008
    CHARGE:  cpu time    0.0946: real time    0.0947
    MIXING:  cpu time    0.0015: real time    0.0015
    --------------------------------------------
      LOOP:  cpu time    1.6729: real time    1.6784

 eigenvalue-minimisations  :  2002
 total energy-change (2. order) :-0.4781109E-02  (-0.8272397E-02)
 number of electron      74.0000014 magnetization 
 augmentation part        5.9460501 magnetization 

 Broyden mixing:
  rms(total) = 0.45971E-01    rms(broyden)= 0.45950E-01
  rms(prec ) = 0.46982E-01
  weight for this iteration     100.00

 eigenvalues of (default mixing * dielectric matrix)
  average eigenvalue GAMMA=   1.6392
  2.5980  2.5980  0.9370  1.0315  1.0315

 Free energy of the ion-electron system (eV)
  ---------------------------------------------------
  alpha Z        PSCENC =       110.66729910
  Ewald energy   TEWEN  =     26483.33851024
  -Hartree energ DENC   =    -30647.67558282
  -exchange      EXHF   =         0.00000000
  -V(xc)+E(xc)   XCENC  =      -219.70624000
  PAW double counting   =      4950.59258505    -4450.76096450
  entropy T*S    EENTRO =        -0.00356829
  eigenvalues    EBANDS =      -454.99063316
  atomic energy  EATOM  =      4121.59051638
  Solvation  Ediel_sol  =         0.00000000
  ---------------------------------------------------
  free energy    TOTEN  =      -106.94807800 eV

  energy without entropy =     -106.94450971  energy(sigma->0) =     -106.94629385


--------------------------------------------------------------------------------------------------------




--------------------------------------- Iteration      1(  14)  ---------------------------------------


    POTLOK:  cpu time    0.0112: real time    0.0125
    SETDIJ:  cpu time    0.0023: real time    0.0031
    EDDIAG:  cpu time    0.3144: real time    0.3148
  RMM-DIIS:  cpu time    1.3192: real time    1.3246
    ORTHCH:  cpu time    0.0347: real time    0.0347
       DOS:  cpu time    0.0008: real time    0.0008
    CHARGE:  cpu time    0.0834: real time    0.0836
    MIXING:  cpu time    0.0010: real time    0.0010
    --------------------------------------------
      LOOP:  cpu time    1.7670: real time    1.7751

 eigenvalue-minimisations  :  2000
 total energy-change (2. order) : 0.5283269E-02  (-0.2299749E-02)
 number of electron      74.0000014 magnetization 
 augmentation part        5.9676309 magnetization 

 Broyden mixing:
  rms(total) = 0.26914E-02    rms(broyden)= 0.26420E-02
  rms(prec ) = 0.27558E-02
  weight for this iteration     100.00

 eigenvalues of (default mixing * dielectric matrix)
  average eigenvalue GAMMA=   1.6200
  2.8063  2.4971  1.5093  0.9243  0.9915  0.9915

 Free energy of the ion-electron system (eV)
  ---------------------------------------------------
  alpha Z        PSCENC =       110.66729910
  Ewald energy   TEWEN  =     26483.33851024
  -Hartree energ DENC   =    -30643.57086371
  -exchange      EXHF   =         0.00000000
  -V(xc)+E(xc)   XCENC  =      -219.93667529
  PAW double counting   =      4940.61122164    -4440.71513155
  entropy T*S    EENTRO =        -0.00356731
  eigenvalues    EBANDS =      -458.92410422
  atomic energy  EATOM  =      4121.59051638
  Solvation  Ediel_sol  =         0.00000000
  ---------------------------------------------------
  free energy    TOTEN  =      -106.94279473 eV

  energy without entropy =     -106.93922741  energy(sigma->0) =     -106.94101107


--------------------------------------------------------------------------------------------------------




--------------------------------------- Iteration      1(  15)  ---------------------------------------


    POTLOK:  cpu time    0.0106: real time    0.0107
    SETDIJ:  cpu time    0.0021: real time    0.0021
    EDDIAG:  cpu time    0.3083: real time    0.3087
  RMM-DIIS:  cpu time    1.1975: real time    1.1991
    ORTHCH:  cpu time    0.0328: real time    0.0328
       DOS:  cpu time    0.0008: real time    0.0008
    CHARGE:  cpu time    0.0835: real time    0.0836
    MIXING:  cpu time    0.0009: real time    0.0009
    --------------------------------------------
      LOOP:  cpu time    1.6366: real time    1.6387

 eigenvalue-minimisations  :  1821
 total energy-change (2. order) :-0.1187100E-04  (-0.3114059E-04)
 number of electron      74.0000014 magnetization 
 augmentation part        5.9680408 magnetization 

 Broyden mixing:
  rms(total) = 0.17149E-02    rms(broyden)= 0.17116E-02
  rms(prec ) = 0.17781E-02
  weight for this iteration     100.00

 eigenvalues of (default mixing * dielectric matrix)
  average eigenvalue GAMMA=   1.6808
  2.9308  2.4199  2.4199  0.9578  0.9578  1.0396  1.0396

 Free energy of the ion-electron system (eV)
  ---------------------------------------------------
  alpha Z        PSCENC =       110.66729910
  Ewald energy   TEWEN  =     26483.33851024
  -Hartree energ DENC   =    -30643.49905828
  -exchange      EXHF   =         0.00000000
  -V(xc)+E(xc)   XCENC  =      -219.92460730
  PAW double counting   =      4940.73984302    -4440.84660794
  entropy T*S    EENTRO =        -0.00356731
  eigenvalues    EBANDS =      -459.00513451
  atomic energy  EATOM  =      4121.59051638
  Solvation  Ediel_sol  =         0.00000000
  ---------------------------------------------------
  free energy    TOTEN  =      -106.94280660 eV

  energy without entropy =     -106.93923929  energy(sigma->0) =     -106.94102294


--------------------------------------------------------------------------------------------------------




--------------------------------------- Iteration      1(  16)  ---------------------------------------


    POTLOK:  cpu time    0.0106: real time    0.0107
    SETDIJ:  cpu time    0.0023: real time    0.0023
    EDDIAG:  cpu time    0.3501: real time    0.3512
  RMM-DIIS:  cpu time    1.0825: real time    1.0849
    ORTHCH:  cpu time    0.0360: real time    0.0374
       DOS:  cpu time    0.0008: real time    0.0008
    --------------------------------------------
      LOOP:  cpu time    1.4823: real time    1.4872

 eigenvalue-minimisations  :  1718
 total energy-change (2. order) :-0.5757205E-05  (-0.5053036E-05)
 number of electron      74.0000014 magnetization 
 augmentation part        5.9680408 magnetization 

 Free energy of the ion-electron system (eV)
  ---------------------------------------------------
  alpha Z        PSCENC =       110.66729910
  Ewald energy   TEWEN  =     26483.33851024
  -Hartree energ DENC   =    -30643.60276107
  -exchange      EXHF   =         0.00000000
  -V(xc)+E(xc)   XCENC  =      -219.91672839
  PAW double counting   =      4942.01712660    -4442.12515579
  entropy T*S    EENTRO =        -0.00356725
  eigenvalues    EBANDS =      -458.90805217
  atomic energy  EATOM  =      4121.59051638
  Solvation  Ediel_sol  =         0.00000000
  ---------------------------------------------------
  free energy    TOTEN  =      -106.94281236 eV

  energy without entropy =     -106.93924511  energy(sigma->0) =     -106.94102873


--------------------------------------------------------------------------------------------------------




 average (electrostatic) potential at core
  the test charge radii are     0.7215  1.0714
  (the norm of the test charge is              1.0000)
       1 -73.7016       2 -73.6916       3 -73.7012       4 -73.7983       5 -73.6940
       6 -73.6919       7 -73.6916       8 -73.6933       9 -73.7992      10 -39.4317
      11 -39.2444      12 -39.2432      13 -39.4326      14 -39.2883      15 -39.2479
      16 -39.2427      17 -39.2434      18 -39.2474      19 -39.2885
 
 
 
 E-fermi :   3.0364     XC(G=0):  -7.6258     alpha+bet : -8.2245


 k-point     1 :       0.0625    0.0625    0.0000
  band No.  band energies     occupation 
      1     -17.9525      2.00000
      2     -17.8951      2.00000
      3     -17.7912      2.00000
      4     -17.6468      2.00000
      5     -17.4740      2.00000
      6     -17.2882      2.00000
      7     -17.1089      2.00000
      8     -16.9565      2.00000
      9     -16.8515      2.00000
     10      -5.2315      2.00000
     11      -5.0539      2.00000
     12      -4.7469      2.00000
     13      -4.3237      2.00000
     14      -3.8112      2.00000
     15      -3.2454      2.00000
     16      -2.6757      2.00000
     17      -2.1832      2.00000
     18      -1.9621      2.00000
     19      -1.9432      2.00000
     20      -1.8499      2.00000
     21      -1.8491      2.00000
     22      -1.7055      2.00000
     23      -1.6803      2.00000
     24      -1.6378      2.00000
     25      -1.6079      2.00000
     26      -1.5613      2.00000
     27      -1.5495      2.00000
     28      -1.4584      2.00000
     29      -1.4330      2.00000
     30      -1.3509      2.00000
     31      -1.2851      2.00000
     32      -1.2272      2.00000
     33      -1.1782      2.00000
     34      -1.1060      2.00000
     35      -1.0940      2.00000
     36      -1.0519      2.00000
     37       0.8453      2.00000
     38       0.8462      2.00000
     39       4.3322      0.00000
     40       4.6852      0.00000
     41       5.1325      0.00000
     42       5.5877      0.00000
     43       6.0290      0.00000
     44       6.4733      0.00000
     45       6.8531      0.00000
     46       7.1455      0.00000
     47       7.2753      0.00000
     48       7.3604      0.00000
     49       7.5245      0.00000
     50       8.6891      0.00000

 k-point     2 :       0.1875    0.0625   -0.0000
  band No.  band energies     occupation 
      1     -17.6393      2.00000
      2     -17.5932      2.00000
      3     -17.5073      2.00000
      4     -17.3869      2.00000
      5     -17.2432      2.00000
      6     -17.0895      2.00000
      7     -16.9424      2.00000
      8     -16.8180      2.00000
      9     -16.7325      2.00000
     10      -4.7653      2.00000
     11      -4.6531      2.00000
     12      -4.4696      2.00000
     13      -4.2373      2.00000
     14      -3.9811      2.00000
     15      -3.7197      2.00000
     16      -3.4725      2.00000
     17      -3.2603      2.00000
     18      -3.0887      2.00000
     19      -2.9576      2.00000
     20      -2.9103      2.00000
     21      -2.7530      2.00000
     22      -2.5135      2.00000
     23      -2.2286      2.00000
     24      -1.9440      2.00000
     25      -1.8902      2.00000
     26      -1.8628      2.00000
     27      -1.7966      2.00000
     28      -1.7340      2.00000
     29      -1.6359      2.00000
     30      -1.6258      2.00000
     31      -1.5334      2.00000
     32      -1.4781      2.00000
     33      -1.3917      2.00000
     34      -1.3857      2.00000
     35      -1.3141      2.00000
     36      -1.2159      2.00000
     37       1.5038      2.00000
     38       1.5045      2.00000
     39       5.6867      0.00000
     40       5.9258      0.00000
     41       6.2633      0.00000
     42       6.6205      0.00000
     43       6.9657      0.00000
     44       7.3720      0.00000
     45       7.8102      0.00000
     46       8.2326      0.00000
     47       8.3951      0.00000
     48       8.5533      0.00000
     49       8.6068      0.00000
     50      10.4019      0.00000

 k-point     3 :       0.3125    0.0625    0.0000
  band No.  band energies     occupation 
      1     -17.2060      2.00000
      2     -17.1804      2.00000
      3     -17.1248      2.00000
      4     -17.0450      2.00000
      5     -16.9498      2.00000
      6     -16.8487      2.00000
      7     -16.7528      2.00000
      8     -16.6720      2.00000
      9     -16.6164      2.00000
     10      -4.7879      2.00000
     11      -4.6908      2.00000
     12      -4.5974      2.00000
     13      -4.5408      2.00000
     14      -4.4749      2.00000
     15      -4.3602      2.00000
     16      -4.2707      2.00000
     17      -4.1374      2.00000
     18      -4.0944      2.00000
     19      -3.8232      2.00000
     20      -3.4576      2.00000
     21      -3.0524      2.00000
     22      -2.6502      2.00000
     23      -2.3030      2.00000
     24      -2.1859      2.00000
     25      -2.1705      2.00000
     26      -2.1070      2.00000
     27      -2.0503      2.00000
     28      -2.0261      2.00000
     29      -1.9860      2.00000
     30      -1.8928      2.00000
     31      -1.8160      2.00000
     32      -1.7549      2.00000
     33      -1.6458      2.00000
     34      -1.6031      2.00000
     35      -1.5565      2.00000
     36      -1.4531      2.00000
     37       2.6257      2.00000
     38       2.6264      2.00000
     39       6.7429      0.00000
     40       6.9054      0.00000
     41       7.1468      0.00000
     42       7.4462      0.00000
     43       7.7647      0.00000
     44       8.0514      0.00000
     45       8.3248      0.00000
     46       8.6819      0.00000
     47       8.8523      0.00000
     48       9.0169      0.00000
     49       9.1200      0.00000
     50       9.2603      0.00000

 k-point     4 :       0.4375    0.0625   -0.0000
  band No.  band energies     occupation 
      1     -16.8827      2.00000
      2     -16.8807      2.00000
      3     -16.8484      2.00000
      4     -16.8138      2.00000
      5     -16.7708      2.00000
      6     -16.7235      2.00000
      7     -16.6774      2.00000
      8     -16.6373      2.00000
      9     -16.6085      2.00000
     10      -5.3471      2.00000
     11      -5.2443      2.00000
     12      -5.0770      2.00000
     13      -4.8818      2.00000
     14      -4.8474      2.00000
     15      -4.7600      2.00000
     16      -4.7140      2.00000
     17      -4.6170      2.00000
     18      -4.5906      2.00000
     19      -3.0653      2.00000
     20      -2.9289      2.00000
     21      -2.7256      2.00000
     22      -2.6231      2.00000
     23      -2.5083      2.00000
     24      -2.3672      2.00000
     25      -2.3563      2.00000
     26      -2.3302      2.00000
     27      -2.2765      2.00000
     28      -2.2367      2.00000
     29      -2.1284      2.00000
     30      -2.0677      2.00000
     31      -1.9640      2.00000
     32      -1.9027      2.00000
     33      -1.7704      2.00000
     34      -1.7592      2.00000
     35      -1.6650      2.00000
     36      -1.6194      2.00000
     37       4.0771      0.00000
     38       4.0778      0.00000
     39       5.7138      0.00000
     40       5.7146      0.00000
     41       7.0736      0.00000
     42       7.4587      0.00000
     43       7.9624      0.00000
     44       8.3652      0.00000
     45       8.4558      0.00000
     46       8.5830      0.00000
     47       8.7603      0.00000
     48       8.8293      0.00000
     49       8.9433      0.00000
     50       8.9821      0.00000

 k-point     5 :      -0.4375    0.0625    0.0000
  band No.  band energies     occupation 
      1     -17.0100      2.00000
      2     -16.9976      2.00000
      3     -16.9586      2.00000
      4     -16.9023      2.00000
      5     -16.8350      2.00000
      6     -16.7633      2.00000
      7     -16.6954      2.00000
      8     -16.6379      2.00000
      9     -16.5978      2.00000
     10      -5.1465      2.00000
     11      -5.0454      2.00000
     12      -4.8807      2.00000
     13      -4.7503      2.00000
     14      -4.6983      2.00000
     15      -4.6357      2.00000
     16      -4.5532      2.00000
     17      -4.4493      2.00000
     18      -4.4230      2.00000
     19      -3.4598      2.00000
     20      -3.2170      2.00000
     21      -2.8805      2.00000
     22      -2.5503      2.00000
     23      -2.3417      2.00000
     24      -2.2974      2.00000
     25      -2.2665      2.00000
     26      -2.2444      2.00000
     27      -2.2248      2.00000
     28      -2.1681      2.00000
     29      -2.0750      2.00000
     30      -2.0080      2.00000
     31      -1.9109      2.00000
     32      -1.8508      2.00000
     33      -1.7307      2.00000
     34      -1.6992      2.00000
     35      -1.6331      2.00000
     36      -1.5555      2.00000
     37       3.3550      0.00000
     38       3.3557      0.00000
     39       6.4950      0.00000
     40       6.5010      0.00000
     41       7.0417      0.00000
     42       7.4288      0.00000
     43       7.8992      0.00000
     44       8.3342      0.00000
     45       8.5612      0.00000
     46       8.6306      0.00000
     47       8.7652      0.00000
     48       8.8382      0.00000
     49       9.0478      0.00000
     50       9.1096      0.00000

 k-point     6 :      -0.3125    0.0625    0.0000
  band No.  band energies     occupation 
      1     -17.4261      2.00000
      2     -17.3892      2.00000
      3     -17.3170      2.00000
      4     -17.2153      2.00000
      5     -17.0939      2.00000
      6     -16.9646      2.00000
      7     -16.8413      2.00000
      8     -16.7374      2.00000
      9     -16.6661      2.00000
     10      -4.5403      2.00000
     11      -4.4525      2.00000
     12      -4.4062      2.00000
     13      -4.3678      2.00000
     14      -4.2538      2.00000
     15      -4.0941      2.00000
     16      -3.9270      2.00000
     17      -3.7995      2.00000
     18      -3.6756      2.00000
     19      -3.5755      2.00000
     20      -3.3586      2.00000
     21      -3.0422      2.00000
     22      -2.6745      2.00000
     23      -2.3101      2.00000
     24      -2.0484      2.00000
     25      -2.0420      2.00000
     26      -1.9835      2.00000
     27      -1.9478      2.00000
     28      -1.8802      2.00000
     29      -1.8028      2.00000
     30      -1.7365      2.00000
     31      -1.7057      2.00000
     32      -1.6269      2.00000
     33      -1.5271      2.00000
     34      -1.4931      2.00000
     35      -1.4426      2.00000
     36      -1.3327      2.00000
     37       2.0037      2.00000
     38       2.0044      2.00000
     39       6.3347      0.00000
     40       6.5449      0.00000
     41       6.8467      0.00000
     42       7.1662      0.00000
     43       7.4492      0.00000
     44       7.7556      0.00000
     45       8.1847      0.00000
     46       8.6498      0.00000
     47       8.9188      0.00000
     48       9.0783      0.00000
     49       9.1389      0.00000
     50       9.6278      0.00000

 k-point     7 :      -0.1875    0.0625   -0.0000
  band No.  band energies     occupation 
      1     -17.8210      2.00000
      2     -17.7681      2.00000
      3     -17.6714      2.00000
      4     -17.5368      2.00000
      5     -17.3758      2.00000
      6     -17.2030      2.00000
      7     -17.0368      2.00000
      8     -16.8959      2.00000
      9     -16.7990      2.00000
     10      -5.0344      2.00000
     11      -4.8791      2.00000
     12      -4.6149      2.00000
     13      -4.2596      2.00000
     14      -3.8447      2.00000
     15      -3.4105      2.00000
     16      -3.0043      2.00000
     17      -2.6760      2.00000
     18      -2.4547      2.00000
     19      -2.3989      2.00000
     20      -2.3235      2.00000
     21      -2.2763      2.00000
     22      -2.1764      2.00000
     23      -2.0094      2.00000
     24      -1.8060      2.00000
     25      -1.7437      2.00000
     26      -1.7193      2.00000
     27      -1.6540      2.00000
     28      -1.5936      2.00000
     29      -1.5418      2.00000
     30      -1.4677      2.00000
     31      -1.3845      2.00000
     32      -1.3283      2.00000
     33      -1.2859      2.00000
     34      -1.2416      2.00000
     35      -1.1932      2.00000
     36      -1.1211      2.00000
     37       1.1207      2.00000
     38       1.1213      2.00000
     39       4.9686      0.00000
     40       5.2606      0.00000
     41       5.6517      0.00000
     42       6.0614      0.00000
     43       6.4656      0.00000
     44       6.9053      0.00000
     45       7.3088      0.00000
     46       7.6648      0.00000
     47       7.7767      0.00000
     48       7.8974      0.00000
     49       7.9756      0.00000
     50      10.8971      0.00000

 k-point     8 :      -0.0625    0.0625   -0.0000
  band No.  band energies     occupation 
      1     -18.0213      2.00000
      2     -17.9616      2.00000
      3     -17.8542      2.00000
      4     -17.7049      2.00000
      5     -17.5262      2.00000
      6     -17.3336      2.00000
      7     -17.1476      2.00000
      8     -16.9892      2.00000
      9     -16.8802      2.00000
     10      -5.3341      2.00000
     11      -5.1470      2.00000
     12      -4.8213      2.00000
     13      -4.3683      2.00000
     14      -3.8123      2.00000
     15      -3.1853      2.00000
     16      -2.5280      2.00000
     17      -1.9088      2.00000
     18      -1.7117      2.00000
     19      -1.6802      2.00000
     20      -1.6194      2.00000
     21      -1.5923      2.00000
     22      -1.5674      2.00000
     23      -1.5342      2.00000
     24      -1.5121      2.00000
     25      -1.4496      2.00000
     26      -1.4320      2.00000
     27      -1.3820      2.00000
     28      -1.3353      2.00000
     29      -1.2809      2.00000
     30      -1.2315      2.00000
     31      -1.2204      2.00000
     32      -1.1327      2.00000
     33      -1.1319      2.00000
     34      -1.0492      2.00000
     35      -1.0476      2.00000
     36      -0.9893      2.00000
     37       0.6863      2.00000
     38       0.6890      2.00000
     39       3.9392      0.00000
     40       4.3392      0.00000
     41       4.8253      0.00000
     42       5.3075      0.00000
     43       5.7659      0.00000
     44       6.2076      0.00000
     45       6.5719      0.00000
     46       6.8287      0.00000
     47       6.9449      0.00000
     48       7.1258      0.00000
     49       7.3012      0.00000
     50       8.4000      0.00000

 k-point     9 :       0.1875    0.1875    0.0000
  band No.  band energies     occupation 
      1     -17.2852      2.00000
      2     -17.2548      2.00000
      3     -17.1925      2.00000
      4     -17.1035      2.00000
      5     -16.9975      2.00000
      6     -16.8848      2.00000
      7     -16.7777      2.00000
      8     -16.6876      2.00000
      9     -16.6256      2.00000
     10      -4.4344      2.00000
     11      -4.4205      2.00000
     12      -4.3788      2.00000
     13      -4.3346      2.00000
     14      -4.2817      2.00000
     15      -4.1948      2.00000
     16      -4.0492      2.00000
     17      -3.9264      2.00000
     18      -3.8394      2.00000
     19      -3.8293      2.00000
     20      -3.3920      2.00000
     21      -3.1071      2.00000
     22      -2.7822      2.00000
     23      -2.4598      2.00000
     24      -2.3250      2.00000
     25      -2.3181      2.00000
     26      -2.2210      2.00000
     27      -2.1323      2.00000
     28      -2.1008      2.00000
     29      -2.0613      2.00000
     30      -1.9801      2.00000
     31      -1.9734      2.00000
     32      -1.9221      2.00000
     33      -1.8381      2.00000
     34      -1.7175      2.00000
     35      -1.5221      2.00000
     36      -1.3722      2.00000
     37       2.3984      2.00000
     38       2.3991      2.00000
     39       7.0108      0.00000
     40       7.1441      0.00000
     41       7.3786      0.00000
     42       7.6436      0.00000
     43       7.7702      0.00000
     44       7.9483      0.00000
     45       8.3896      0.00000
     46       8.9859      0.00000
     47       9.5652      0.00000
     48       9.7938      0.00000
     49       9.8328      0.00000
     50      10.0271      0.00000

 k-point    10 :       0.3125    0.1875    0.0000
  band No.  band energies     occupation 
      1     -16.9199      2.00000
      2     -16.9125      2.00000
      3     -16.8782      2.00000
      4     -16.8308      2.00000
      5     -16.7744      2.00000
      6     -16.7143      2.00000
      7     -16.6576      2.00000
      8     -16.6095      2.00000
      9     -16.5759      2.00000
     10      -4.8977      2.00000
     11      -4.8053      2.00000
     12      -4.6590      2.00000
     13      -4.5835      2.00000
     14      -4.5195      2.00000
     15      -4.4976      2.00000
     16      -4.4189      2.00000
     17      -4.3490      2.00000
     18      -4.1724      2.00000
     19      -3.5631      2.00000
     20      -3.3586      2.00000
     21      -3.1389      2.00000
     22      -2.9591      2.00000
     23      -2.8119      2.00000
     24      -2.7658      2.00000
     25      -2.7466      2.00000
     26      -2.6727      2.00000
     27      -2.5501      2.00000
     28      -2.5280      2.00000
     29      -2.3715      2.00000
     30      -2.3437      2.00000
     31      -2.1883      2.00000
     32      -2.0783      2.00000
     33      -1.9809      2.00000
     34      -1.8497      2.00000
     35      -1.7333      2.00000
     36      -1.6161      2.00000
     37       3.7812      0.00000
     38       3.7819      0.00000
     39       6.9915      0.00000
     40       6.9923      0.00000
     41       7.8933      0.00000
     42       8.1348      0.00000
     43       8.4682      0.00000
     44       8.7598      0.00000
     45       8.8280      0.00000
     46       9.0195      0.00000
     47       9.2928      0.00000
     48       9.6922      0.00000
     49       9.8343      0.00000
     50       9.8813      0.00000

 k-point    11 :       0.4375    0.1875    0.0000
  band No.  band energies     occupation 
      1     -16.8140      2.00000
      2     -16.8132      2.00000
      3     -16.7766      2.00000
      4     -16.7508      2.00000
      5     -16.7175      2.00000
      6     -16.6805      2.00000
      7     -16.6445      2.00000
      8     -16.6130      2.00000
      9     -16.5902      2.00000
     10      -5.0449      2.00000
     11      -4.9466      2.00000
     12      -4.7875      2.00000
     13      -4.6091      2.00000
     14      -4.5762      2.00000
     15      -4.5338      2.00000
     16      -4.4598      2.00000
     17      -4.4433      2.00000
     18      -4.3445      2.00000
     19      -3.3502      2.00000
     20      -3.2369      2.00000
     21      -3.1525      2.00000
     22      -3.0935      2.00000
     23      -3.0573      2.00000
     24      -2.9980      2.00000
     25      -2.8924      2.00000
     26      -2.7270      2.00000
     27      -2.5465      2.00000
     28      -2.4880      2.00000
     29      -2.3978      2.00000
     30      -2.3196      2.00000
     31      -2.1976      2.00000
     32      -2.1846      2.00000
     33      -2.0357      2.00000
     34      -1.8800      2.00000
[...]
      1     -16.6209      2.00000
      2     -16.6147      2.00000
      3     -16.5972      2.00000
      4     -16.5673      2.00000
      5     -16.5331      2.00000
      6     -16.4952      2.00000
      7     -16.4618      2.00000
      8     -16.4328      2.00000
      9     -16.4156      2.00000
     10      -4.6017      2.00000
     11      -4.5000      2.00000
     12      -4.3803      2.00000
     13      -4.3556      2.00000
     14      -4.3042      2.00000
     15      -4.2479      2.00000
     16      -4.1592      2.00000
     17      -4.0087      2.00000
     18      -3.8798      2.00000
     19      -3.5676      2.00000
     20      -3.4505      2.00000
     21      -3.3541      2.00000
     22      -3.1741      2.00000
     23      -3.0592      2.00000
     24      -2.9829      2.00000
     25      -2.9219      2.00000
     26      -2.8352      2.00000
     27      -2.6845      2.00000
     28      -2.4013      2.00000
     29      -2.3452      2.00000
     30      -2.1686      2.00000
     31      -2.0015      2.00000
     32      -1.8907      2.00000
     33      -1.8523      2.00000
     34      -1.7501      2.00000
     35      -1.6853      2.00000
     36      -1.5770      2.00000
     37       4.2904      0.00000
     38       4.2913      0.00000
     39       6.6507      0.00000
     40       6.6516      0.00000
     41       8.1819      0.00000
     42       8.1827      0.00000
     43       8.7306      0.00000
     44       8.8814      0.00000
     45       9.0933      0.00000
     46       9.1733      0.00000
     47       9.2815      0.00000
     48       9.5465      0.00000
     49       9.8805      0.00000
     50      10.1894      0.00000

 k-point    17 :      -0.4375    0.3125   -0.0000
  band No.  band energies     occupation 
      1     -16.8941      2.00000
      2     -16.8667      2.00000
      3     -16.8225      2.00000
      4     -16.7584      2.00000
      5     -16.6834      2.00000
      6     -16.6024      2.00000
      7     -16.5283      2.00000
      8     -16.4659      2.00000
      9     -16.4265      2.00000
     10      -4.7356      2.00000
     11      -4.6266      2.00000
     12      -4.4649      2.00000
     13      -4.4413      2.00000
     14      -4.3564      2.00000
     15      -4.2604      2.00000
     16      -4.2262      2.00000
     17      -4.1223      2.00000
     18      -4.0432      2.00000
     19      -3.4867      2.00000
     20      -3.2014      2.00000
     21      -2.8463      2.00000
     22      -2.5114      2.00000
     23      -2.3098      2.00000
     24      -2.2688      2.00000
     25      -2.2222      2.00000
     26      -2.1781      2.00000
     27      -2.1627      2.00000
     28      -2.0572      2.00000
     29      -2.0294      2.00000
     30      -1.8918      2.00000
     31      -1.8729      2.00000
     32      -1.7398      2.00000
     33      -1.7198      2.00000
     34      -1.5973      2.00000
     35      -1.4772      2.00000
     36      -1.3456      2.00000
     37       2.9194      0.00232
     38       2.9203      0.00213
     39       6.9835      0.00000
     40       6.9871      0.00000
     41       7.4861      0.00000
     42       7.7973      0.00000
     43       8.1742      0.00000
     44       8.5001      0.00000
     45       8.6896      0.00000
     46       8.8377      0.00000
     47       9.0831      0.00000
     48       9.3041      0.00000
     49       9.4476      0.00000
     50       9.5284      0.00000

 k-point    18 :      -0.3125    0.3125    0.0000
  band No.  band energies     occupation 
      1     -17.1668      2.00000
      2     -17.1243      2.00000
      3     -17.0573      2.00000
      4     -16.9638      2.00000
      5     -16.8545      2.00000
      6     -16.7372      2.00000
      7     -16.6285      2.00000
      8     -16.5373      2.00000
      9     -16.4783      2.00000
     10      -4.4303      2.00000
     11      -4.3994      2.00000
     12      -4.3277      2.00000
     13      -4.2748      2.00000
     14      -4.1709      2.00000
     15      -4.0829      2.00000
     16      -3.9265      2.00000
     17      -3.8200      2.00000
     18      -3.7133      2.00000
     19      -3.6434      2.00000
     20      -3.3245      2.00000
     21      -2.9300      2.00000
     22      -2.5178      2.00000
     23      -2.1344      2.00000
     24      -1.8869      2.00000
     25      -1.8453      2.00000
     26      -1.8358      2.00000
     27      -1.7820      2.00000
     28      -1.6944      2.00000
     29      -1.6643      2.00000
     30      -1.5925      2.00000
     31      -1.4850      2.00000
     32      -1.4829      2.00000
     33      -1.3813      2.00000
     34      -1.2956      2.00000
     35      -1.2850      2.00000
     36      -1.2408      2.00000
     37       2.0281      2.00000
     38       2.0290      2.00000
     39       6.6208      0.00000
     40       6.7985      0.00000
     41       7.0453      0.00000
     42       7.3163      0.00000
     43       7.5997      0.00000
     44       7.9093      0.00000
     45       8.2879      0.00000
     46       8.6694      0.00000
     47       8.8737      0.00000
     48       8.9273      0.00000
     49       9.1547      0.00000
     50       9.2604      0.00000

 k-point    19 :       0.4375    0.4375    0.0000
  band No.  band energies     occupation 
      1     -16.6537      2.00000
      2     -16.6484      2.00000
      3     -16.6320      2.00000
      4     -16.6030      2.00000
      5     -16.5688      2.00000
      6     -16.5290      2.00000
      7     -16.4924      2.00000
      8     -16.4598      2.00000
      9     -16.4396      2.00000
     10      -5.0900      2.00000
     11      -4.9756      2.00000
     12      -4.8041      2.00000
     13      -4.6043      2.00000
     14      -4.5867      2.00000
     15      -4.5069      2.00000
     16      -4.4480      2.00000
     17      -4.3858      2.00000
     18      -4.3527      2.00000
     19      -2.8477      2.00000
     20      -2.8276      2.00000
     21      -2.6964      2.00000
     22      -2.6574      2.00000
     23      -2.5344      2.00000
     24      -2.4872      2.00000
     25      -2.4010      2.00000
     26      -2.3572      2.00000
     27      -2.2141      2.00000
     28      -2.1294      2.00000
     29      -2.1087      2.00000
     30      -2.0886      2.00000
     31      -1.9320      2.00000
     32      -1.9202      2.00000
     33      -1.7920      2.00000
     34      -1.6811      2.00000
     35      -1.5581      2.00000
     36      -1.4922      2.00000
     37       4.2280      0.00000
     38       4.2290      0.00000
     39       5.4758      0.00000
     40       5.4766      0.00000
     41       7.6237      0.00000
     42       7.9649      0.00000
     43       8.4394      0.00000
     44       8.7598      0.00000
     45       8.8744      0.00000
     46       9.0167      0.00000
     47       9.0990      0.00000
     48       9.3417      0.00000
     49       9.3620      0.00000
     50       9.4889      0.00000

 k-point    20 :      -0.4375    0.4375    0.0000
  band No.  band energies     occupation 
      1     -16.7731      2.00000
      2     -16.7565      2.00000
      3     -16.7275      2.00000
      4     -16.6823      2.00000
      5     -16.6289      2.00000
      6     -16.5699      2.00000
      7     -16.5161      2.00000
      8     -16.4699      2.00000
      9     -16.4409      2.00000
     10      -5.1426      2.00000
     11      -5.0268      2.00000
     12      -4.8524      2.00000
     13      -4.6778      2.00000
     14      -4.6480      2.00000
     15      -4.5763      2.00000
     16      -4.4912      2.00000
     17      -4.4186      2.00000
     18      -4.3802      2.00000
     19      -3.0924      2.00000
     20      -2.9048      2.00000
     21      -2.6227      2.00000
     22      -2.3476      2.00000
     23      -2.2416      2.00000
     24      -2.1076      2.00000
     25      -2.0592      2.00000
     26      -2.0463      2.00000
     27      -2.0171      2.00000
     28      -1.9529      2.00000
     29      -1.8642      2.00000
     30      -1.7609      2.00000
     31      -1.7261      2.00000
     32      -1.6496      2.00000
     33      -1.5463      2.00000
     34      -1.4725      2.00000
     35      -1.4592      2.00000
     36      -1.4033      2.00000
     37       3.4703      0.00000
     38       3.4712      0.00000
     39       5.8385      0.00000
     40       5.8395      0.00000
     41       7.0937      0.00000
     42       7.4812      0.00000
     43       7.9727      0.00000
     44       8.4171      0.00000
     45       8.4878      0.00000
     46       8.6371      0.00000
     47       8.6970      0.00000
     48       8.8245      0.00000
     49       8.9537      0.00000
     50       9.0091      0.00000


--------------------------------------------------------------------------------------------------------


 soft charge-density along one line, spin component           1
         0         1         2         3         4         5         6         7         8         9
 total charge-density along one line
 
 pseudopotential strength for first ion, spin component:           1
 12.718 -15.516  -0.000  -0.000  -0.000   0.000   0.000   0.000
-15.516  18.954   0.000   0.000   0.000  -0.000  -0.000  -0.000
 -0.000   0.000  -9.018  -0.000  -0.000  10.939   0.000   0.000
 -0.000   0.000  -0.000  -9.018  -0.000   0.000  10.939   0.000
 -0.000   0.000  -0.000  -0.000  -9.018   0.000   0.000  10.939
  0.000  -0.000  10.939   0.000   0.000 -13.141  -0.000  -0.000
  0.000  -0.000   0.000  10.939   0.000  -0.000 -13.141  -0.000
  0.000  -0.000   0.000   0.000  10.939  -0.000  -0.000 -13.141
 total augmentation occupancy for first ion, spin component:           1
  2.606   0.365   0.000   0.000   0.000  -0.000  -0.000  -0.000
  0.365   0.069   0.000   0.000   0.000  -0.000  -0.000  -0.000
  0.000   0.000   2.163   0.000   0.000   0.261   0.000   0.000
  0.000   0.000   0.000   2.163   0.000   0.000   0.261   0.000
  0.000   0.000   0.000   0.000   2.163   0.000   0.000   0.261
 -0.000  -0.000   0.261   0.000   0.000   0.034   0.000   0.000
 -0.000  -0.000   0.000   0.261   0.000   0.000   0.034   0.000
 -0.000  -0.000   0.000   0.000   0.261   0.000   0.000   0.034


------------------------ aborting loop because EDIFF is reached ----------------------------------------


    CHARGE:  cpu time    0.0835: real time    0.0840
    FORLOC:  cpu time    0.0012: real time    0.0021
    FORNL :  cpu time    0.4740: real time    0.4775
    STRESS:  cpu time    1.4399: real time    1.4497
    FORCOR:  cpu time    0.0122: real time    0.0122
    FORHAR:  cpu time    0.0044: real time    0.0044
    MIXING:  cpu time    0.0005: real time    0.0005
    OFIELD:  cpu time    0.0000: real time    0.0000

  FORCE on cell =-STRESS in cart. coord.  units (eV):
  Direction    XX          YY          ZZ          XY          YZ          ZX
  --------------------------------------------------------------------------------------
  Alpha Z   110.66730   110.66730   110.66730
  Ewald    8833.87925  8833.87922  8833.87925-19812.44255-19812.44255-19812.44250
  Hartree 10224.60391 10224.60391 10224.60391-19590.49579-19590.49579-19590.49578
  E(xc)    -330.96616  -330.96619  -330.96616     0.01215     0.01215     0.01216
  Local  -20016.85872-20016.85820-20016.85872 39402.03153 39402.03153 39402.03196
  n-local  -155.84869  -161.12622  -166.52357    -2.38341     1.84293    -0.27368
  augment    61.29143    61.29146    61.29143    -0.00138    -0.00138    -0.00135
  Kinetic  1266.19240  1278.67483  1291.84773    15.54249   -13.43779     0.79966
  Fock        0.00000     0.00000     0.00000     0.00000     0.00000     0.00000
  -------------------------------------------------------------------------------------
  Total       0.35600     0.35600     0.35600    -0.19911    -0.19911    -0.19911
  in kB       1.96785     1.96785     1.96785    -1.10066    -1.10066    -1.10066
  external pressure =        1.97 kB  Pullay stress =        0.00 kB


 VOLUME and BASIS-vectors are now :
 -----------------------------------------------------------------------------
  energy-cutoff  :      520.00
  volume of cell :      289.84
      direct lattice vectors                 reciprocal lattice vectors
     2.124436000 -2.124436000  0.000000000     0.313808779 -0.156904389 -0.156904389
     0.000000000  2.124436000 -2.124436000     0.156904389  0.156904389 -0.313808779
    21.406867000 21.406867000 21.406867000     0.015571327  0.015571327  0.015571327

  length of vectors
     3.004406204  3.004406204 37.077781275     0.384335692  0.384335692  0.026970330


 FORCES acting on ions
    electron-ion (+dipol)            ewald-force                    non-local-force                 convergence-correction
 -----------------------------------------------------------------------------------------------
   0.748E+03 0.748E+03 0.748E+03   -.748E+03 -.748E+03 -.748E+03   0.326E-01 0.326E-01 0.326E-01   0.128E-02 0.128E-02 0.128E-02
   -.418E-02 -.642E-02 -.418E-02   -.635E-03 -.635E-03 -.635E-03   -.813E-19 0.108E-18 -.813E-19   -.688E-06 -.690E-06 -.688E-06
   -.748E+03 -.748E+03 -.748E+03   0.748E+03 0.748E+03 0.748E+03   -.326E-01 -.326E-01 -.326E-01   -.128E-02 -.128E-02 -.128E-02
   0.993E+03 0.993E+03 0.993E+03   -.994E+03 -.994E+03 -.994E+03   0.953E+00 0.953E+00 0.953E+00   -.726E-02 -.726E-02 -.726E-02
   0.499E+03 0.499E+03 0.499E+03   -.499E+03 -.499E+03 -.499E+03   -.286E-02 -.286E-02 -.286E-02   -.385E-02 -.385E-02 -.385E-02
   0.249E+03 0.249E+03 0.249E+03   -.249E+03 -.249E+03 -.249E+03   -.297E-02 -.297E-02 -.297E-02   0.116E-01 0.116E-01 0.116E-01
   -.249E+03 -.249E+03 -.249E+03   0.249E+03 0.249E+03 0.249E+03   0.297E-02 0.297E-02 0.297E-02   -.116E-01 -.116E-01 -.116E-01
   -.499E+03 -.499E+03 -.499E+03   0.499E+03 0.499E+03 0.499E+03   0.286E-02 0.286E-02 0.286E-02   0.384E-02 0.384E-02 0.384E-02
   -.993E+03 -.993E+03 -.993E+03   0.994E+03 0.994E+03 0.994E+03   -.953E+00 -.953E+00 -.953E+00   0.726E-02 0.726E-02 0.726E-02
   0.362E+03 0.362E+03 0.362E+03   -.362E+03 -.362E+03 -.362E+03   -.403E+00 -.403E+00 -.403E+00   -.581E-03 -.581E-03 -.581E-03
   0.125E+03 0.125E+03 0.125E+03   -.125E+03 -.125E+03 -.125E+03   -.107E-02 -.107E-02 -.107E-02   0.550E-03 0.550E-03 0.550E-03
   -.125E+03 -.125E+03 -.125E+03   0.125E+03 0.125E+03 0.125E+03   0.107E-02 0.107E-02 0.107E-02   -.551E-03 -.551E-03 -.551E-03
   -.362E+03 -.362E+03 -.362E+03   0.362E+03 0.362E+03 0.362E+03   0.403E+00 0.403E+00 0.403E+00   0.581E-03 0.581E-03 0.581E-03
   0.291E+03 0.291E+03 0.291E+03   -.291E+03 -.291E+03 -.291E+03   -.358E-01 -.358E-01 -.358E-01   -.255E-03 -.255E-03 -.255E-03
   0.208E+03 0.208E+03 0.208E+03   -.208E+03 -.208E+03 -.208E+03   0.677E-03 0.677E-03 0.677E-03   -.152E-03 -.152E-03 -.152E-03
   0.416E+02 0.416E+02 0.416E+02   -.416E+02 -.416E+02 -.416E+02   -.197E-02 -.197E-02 -.197E-02   0.421E-03 0.421E-03 0.421E-03
   -.416E+02 -.416E+02 -.416E+02   0.416E+02 0.416E+02 0.416E+02   0.197E-02 0.197E-02 0.197E-02   -.421E-03 -.421E-03 -.421E-03
   -.208E+03 -.208E+03 -.208E+03   0.208E+03 0.208E+03 0.208E+03   -.677E-03 -.677E-03 -.677E-03   0.151E-03 0.151E-03 0.151E-03
   -.291E+03 -.291E+03 -.291E+03   0.291E+03 0.291E+03 0.291E+03   0.358E-01 0.358E-01 0.358E-01   0.255E-03 0.255E-03 0.255E-03
 -----------------------------------------------------------------------------------------------
   -.920E-02 -.280E-01 -.920E-02   0.227E-12 0.114E-12 0.739E-12   -.167E-15 -.118E-15 -.111E-15   -.734E-05 -.734E-05 -.734E-05
 
 
 POSITION                                       TOTAL-FORCE (eV/Angst)
 -----------------------------------------------------------------------------------
      3.76737      2.70516      1.64294        -0.001011     -0.001011     -0.001011
      8.01288      6.95066      5.88844        -0.000000      0.000000      0.000000
     12.25838     11.19616     10.13395         0.001011      0.001011      0.001011
      1.64476      2.70698     -0.47967        -0.002594     -0.002594     -0.002594
      5.89179      2.70514      3.76736        -0.002819     -0.002819     -0.002819
      5.89028      6.95250      3.76584        -0.001785     -0.001785     -0.001785
     10.13546      6.94880      8.01102         0.001785      0.001785      0.001785
     10.13396     11.19618      8.00953         0.002819      0.002819      0.002819
     14.38099     11.19434     12.25656         0.002594      0.002594      0.002594
      1.61530      0.55309     -0.50913         0.001557      0.001557      0.001557
      5.89107      4.82885      3.76663        -0.001584     -0.001584     -0.001584
     10.13469      9.07247      8.01025         0.001584      0.001584      0.001584
     14.41043     13.34821     12.28599        -0.001557     -0.001557     -0.001557
      3.76723      0.58057      1.64279         0.001046      0.001046      0.001046
      3.76751      4.82972      1.64307         0.000175      0.000175      0.000175
      8.01395      4.82730      5.88951        -0.003694     -0.003694     -0.003694
      8.01181      9.07402      5.88737         0.003694      0.003694      0.003694
     12.25823      9.07157     10.13379        -0.000175     -0.000175     -0.000175
     12.25853     13.32075     10.13409        -0.001046     -0.001046     -0.001046
 -----------------------------------------------------------------------------------
    total drift:                               -0.009210     -0.028043     -0.009210


--------------------------------------------------------------------------------------------------------



  FREE ENERGIE OF THE ION-ELECTRON SYSTEM (eV)
  ---------------------------------------------------
  free  energy   TOTEN  =      -106.96751784 eV

  energy  without entropy=     -106.96395910  energy(sigma->0) =     -106.96573847
 
 d Force = 0.9488168E-05[ 0.777E-05, 0.112E-04]  d Energy = 0.1016705E-04-0.679E-06
 d Force =-0.1045680E+01[-0.105E+01,-0.105E+01]  d Ewald  =-0.1045680E+01-0.982E-09


--------------------------------------------------------------------------------------------------------


    POTLOK:  cpu time    0.0129: real time    0.0137


--------------------------------------------------------------------------------------------------------


 stress matrix after NEB project (eV)
      0.35600     -0.19911     -0.19911
     -0.19911      0.35600     -0.19911
     -0.19911     -0.19911      0.35600
  FORCES: max atom, RMS     0.006398    0.003491
  FORCE total and by dimension    0.015216    0.003694
  Stress total and by dimension    0.786179    0.355995


--------------------------------------------------------------------------------------------------------


  
 reached required accuracy - stopping structural energy minimisation
     LOOP+:  cpu time   15.9552: real time   16.1458
    4ORBIT:  cpu time    0.0000: real time    0.0000

 total amount of memory used by VASP MPI-rank0    44144. kBytes
=======================================================================

   base      :      30000. kBytes
   nonlr-proj:       2381. kBytes
   fftplans  :       2110. kBytes
   grid      :       3053. kBytes
   one-center:         40. kBytes
   wavefun   :       6560. kBytes
 
  
  
 General timing and accounting informations for this job:
 ========================================================
  
                  Total CPU time used (sec):      271.975
                            User time (sec):      271.295
                          System time (sec):        0.680
                         Elapsed time (sec):      273.966
  
                   Maximum memory used (kb):      101280.
                   Average memory used (kb):           0.
  
                          Minor page faults:        66618
                          Major page faults:            1
                 Voluntary context switches:          765
