       N       E                     dE             d eps       ncg     rms          rms(c)
DAV:   1     0.470596667428E+03    0.47060E+03   -0.41394E+04  6100   0.132E+03
DAV:   2    -0.935221863403E+02   -0.56412E+03   -0.53489E+03  7886   0.250E+02
DAV:   3    -0.147567724654E+03   -0.54046E+02   -0.53732E+02  7082   0.834E+01
DAV:   4    -0.148268006094E+03   -0.70028E+00   -0.69911E+00  7120   0.103E+01
DAV:   5    -0.148278629768E+03   -0.10624E-01   -0.10618E-01  7190   0.126E+00    0.219E+01
DAV:   6    -0.133914007322E+03    0.14365E+02   -0.82991E+01  6918   0.292E+01    0.749E+00
DAV:   7    -0.133791167941E+03    0.12284E+00   -0.15997E+00  6680   0.514E+00    0.457E+00
DAV:   8    -0.133688293786E+03    0.10287E+00   -0.46754E-01  7170   0.397E+00    0.806E-01
DAV:   9    -0.133676424468E+03    0.11869E-01   -0.63493E-02  6940   0.117E+00    0.459E-01
DAV:  10    -0.133676916072E+03   -0.49160E-03   -0.46184E-02  6852   0.898E-01    0.261E-01
DAV:  11    -0.133676669544E+03    0.24653E-03   -0.34277E-03  6952   0.292E-01    0.188E-01
DAV:  12    -0.133676507760E+03    0.16178E-03   -0.71473E-03  7918   0.432E-01    0.104E-01
DAV:  13    -0.133676352535E+03    0.15522E-03   -0.14792E-03  7060   0.183E-01    0.752E-02
DAV:  14    -0.133676245581E+03    0.10695E-03   -0.63786E-04  7400   0.123E-01    0.253E-02
DAV:  15    -0.133676177249E+03    0.68332E-04   -0.92660E-05  7006   0.655E-02    0.138E-02
DAV:  16    -0.133676139317E+03    0.37932E-04   -0.52479E-05  6504   0.564E-02    0.737E-03
DAV:  17    -0.133676074485E+03    0.64832E-04   -0.64341E-05  6862   0.104E-01    0.122E-02
DAV:  18    -0.133676046468E+03    0.28017E-04   -0.69853E-05  7340   0.862E-02    0.111E-02
DAV:  19    -0.133676023788E+03    0.22680E-04   -0.97161E-05  8060   0.116E-01    0.122E-02
DAV:  20    -0.133676019273E+03    0.45158E-05   -0.62664E-05  6336   0.432E-02
   1 F= -.13367602E+03 E0= -.13367394E+03  d E =-.133676E+03
       N       E                     dE             d eps       ncg     rms          rms(c)
DAV:   1    -0.133676724334E+03   -0.70055E-03   -0.12754E-02  6524   0.504E-01    0.195E-02
DAV:   2    -0.133676739773E+03   -0.15439E-04   -0.37739E-04  7060   0.804E-02    0.151E-02
DAV:   3    -0.133676731082E+03    0.86918E-05   -0.94328E-06  4654   0.216E-02    0.102E-02
DAV:   4    -0.133676713638E+03    0.17443E-04   -0.25713E-05  5660   0.458E-02    0.591E-03
DAV:   5    -0.133676708154E+03    0.54841E-05   -0.13307E-05  3982   0.217E-02    0.559E-03
DAV:   6    -0.133676695680E+03    0.12474E-04   -0.17320E-05  4956   0.365E-02    0.734E-03
DAV:   7    -0.133676683440E+03    0.12240E-04   -0.69737E-06  4356   0.419E-02    0.747E-03
DAV:   8    -0.133676669285E+03    0.14155E-04   -0.12153E-05  4722   0.593E-02    0.335E-03
DAV:   9    -0.133676656187E+03    0.13099E-04   -0.31741E-05  6174   0.102E-01    0.438E-03
DAV:  10    -0.133676658351E+03   -0.21643E-05   -0.48667E-05  5964   0.380E-02
   2 F= -.13367666E+03 E0= -.13367456E+03  d E =-.639078E-03
       N       E                     dE             d eps       ncg     rms          rms(c)
DAV:   1    -0.133677136482E+03   -0.48030E-03   -0.27722E-02  6264   0.743E-01    0.305E-02
DAV:   2    -0.133677178550E+03   -0.42068E-04   -0.91028E-04  7038   0.124E-01    0.242E-02
DAV:   3    -0.133677160880E+03    0.17670E-04   -0.23318E-05  5672   0.316E-02    0.165E-02
DAV:   4    -0.133677134330E+03    0.26550E-04   -0.72160E-05  6358   0.594E-02    0.967E-03
DAV:   5    -0.133677125708E+03    0.86219E-05   -0.23700E-05  5366   0.237E-02    0.768E-03
DAV:   6    -0.133677108720E+03    0.16988E-04   -0.14534E-05  4652   0.264E-02    0.490E-03
DAV:   7    -0.133677091611E+03    0.17109E-04   -0.66068E-06  4526   0.390E-02    0.625E-03
DAV:   8    -0.133677064259E+03    0.27352E-04   -0.22644E-05  5424   0.876E-02    0.397E-03
DAV:   9    -0.133677052675E+03    0.11584E-04   -0.47381E-05  6494   0.777E-02    0.552E-03
DAV:  10    -0.133677050648E+03    0.20274E-05   -0.27516E-05  5450   0.333E-02
   3 F= -.13367705E+03 E0= -.13367490E+03  d E =-.103138E-02
       N       E                     dE             d eps       ncg     rms          rms(c)
DAV:   1    -0.133677427498E+03   -0.37482E-03   -0.54432E-02  6412   0.102E+00    0.308E-02
DAV:   2    -0.133677539475E+03   -0.11198E-03   -0.12546E-03  6852   0.141E-01    0.172E-02
DAV:   3    -0.133677532809E+03    0.66652E-05   -0.10788E-05  4238   0.162E-02    0.114E-02
DAV:   4    -0.133677527754E+03    0.50553E-05   -0.12700E-05  3938   0.201E-02    0.309E-03
DAV:   5    -0.133677527747E+03    0.72378E-08   -0.61114E-06  3692   0.119E-02    0.252E-03
DAV:   6    -0.133677527314E+03    0.43314E-06   -0.81345E-07  3662   0.734E-03
   4 F= -.13367753E+03 E0= -.13367535E+03  d E =-.476666E-03
       N       E                     dE             d eps       ncg     rms          rms(c)
DAV:   1    -0.133677664510E+03   -0.13676E-03   -0.49051E-01  6280   0.308E+00    0.920E-02
DAV:   2    -0.133678687864E+03   -0.10234E-02   -0.11479E-02  6816   0.430E-01    0.523E-02
DAV:   3    -0.133678622711E+03    0.65153E-04   -0.10461E-04  7256   0.503E-02    0.353E-02
DAV:   4    -0.133678557078E+03    0.65633E-04   -0.13229E-04  6948   0.673E-02    0.122E-02
DAV:   5    -0.133678551187E+03    0.58916E-05   -0.57219E-05  6296   0.395E-02    0.987E-03
DAV:   6    -0.133678540224E+03    0.10963E-04   -0.10210E-05  4096   0.314E-02    0.500E-03
DAV:   7    -0.133678520749E+03    0.19475E-04   -0.61603E-06  4252   0.491E-02    0.410E-03
DAV:   8    -0.133678494938E+03    0.25811E-04   -0.12414E-05  4830   0.659E-02    0.501E-03
DAV:   9    -0.133678453375E+03    0.41563E-04   -0.53150E-05  7058   0.140E-01    0.497E-03
DAV:  10    -0.133678443915E+03    0.94604E-05   -0.74317E-05  7144   0.107E-01
   5 F= -.13367844E+03 E0= -.13367617E+03  d E =-.139327E-02
       N       E                     dE             d eps       ncg     rms          rms(c)
DAV:   1    -0.133674676581E+03    0.37768E-02   -0.19595E+00  6234   0.613E+00    0.183E-01
DAV:   2    -0.133678858206E+03   -0.41816E-02   -0.46602E-02  6826   0.852E-01    0.108E-01
DAV:   3    -0.133678599014E+03    0.25919E-03   -0.40068E-04  7272   0.960E-02    0.724E-02
DAV:   4    -0.133678359620E+03    0.23939E-03   -0.56836E-04  7084   0.129E-01    0.238E-02
DAV:   5    -0.133678346363E+03    0.13257E-04   -0.21246E-04  6912   0.716E-02    0.177E-02
DAV:   6    -0.133678310573E+03    0.35790E-04   -0.29376E-05  5546   0.541E-02    0.960E-03
DAV:   7    -0.133678260619E+03    0.49953E-04   -0.13238E-05  4754   0.698E-02    0.673E-03
DAV:   8    -0.133678179580E+03    0.81040E-04   -0.39891E-05  6360   0.115E-01    0.931E-03
DAV:   9    -0.133678090924E+03    0.88655E-04   -0.87801E-05  7636   0.140E-01    0.869E-03
DAV:  10    -0.133678018318E+03    0.72606E-04   -0.15055E-04  7980   0.211E-01    0.138E-02
DAV:  11    -0.133678025571E+03   -0.72523E-05   -0.25391E-04  6796   0.118E-01    0.104E-02
DAV:  12    -0.133678038479E+03   -0.12909E-04   -0.14808E-04  6206   0.414E-02    0.185E-02
DAV:  13    -0.133678033163E+03    0.53163E-05   -0.30210E-05  5284   0.214E-02
   6 F= -.13367803E+03 E0= -.13367560E+03  d E =-.982515E-03
       N       E                     dE             d eps       ncg     rms          rms(c)
DAV:   1    -0.133677439151E+03    0.59933E-03   -0.72251E-01  6278   0.366E+00    0.113E-01
DAV:   2    -0.133678960759E+03   -0.15216E-02   -0.17026E-02  6812   0.505E-01    0.626E-02
DAV:   3    -0.133678866057E+03    0.94702E-04   -0.14034E-04  7288   0.582E-02    0.419E-02
DAV:   4    -0.133678774684E+03    0.91373E-04   -0.18039E-04  7150   0.851E-02    0.116E-02
DAV:   5    -0.133678769665E+03    0.50192E-05   -0.96682E-05  6618   0.477E-02    0.113E-02
DAV:   6    -0.133678759178E+03    0.10487E-04   -0.12018E-05  3924   0.246E-02    0.635E-03
DAV:   7    -0.133678736754E+03    0.22424E-04   -0.45424E-06  4110   0.423E-02    0.449E-03
DAV:   8    -0.133678705913E+03    0.30841E-04   -0.15123E-05  5008   0.671E-02    0.743E-03
DAV:   9    -0.133678679371E+03    0.26542E-04   -0.24518E-05  5674   0.726E-02    0.712E-03
DAV:  10    -0.133678645718E+03    0.33653E-04   -0.52900E-05  6820   0.138E-01    0.441E-03
DAV:  11    -0.133678644097E+03    0.16204E-05   -0.85177E-05  6826   0.888E-02
   7 F= -.13367864E+03 E0= -.13367631E+03  d E =-.159345E-02
       N       E                     dE             d eps       ncg     rms          rms(c)
DAV:   1    -0.133678942809E+03   -0.29709E-03   -0.71920E-02  6180   0.116E+00    0.379E-02
DAV:   2    -0.133679088800E+03   -0.14599E-03   -0.16767E-03  6806   0.158E-01    0.188E-02
DAV:   3    -0.133679080362E+03    0.84385E-05   -0.16082E-05  4962   0.233E-02    0.127E-02
DAV:   4    -0.133679074839E+03    0.55225E-05   -0.19825E-05  5026   0.300E-02    0.387E-03
DAV:   5    -0.133679075297E+03   -0.45766E-06   -0.99930E-06  3686   0.146E-02    0.417E-03
DAV:   6    -0.133679074883E+03    0.41423E-06   -0.16503E-06  3518   0.668E-03
   8 F= -.13367907E+03 E0= -.13367671E+03  d E =-.430785E-03
       N       E                     dE             d eps       ncg     rms          rms(c)
DAV:   1    -0.133678818828E+03    0.25647E-03   -0.65137E-01  6132   0.348E+00    0.107E-01
DAV:   2    -0.133680140805E+03   -0.13220E-02   -0.15038E-02  6790   0.478E-01    0.596E-02
DAV:   3    -0.133680065874E+03    0.74931E-04   -0.19682E-04  7310   0.736E-02    0.422E-02
DAV:   4    -0.133680013502E+03    0.52372E-04   -0.16270E-04  7040   0.752E-02    0.170E-02
DAV:   5    -0.133680006579E+03    0.69222E-05   -0.65250E-05  6708   0.476E-02    0.139E-02
DAV:   6    -0.133680002694E+03    0.38854E-05   -0.42804E-05  5968   0.348E-02
   9 F= -.13368000E+03 E0= -.13367756E+03  d E =-.135860E-02
       N       E                     dE             d eps       ncg     rms          rms(c)
DAV:   1    -0.133675542951E+03    0.44636E-02   -0.26050E+00  6132   0.700E+00    0.213E-01
DAV:   2    -0.133680826835E+03   -0.52839E-02   -0.60040E-02  6778   0.963E-01    0.119E-01
DAV:   3    -0.133680517524E+03    0.30931E-03   -0.76476E-04  7316   0.149E-01    0.830E-02
DAV:   4    -0.133680300844E+03    0.21668E-03   -0.59989E-04  7232   0.152E-01    0.329E-02
DAV:   5    -0.133680271181E+03    0.29663E-04   -0.27080E-04  7226   0.993E-02    0.258E-02
DAV:   6    -0.133680256164E+03    0.15018E-04   -0.17277E-04  6946   0.713E-02    0.130E-02
DAV:   7    -0.133680245364E+03    0.10799E-04   -0.19189E-05  5076   0.371E-02    0.106E-02
DAV:   8    -0.133680234414E+03    0.10950E-04   -0.10363E-05  4594   0.333E-02    0.491E-03
DAV:   9    -0.133680221189E+03    0.13225E-04   -0.13039E-05  4688   0.553E-02    0.464E-03
DAV:  10    -0.133680214490E+03    0.66985E-05   -0.28874E-05  5658   0.573E-02
  10 F= -.13368021E+03 E0= -.13367765E+03  d E =-.157039E-02
       N       E                     dE             d eps       ncg     rms          rms(c)
DAV:   1    -0.133679713632E+03    0.50756E-03   -0.36727E-01  6084   0.265E+00    0.805E-02
DAV:   2    -0.133680454166E+03   -0.74053E-03   -0.83947E-03  6758   0.364E-01    0.442E-02
DAV:   3    -0.133680410258E+03    0.43908E-04   -0.10473E-04  7254   0.556E-02    0.307E-02
DAV:   4    -0.133680380626E+03    0.29632E-04   -0.94850E-05  6810   0.590E-02    0.117E-02
DAV:   5    -0.133680377929E+03    0.26977E-05   -0.38231E-05  6090   0.314E-02    0.913E-03
DAV:   6    -0.133680375552E+03    0.23766E-05   -0.19520E-05  4390   0.216E-02
  11 F= -.13368038E+03 E0= -.13367785E+03  d E =-.173145E-02
       N       E                     dE             d eps       ncg     rms          rms(c)
DAV:   1    -0.133680771983E+03   -0.39405E-03   -0.19710E-01  6084   0.192E+00    0.558E-02
DAV:   2    -0.133681136368E+03   -0.36438E-03   -0.41475E-03  6940   0.262E-01    0.309E-02
DAV:   3    -0.133681113720E+03    0.22648E-04   -0.55476E-05  6954   0.367E-02    0.222E-02
DAV:   4    -0.133681094639E+03    0.19081E-04   -0.68148E-05  6740   0.466E-02    0.975E-03
DAV:   5    -0.133681092900E+03    0.17391E-05   -0.24099E-05  5436   0.265E-02    0.115E-02
DAV:   6    -0.133681090255E+03    0.26449E-05   -0.10841E-05  3890   0.192E-02
  12 F= -.13368109E+03 E0= -.13367852E+03  d E =-.714703E-03
       N       E                     dE             d eps       ncg     rms          rms(c)
DAV:   1    -0.133679040581E+03    0.20523E-02   -0.17744E+00  6084   0.577E+00    0.167E-01
DAV:   2    -0.133682373142E+03   -0.33326E-02   -0.37365E-02  6932   0.780E-01    0.934E-02
DAV:   3    -0.133682171835E+03    0.20131E-03   -0.42832E-04  7306   0.104E-01    0.656E-02
DAV:   4    -0.133682015920E+03    0.15592E-03   -0.74621E-04  7138   0.152E-01    0.301E-02
DAV:   5    -0.133682013700E+03    0.22197E-05   -0.22725E-04  7040   0.721E-02    0.345E-02
DAV:   6    -0.133681999007E+03    0.14693E-04   -0.62916E-05  6456   0.382E-02    0.201E-02
DAV:   7    -0.133681984239E+03    0.14768E-04   -0.19613E-05  4986   0.335E-02    0.106E-02
DAV:   8    -0.133681974764E+03    0.94748E-05   -0.41377E-05  6100   0.469E-02
  13 F= -.13368197E+03 E0= -.13367928E+03  d E =-.159921E-02
       N       E                     dE             d eps       ncg     rms          rms(c)
DAV:   1    -0.133682136211E+03   -0.15197E-03   -0.33716E-01  6204   0.255E+00    0.746E-02
DAV:   2    -0.133682823389E+03   -0.68718E-03   -0.74554E-03  6732   0.350E-01    0.402E-02
DAV:   3    -0.133682790940E+03    0.32450E-04   -0.94486E-05  7112   0.469E-02    0.273E-02
DAV:   4    -0.133682769281E+03    0.21658E-04   -0.63053E-05  6556   0.411E-02    0.110E-02
DAV:   5    -0.133682767330E+03    0.19517E-05   -0.21951E-05  5120   0.263E-02    0.832E-03
DAV:   6    -0.133682766451E+03    0.87866E-06   -0.12237E-05  3834   0.212E-02
  14 F= -.13368277E+03 E0= -.13368002E+03  d E =-.791687E-03
       N       E                     dE             d eps       ncg     rms          rms(c)
DAV:   1    -0.133678538997E+03    0.42283E-02   -0.30314E+00  6172   0.765E+00    0.221E-01
DAV:   2    -0.133684727927E+03   -0.61889E-02   -0.67022E-02  6818   0.105E+00    0.122E-01
DAV:   3    -0.133684401387E+03    0.32654E-03   -0.71875E-04  7294   0.135E-01    0.835E-02
DAV:   4    -0.133684146672E+03    0.25472E-03   -0.71988E-04  7166   0.161E-01    0.287E-02
DAV:   5    -0.133684147161E+03   -0.48940E-06   -0.36169E-04  7070   0.915E-02    0.303E-02
DAV:   6    -0.133684135941E+03    0.11221E-04   -0.76713E-05  6410   0.403E-02    0.174E-02
DAV:   7    -0.133684122966E+03    0.12975E-04   -0.29693E-05  5892   0.263E-02    0.749E-03
DAV:   8    -0.133684115974E+03    0.69919E-05   -0.13334E-05  4750   0.309E-02
  15 F= -.13368412E+03 E0= -.13368125E+03  d E =-.214121E-02
       N       E                     dE             d eps       ncg     rms          rms(c)
DAV:   1    -0.133683246927E+03    0.87604E-03   -0.53247E-01  6176   0.321E+00    0.890E-02
DAV:   2    -0.133684318716E+03   -0.10718E-02   -0.11619E-02  6842   0.439E-01    0.524E-02
DAV:   3    -0.133684255232E+03    0.63484E-04   -0.10946E-04  7254   0.546E-02    0.360E-02
DAV:   4    -0.133684195141E+03    0.60091E-04   -0.16305E-04  6836   0.800E-02    0.111E-02
DAV:   5    -0.133684195698E+03   -0.55671E-06   -0.81993E-05  6598   0.412E-02    0.125E-02
DAV:   6    -0.133684192912E+03    0.27858E-05   -0.98919E-06  3758   0.145E-02
  16 F= -.13368419E+03 E0= -.13368129E+03  d E =-.221815E-02
       N       E                     dE             d eps       ncg     rms          rms(c)
DAV:   1    -0.133683965536E+03    0.23016E-03   -0.57042E-01  6116   0.333E+00    0.962E-02
DAV:   2    -0.133685136053E+03   -0.11705E-02   -0.12702E-02  6852   0.457E-01    0.529E-02
DAV:   3    -0.133685075751E+03    0.60303E-04   -0.12583E-04  7306   0.556E-02    0.370E-02
DAV:   4    -0.133685024814E+03    0.50936E-04   -0.14268E-04  6810   0.807E-02    0.119E-02
DAV:   5    -0.133685024478E+03    0.33628E-06   -0.82547E-05  6400   0.426E-02    0.134E-02
DAV:   6    -0.133685019406E+03    0.50724E-05   -0.11822E-05  3740   0.153E-02
  17 F= -.13368502E+03 E0= -.13368209E+03  d E =-.826494E-03
       N       E                     dE             d eps       ncg     rms          rms(c)
DAV:   1    -0.133677460462E+03    0.75640E-02   -0.45232E+00  6116   0.938E+00    0.268E-01
DAV:   2    -0.133686771372E+03   -0.93109E-02   -0.10098E-01  6826   0.129E+00    0.152E-01
DAV:   3    -0.133686292431E+03    0.47894E-03   -0.10711E-03  7376   0.160E-01    0.105E-01
DAV:   4    -0.133685907947E+03    0.38448E-03   -0.98707E-04  7306   0.206E-01    0.355E-02
DAV:   5    -0.133685902463E+03    0.54841E-05   -0.59210E-04  6956   0.120E-01    0.353E-02
DAV:   6    -0.133685877746E+03    0.24718E-04   -0.11597E-04  6656   0.466E-02    0.175E-02
DAV:   7    -0.133685845324E+03    0.32422E-04   -0.25993E-05  5252   0.414E-02    0.730E-03
DAV:   8    -0.133685818598E+03    0.26726E-04   -0.22568E-05  5278   0.485E-02    0.142E-02
DAV:   9    -0.133685779433E+03    0.39164E-04   -0.73284E-05  7322   0.115E-01    0.183E-02
DAV:  10    -0.133685761584E+03    0.17850E-04   -0.83413E-05  7056   0.791E-02    0.223E-02
DAV:  11    -0.133685771992E+03   -0.10409E-04   -0.56493E-05  5950   0.262E-02    0.308E-02
DAV:  12    -0.133685770763E+03    0.12292E-05   -0.15321E-05  4854   0.735E-02
  18 F= -.13368577E+03 E0= -.13368278E+03  d E =-.157785E-02
       N       E                     dE             d eps       ncg     rms          rms(c)
DAV:   1    -0.133685982807E+03   -0.21081E-03   -0.21756E-01  6136   0.207E+00    0.741E-02
DAV:   2    -0.133686355016E+03   -0.37221E-03   -0.48177E-03  6828   0.297E-01    0.474E-02
DAV:   3    -0.133686335200E+03    0.19817E-04   -0.36955E-04  6986   0.849E-02    0.248E-02
DAV:   4    -0.133686326017E+03    0.91825E-05   -0.55495E-05  6268   0.374E-02    0.141E-02
DAV:   5    -0.133686317416E+03    0.86011E-05   -0.15767E-05  4316   0.283E-02    0.819E-03
DAV:   6    -0.133686313592E+03    0.38238E-05   -0.95357E-06  4002   0.286E-02
  19 F= -.13368631E+03 E0= -.13368330E+03  d E =-.542829E-03
       N       E                     dE             d eps       ncg     rms          rms(c)
DAV:   1    -0.133685413455E+03    0.90396E-03   -0.67445E-01  6076   0.363E+00    0.110E-01
DAV:   2    -0.133686817095E+03   -0.14036E-02   -0.15465E-02  6798   0.510E-01    0.602E-02
DAV:   3    -0.133686742634E+03    0.74461E-04   -0.21630E-04  7336   0.750E-02    0.436E-02
DAV:   4    -0.133686667612E+03    0.75022E-04   -0.26063E-04  7002   0.917E-02    0.214E-02
DAV:   5    -0.133686645228E+03    0.22384E-04   -0.85461E-05  7028   0.648E-02    0.258E-02
DAV:   6    -0.133686625267E+03    0.19960E-04   -0.65029E-05  6318   0.473E-02    0.136E-02
DAV:   7    -0.133686598563E+03    0.26705E-04   -0.11949E-05  4586   0.500E-02    0.770E-03
DAV:   8    -0.133686570044E+03    0.28518E-04   -0.35926E-05  6036   0.734E-02    0.918E-03
DAV:   9    -0.133686553753E+03    0.16292E-04   -0.40009E-05  6134   0.544E-02    0.916E-03
DAV:  10    -0.133686513993E+03    0.39760E-04   -0.36651E-05  6088   0.120E-01    0.807E-03
DAV:  11    -0.133686505343E+03    0.86497E-05   -0.53501E-05  6386   0.596E-02
  20 F= -.13368651E+03 E0= -.13368345E+03  d E =-.734580E-03
       N       E                     dE             d eps       ncg     rms          rms(c)
DAV:   1    -0.133686444707E+03    0.69286E-04   -0.56971E-02  6208   0.106E+00    0.333E-02
DAV:   2    -0.133686561459E+03   -0.11675E-03   -0.12550E-03  6836   0.145E-01    0.164E-02
DAV:   3    -0.133686556173E+03    0.52861E-05   -0.14641E-05  4564   0.209E-02    0.110E-02
DAV:   4    -0.133686551744E+03    0.44286E-05   -0.95546E-06  4102   0.252E-02    0.390E-03
DAV:   5    -0.133686551340E+03    0.40480E-06   -0.95845E-06  3782   0.192E-02    0.440E-03
DAV:   6    -0.133686551313E+03    0.27017E-07   -0.34697E-06  3458   0.812E-03
  21 F= -.13368655E+03 E0= -.13368351E+03  d E =-.780549E-03
       N       E                     dE             d eps       ncg     rms          rms(c)
DAV:   1    -0.133686632097E+03   -0.80757E-04   -0.15282E-01  6268   0.170E+00    0.492E-02
DAV:   2    -0.133686918047E+03   -0.28595E-03   -0.34219E-03  7042   0.244E-01    0.326E-02
DAV:   3    -0.133686892485E+03    0.25562E-04   -0.67548E-05  6852   0.446E-02    0.244E-02
DAV:   4    -0.133686868387E+03    0.24098E-04   -0.49102E-05  6264   0.433E-02    0.112E-02
DAV:   5    -0.133686856886E+03    0.11502E-04   -0.21913E-05  4788   0.436E-02    0.918E-03
DAV:   6    -0.133686850449E+03    0.64367E-05   -0.23740E-05  5156   0.416E-02
  22 F= -.13368685E+03 E0= -.13368379E+03  d E =-.299136E-03
       N       E                     dE             d eps       ncg     rms          rms(c)
DAV:   1    -0.133686842749E+03    0.14136E-04   -0.10803E-02  6556   0.454E-01    0.139E-02
DAV:   2    -0.133686861914E+03   -0.19164E-04   -0.26277E-04  7020   0.698E-02    0.107E-02
DAV:   3    -0.133686857778E+03    0.41353E-05   -0.59830E-06  3972   0.163E-02    0.775E-03
DAV:   4    -0.133686850015E+03    0.77632E-05   -0.88451E-06  4350   0.288E-02    0.358E-03
DAV:   5    -0.133686848023E+03    0.19923E-05   -0.59560E-06  3744   0.183E-02    0.406E-03
DAV:   6    -0.133686846501E+03    0.15223E-05   -0.69813E-06  3930   0.207E-02
  23 F= -.13368685E+03 E0= -.13368378E+03  d E =-.295188E-03
       N       E                     dE             d eps       ncg     rms          rms(c)
DAV:   1    -0.133686892202E+03   -0.44179E-04   -0.21868E-02  6608   0.649E-01    0.216E-02
DAV:   2    -0.133686938225E+03   -0.46022E-04   -0.58888E-04  7004   0.101E-01    0.157E-02
DAV:   3    -0.133686932050E+03    0.61747E-05   -0.12250E-05  4320   0.214E-02    0.109E-02
DAV:   4    -0.133686926661E+03    0.53892E-05   -0.11524E-05  4124   0.225E-02    0.466E-03
DAV:   5    -0.133686924433E+03    0.22276E-05   -0.70359E-06  3824   0.187E-02    0.340E-03
DAV:   6    -0.133686923397E+03    0.10368E-05   -0.36926E-06  3714   0.125E-02
  24 F= -.13368692E+03 E0= -.13368386E+03  d E =-.768958E-04
