 vasp.5.3.5 31Mar14 (build Apr 08 2024 10:12:10) complex                        
  
 executed on             LinuxIFC date 2024.07.29  12:25:22
 running on    8 total cores
 distrk:  each k-point on    8 cores,    1 groups
 distr:  one band on NCORES_PER_BAND=   4 cores,    2 groups


--------------------------------------------------------------------------------------------------------


 INCAR:
 POTCAR:    PAW_PBE O 08Apr2002                   
 POTCAR:    PAW_PBE Mg 13Apr2007                  
 POTCAR:    PAW_PBE Al 04Jan2001                  
 POTCAR:    PAW_PBE O 08Apr2002                   
   VRHFIN =O: s2p4                                                              
   LEXCH  = PE                                                                  
   EATOM  =   432.3788 eV,   31.7789 Ry                                         
                                                                                
   TITEL  = PAW_PBE O 08Apr2002                                                 
   LULTRA =        F    use ultrasoft PP ?                                      
   IUNSCR =        1    unscreen: 0-lin 1-nonlin 2-no                           
   RPACOR =    1.200    partial core radius                                     
   POMASS =   16.000; ZVAL   =    6.000    mass and valenz                      
   RCORE  =    1.520    outmost cutoff radius                                   
   RWIGS  =    1.550; RWIGS  =    0.820    wigner-seitz radius (au A)           
   ENMAX  =  400.000; ENMIN  =  300.000 eV                                      
   ICORE  =        2    local potential                                         
   LCOR   =        T    correct aug charges                                     
   LPAW   =        T    paw PP                                                  
   EAUG   =  605.392                                                            
   DEXC   =    0.000                                                            
   RMAX   =    1.553    core radius for proj-oper                               
   RAUG   =    1.300    factor for augmentation sphere                          
   RDEP   =    1.550    radius for radial grids                                 
   RDEPT  =    1.329    core radius for aug-charge                              
                                                                                
   Atomic configuration                                                         
    4 entries                                                                   
     n  l   j            E        occ.                                          
     1  0  0.50      -514.6923   2.0000                                         
     2  0  0.50       -23.9615   2.0000                                         
     2  1  0.50        -9.0305   4.0000                                         
     3  2  1.50        -9.5241   0.0000                                         
   Description                                                                  
     l       E           TYP  RCUT    TYP  RCUT                                 
     0    -23.9615318     23  1.200                                             
     0     -9.5240782     23  1.200                                             
     1     -9.0304911     23  1.520                                             
     1      8.1634956     23  1.520                                             
     2     -9.5240782      7  1.500                                             
  local pseudopotential read in
  partial core-charges read in
  partial kinetic energy density read in
  kinetic energy density of atom read in
  atomic valenz-charges read in
  non local Contribution for L=           0  read in
    real space projection operators read in
  non local Contribution for L=           0  read in
    real space projection operators read in
  non local Contribution for L=           1  read in
    real space projection operators read in
  non local Contribution for L=           1  read in
    real space projection operators read in
    PAW grid and wavefunctions read in
 
   number of l-projection  operators is LMAX  =           4
   number of lm-projection operators is LMMAX =           8
 
 POTCAR:    PAW_PBE Mg 13Apr2007                  
   VRHFIN =Mg: s2p0                                                             
   LEXCH  = PE                                                                  
   EATOM  =    23.0369 eV,    1.6932 Ry                                         
                                                                                
   TITEL  = PAW_PBE Mg 13Apr2007                                                
   LULTRA =        F    use ultrasoft PP ?                                      
   IUNSCR =        1    unscreen: 0-lin 1-nonlin 2-no                           
   RPACOR =    1.500    partial core radius                                     
   POMASS =   24.305; ZVAL   =    2.000    mass and valenz                      
   RCORE  =    2.000    outmost cutoff radius                                   
   RWIGS  =    2.880; RWIGS  =    1.524    wigner-seitz radius (au A)           
   ENMAX  =  200.000; ENMIN  =  100.000 eV                                      
   RCLOC  =    1.506    cutoff for local pot                                    
   LCOR   =        T    correct aug charges                                     
   LPAW   =        T    paw PP                                                  
   EAUG   =  454.734                                                            
   DEXC   =    0.000                                                            
   RMAX   =    2.045    core radius for proj-oper                               
   RAUG   =    1.300    factor for augmentation sphere                          
   RDEP   =    2.025    radius for radial grids                                 
   RDEPT  =    1.942    core radius for aug-charge                              
                                                                                
   Atomic configuration                                                         
    6 entries                                                                   
     n  l   j            E        occ.                                          
     1  0  0.50     -1259.6230   2.0000                                         
     2  0  0.50       -79.8442   2.0000                                         
     2  1  1.50       -46.6121   6.0000                                         
     3  0  0.50        -4.7055   2.0000                                         
     3  1  0.50        -1.3660   0.0000                                         
     3  2  1.50        -1.3606   0.0000                                         
   Description                                                                  
     l       E           TYP  RCUT    TYP  RCUT                                 
     0     -4.7054661     23  2.000                                             
     0     27.2116520     23  2.000                                             
     1      1.3605826     23  2.000                                             
     1     27.2116520     23  2.000                                             
     2     -1.3605826     23  2.000                                             
  local pseudopotential read in
  partial core-charges read in
  partial kinetic energy density read in
  atomic valenz-charges read in
  non local Contribution for L=           0  read in
    real space projection operators read in
  non local Contribution for L=           0  read in
    real space projection operators read in
  non local Contribution for L=           1  read in
    real space projection operators read in
  non local Contribution for L=           1  read in
    real space projection operators read in
  non local Contribution for L=           2  read in
    real space projection operators read in
    PAW grid and wavefunctions read in
 
   number of l-projection  operators is LMAX  =           5
   number of lm-projection operators is LMMAX =          13
 
 POTCAR:    PAW_PBE Al 04Jan2001                  
   VRHFIN =Al: s2p1                                                             
   LEXCH  = PE                                                                  
   EATOM  =    53.5387 eV,    3.9350 Ry                                         
                                                                                
   TITEL  = PAW_PBE Al 04Jan2001                                                
   LULTRA =        F    use ultrasoft PP ?                                      
   IUNSCR =        1    unscreen: 0-lin 1-nonlin 2-no                           
   RPACOR =    1.500    partial core radius                                     
   POMASS =   26.981; ZVAL   =    3.000    mass and valenz                      
   RCORE  =    1.900    outmost cutoff radius                                   
   RWIGS  =    2.650; RWIGS  =    1.402    wigner-seitz radius (au A)           
   ENMAX  =  240.300; ENMIN  =  180.225 eV                                      
   ICORE  =        2    local potential                                         
   LCOR   =        T    correct aug charges                                     
   LPAW   =        T    paw PP                                                  
   EAUG   =  291.052                                                            
   DEXC   =    0.000                                                            
   RMAX   =    1.939    core radius for proj-oper                               
   RAUG   =    1.300    factor for augmentation sphere                          
   RDEP   =    1.966    radius for radial grids                                 
   RDEPT  =    1.856    core radius for aug-charge                              
                                                                                
   Atomic configuration                                                         
    6 entries                                                                   
     n  l   j            E        occ.                                          
     1  0  0.50     -1511.1048   2.0000                                         
     2  0  0.50      -108.1629   2.0000                                         
     2  1  1.50       -69.6402   6.0000                                         
     3  0  0.50        -7.7528   2.0000                                         
     3  1  1.50        -2.7121   1.0000                                         
     3  2  2.50        -2.7212   0.0000                                         
   Description                                                                  
     l       E           TYP  RCUT    TYP  RCUT                                 
     0     -7.7528455     23  1.900                                             
     0     -3.3096929     23  1.900                                             
     1     -2.7120682     23  1.900                                             
     1     13.6058260     23  1.900                                             
     2     -2.7211652      7  1.900                                             
  local pseudopotential read in
  partial core-charges read in
  partial kinetic energy density read in
  atomic valenz-charges read in
  non local Contribution for L=           0  read in
    real space projection operators read in
  non local Contribution for L=           0  read in
    real space projection operators read in
  non local Contribution for L=           1  read in
    real space projection operators read in
  non local Contribution for L=           1  read in
    real space projection operators read in
    PAW grid and wavefunctions read in
 
   number of l-projection  operators is LMAX  =           4
   number of lm-projection operators is LMMAX =           8
 

 ----------------------------------------------------------------------------- 
|                                                                             |
|  ADVICE TO THIS USER RUNNING 'VASP/VAMP'   (HEAR YOUR MASTER'S VOICE ...):  |
|                                                                             |
|      You have a (more or less) 'large supercell' and for larger cells       |
|      it might be more efficient to use real space projection opertators     |
|      So try LREAL= Auto  in the INCAR   file.                               |
|      Mind: At the moment your POTCAR file does not contain real space       |
|       projectors, and has to be modified,  BUT if you                       |
|      want to do an extremely  accurate calculation you might also keep the  |
|      reciprocal projection scheme          (i.e. LREAL=.FALSE.)             |
|                                                                             |
 ----------------------------------------------------------------------------- 

  PAW_PBE O 08Apr2002                   :
 energy of atom  1       EATOM= -432.3788
 kinetic energy error for atom=    0.0208 (will be added to EATOM!!)
  PAW_PBE Mg 13Apr2007                  :
 energy of atom  2       EATOM=  -23.0369
 kinetic energy error for atom=    0.0000 (will be added to EATOM!!)
  PAW_PBE Al 04Jan2001                  :
 energy of atom  3       EATOM=  -53.5387
 kinetic energy error for atom=    0.0002 (will be added to EATOM!!)
 
 
 POSCAR: Layer                                   
  positions in direct lattice
  velocities in cartesian coordinates
 exchange correlation table for  LEXCH =        8
   RHO(1)=    0.500       N(1)  =     2000
   RHO(2)=  100.500       N(2)  =     4000
 


--------------------------------------------------------------------------------------------------------


 ion  position               nearest neighbor table
   1  0.555  0.445  0.346-  15 2.14  14 2.14  15 2.14  15 2.14  14 2.14  14 2.14
   2  0.500  0.500  0.526-  17 2.14  16 2.14  17 2.15  17 2.15  16 2.15  16 2.15
   3  0.445  0.555  0.706-  18 2.14  19 2.14  18 2.14  18 2.14  19 2.14  19 2.14
   4  0.241  0.759  0.286-  14 2.14  14 2.14  14 2.14  10 2.16  10 2.16  10 2.16
   5  0.870  0.130  0.406-  15 2.14  11 2.14  15 2.15  15 2.15  11 2.15  11 2.15
   6  0.185  0.815  0.466-  16 2.14  11 2.14  16 2.15  16 2.15  11 2.15  11 2.15
   7  0.815  0.185  0.586-  17 2.14  12 2.14  17 2.15  17 2.15  12 2.15  12 2.15
   8  0.130  0.870  0.646-  18 2.14  12 2.14  18 2.15  18 2.15  12 2.15  12 2.15
   9  0.759  0.241  0.766-  19 2.14  19 2.14  19 2.14  13 2.16  13 2.16  13 2.16
  10  0.584  0.416  0.255-   4 2.16   4 2.16   4 2.16  21 3.07  21 3.07  21 3.08  14 3.09  14 3.09
                            14 3.09
  11  0.527  0.473  0.436-   6 2.14   5 2.14   6 2.15   6 2.15   5 2.15   5 2.15  16 3.07  16 3.07
                            15 3.07  15 3.07  15 3.07  16 3.07
  12  0.473  0.527  0.616-   7 2.14   8 2.14   8 2.15   8 2.15   7 2.15   7 2.15  18 3.07  18 3.07
                            17 3.07  17 3.07  18 3.07  17 3.07
  13  0.416  0.584  0.796-   9 2.16   9 2.16   9 2.16  24 3.07  24 3.07  24 3.08  19 3.09  19 3.09
                            19 3.09
  14  0.898  0.102  0.316-   4 2.14   1 2.14   4 2.14   4 2.14   1 2.14   1 2.14  15 3.07  15 3.07
                            15 3.07  10 3.09  10 3.09  10 3.09
  15  0.213  0.787  0.376-   5 2.14   1 2.14   1 2.14   1 2.14   5 2.15   5 2.15  14 3.07  14 3.07
                            11 3.07  11 3.07  14 3.07  11 3.07
  16  0.842  0.158  0.496-   2 2.14   6 2.14   2 2.15   2 2.15   6 2.15   6 2.15  17 3.07  17 3.07
                            11 3.07  11 3.07  17 3.07  11 3.07
  17  0.158  0.842  0.556-   2 2.14   7 2.14   2 2.15   2 2.15   7 2.15   7 2.15  16 3.07  16 3.07
                            12 3.07  12 3.07  16 3.07  12 3.07
  18  0.788  0.212  0.676-   8 2.14   3 2.14   3 2.14   3 2.14   8 2.15   8 2.15  19 3.07  19 3.07
                            12 3.07  12 3.07  19 3.07  12 3.07
  19  0.102  0.898  0.736-   9 2.14   3 2.14   9 2.14   9 2.14   3 2.14   3 2.14  18 3.07  18 3.07
                            18 3.07  13 3.09  13 3.09  13 3.09
  20  1.000  0.000  0.026-  25 2.93  23 2.93  23 2.95  23 2.95  25 2.95  25 2.95
  21  0.938  0.062  0.195-  22 2.93  22 2.94  22 2.94  10 3.07  10 3.07  10 3.08
  22  0.625  0.375  0.139-  21 2.93  21 2.94  21 2.94  23 2.95  23 2.96  23 2.96
  23  0.312  0.688  0.082-  20 2.93  20 2.95  20 2.95  22 2.95  22 2.96  22 2.96
  24  0.062  0.938  0.857-  26 2.93  26 2.94  26 2.94  13 3.07  13 3.07  13 3.08
  25  0.688  0.312  0.970-  20 2.93  20 2.95  20 2.95  26 2.95  26 2.96  26 2.96
  26  0.375  0.625  0.913-  24 2.93  24 2.94  24 2.94  25 2.95  25 2.96  25 2.96
 
  LATTYP: Found a base centered monoclinic cell.
 ALAT       =     5.1835214829
 B/A-ratio  =     0.5778353023
 C/A-ratio  =     8.3274248376
 COS(beta)  =    -0.1745555005
  
  Lattice vectors:
  
 A1 = (  -2.5925900058,   1.4952752266,  -0.0518951648)
 A2 = (   0.0013482762,   2.9928857368,  -0.0518951490)
 A3 = (   4.7735158528,  -8.2679694689, -42.0963743844)


Analysis of symmetry for initial positions (statically):
=====================================================================
 Subroutine PRICEL returns:
 Original cell was already a primitive cell.
 

 Routine SETGRP: Setting up the symmetry group for a 
 base centered monoclinic supercell.


 Subroutine GETGRP returns: Found  2 space group operations
 (whereof  2 operations were pure point group operations)
 out of a pool of  4 trial point group operations.


The static configuration has the point symmetry C_1h.


Analysis of symmetry for dynamics (positions and initial velocities):
=====================================================================
 Subroutine PRICEL returns:
 Original cell was already a primitive cell.
 

 Routine SETGRP: Setting up the symmetry group for a 
 base centered monoclinic supercell.


 Subroutine GETGRP returns: Found  2 space group operations
 (whereof  2 operations were pure point group operations)
 out of a pool of  4 trial point group operations.


The dynamic configuration has the point symmetry C_1h.


Analysis of constrained symmetry for selective dynamics:
=====================================================================
 Subroutine PRICEL returns:
 Original cell was already a primitive cell.
 

 Routine SETGRP: Setting up the symmetry group for a 
 base centered monoclinic supercell.


 Subroutine GETGRP returns: Found  2 space group operations
 (whereof  2 operations were pure point group operations)
 out of a pool of  4 trial point group operations.


The constrained configuration has the point symmetry C_1h.
 
 
 KPOINTS: K-Spacing Value to Generate K-Mesh: 0.02

Automatic generation of k-mesh.
Space group operators:
 irot       det(A)        alpha          n_x          n_y          n_z        tau_x        tau_y        tau_z
    1     1.000000     0.000000     1.000000     0.000000     0.000000     0.000000     0.000000     0.000000
    2    -1.000000   180.000000     0.866025     0.500000     0.000000     0.000000     0.000000     0.000000
 
 Subroutine IBZKPT returns following result:
 ===========================================
 
 Found     49 irreducible k-points:
 
 Following reciprocal coordinates:
            Coordinates               Weight
  0.000000  0.000000  0.000000      1.000000
  0.076923 -0.000000  0.000000      4.000000
  0.153846  0.000000 -0.000000      4.000000
  0.230769 -0.000000 -0.000000      4.000000
  0.307692 -0.000000  0.000000      4.000000
  0.384615 -0.000000  0.000000      4.000000
  0.461538 -0.000000 -0.000000      4.000000
  0.076923  0.076923  0.000000      2.000000
  0.153846  0.076923  0.000000      4.000000
  0.230769  0.076923  0.000000      4.000000
  0.307692  0.076923  0.000000      4.000000
  0.384615  0.076923  0.000000      4.000000
  0.461538  0.076923  0.000000      4.000000
 -0.461538  0.076923  0.000000      4.000000
 -0.384615  0.076923 -0.000000      4.000000
 -0.307692  0.076923 -0.000000      4.000000
 -0.230769  0.076923  0.000000      4.000000
 -0.153846  0.076923  0.000000      4.000000
 -0.076923  0.076923  0.000000      2.000000
  0.153846  0.153846  0.000000      2.000000
  0.230769  0.153846  0.000000      4.000000
  0.307692  0.153846  0.000000      4.000000
  0.384615  0.153846  0.000000      4.000000
  0.461538  0.153846  0.000000      4.000000
 -0.461538  0.153846  0.000000      4.000000
 -0.384615  0.153846 -0.000000      4.000000
 -0.307692  0.153846  0.000000      4.000000
 -0.230769  0.153846  0.000000      4.000000
 -0.153846  0.153846  0.000000      2.000000
  0.230769  0.230769  0.000000      2.000000
  0.307692  0.230769  0.000000      4.000000
  0.384615  0.230769  0.000000      4.000000
  0.461538  0.230769  0.000000      4.000000
 -0.461538  0.230769  0.000000      4.000000
 -0.384615  0.230769  0.000000      4.000000
 -0.307692  0.230769  0.000000      4.000000
 -0.230769  0.230769  0.000000      2.000000
  0.307692  0.307692  0.000000      2.000000
  0.384615  0.307692  0.000000      4.000000
  0.461538  0.307692  0.000000      4.000000
 -0.461538  0.307692 -0.000000      4.000000
 -0.384615  0.307692 -0.000000      4.000000
 -0.307692  0.307692  0.000000      2.000000
  0.384615  0.384615  0.000000      2.000000
  0.461538  0.384615  0.000000      4.000000
 -0.461538  0.384615  0.000000      4.000000
 -0.384615  0.384615  0.000000      2.000000
  0.461538  0.461538  0.000000      2.000000
 -0.461538  0.461538  0.000000      2.000000
 
 Following cartesian coordinates:
            Coordinates               Weight
  0.000000  0.000000  0.000000      1.000000
  0.029666 -0.000018 -0.000287      4.000000
  0.059331 -0.000037 -0.000574      4.000000
  0.088997 -0.000055 -0.000861      4.000000
  0.118662 -0.000073 -0.001148      4.000000
  0.148328 -0.000092 -0.001435      4.000000
  0.177993 -0.000110 -0.001723      4.000000
  0.044482  0.025682  0.000000      2.000000
  0.074148  0.025664 -0.000287      4.000000
  0.103813  0.025645 -0.000574      4.000000
  0.133479  0.025627 -0.000861      4.000000
  0.163145  0.025609 -0.001148      4.000000
  0.192810  0.025590 -0.001435      4.000000
 -0.163176  0.025810  0.002010      4.000000
 -0.133511  0.025792  0.001723      4.000000
 -0.103845  0.025774  0.001435      4.000000
 -0.074180  0.025755  0.001148      4.000000
 -0.044514  0.025737  0.000861      4.000000
 -0.014849  0.025719  0.000574      2.000000
  0.088965  0.051364  0.000000      2.000000
  0.118630  0.051346 -0.000287      4.000000
  0.148296  0.051327 -0.000574      4.000000
  0.177961  0.051309 -0.000861      4.000000
  0.207627  0.051291 -0.001148      4.000000
 -0.148359  0.051511  0.002297      4.000000
 -0.118694  0.051492  0.002010      4.000000
 -0.089028  0.051474  0.001723      4.000000
 -0.059363  0.051456  0.001435      4.000000
 -0.029697  0.051437  0.001148      2.000000
  0.133447  0.077046  0.000000      2.000000
  0.163113  0.077027 -0.000287      4.000000
  0.192778  0.077009 -0.000574      4.000000
  0.222444  0.076991 -0.000861      4.000000
 -0.133543  0.077211  0.002584      4.000000
 -0.103877  0.077193  0.002297      4.000000
 -0.074211  0.077174  0.002010      4.000000
 -0.044546  0.077156  0.001723      2.000000
  0.177930  0.102728  0.000000      2.000000
  0.207595  0.102709 -0.000287      4.000000
  0.237261  0.102691 -0.000574      4.000000
 -0.118726  0.102911  0.002871      4.000000
 -0.089060  0.102893  0.002584      4.000000
 -0.059395  0.102874  0.002297      2.000000
  0.222412  0.128410  0.000000      2.000000
  0.252078  0.128391 -0.000287      4.000000
 -0.103909  0.128611  0.003158      4.000000
 -0.074243  0.128593  0.002871      2.000000
  0.266894  0.154092  0.000000      2.000000
 -0.089092  0.154312  0.003445      2.000000
 


--------------------------------------------------------------------------------------------------------




 Dimension of arrays:
   k-points           NKPTS =     49   k-points in BZ     NKDIM =     49   number of bands    NBANDS=     62
   number of dos      NEDOS =    301   number of ions     NIONS =     26
   non local maximal  LDIM  =      5   non local SUM 2l+1 LMDIM =     13
   total plane-waves  NPLWV = 184320
   max r-space proj   IRMAX =      1   max aug-charges    IRDMAX= 191029
   dimension x,y,z NGX =    24 NGY =   24 NGZ =  320
   dimension x,y,z NGXF=    48 NGYF=   48 NGZF=  640
   support grid    NGXF=    96 NGYF=   96 NGZF= 1280
   ions per type =               9  10   7
 NGX,Y,Z   is equivalent  to a cutoff of  13.33, 13.33, 12.57 a.u.
 NGXF,Y,Z  is equivalent  to a cutoff of  26.66, 26.66, 25.15 a.u.


 I would recommend the setting:
   dimension x,y,z NGX =    22 NGY =   22 NGZ =  315
 SYSTEM =  unknown system                          
 POSCAR =  Layer                                   

 Startparameter for this run:
   NWRITE =      2    write-flag & timer
   PREC   = accura    normal or accurate (medium, high low for compatibility)
   ISTART =      0    job   : 0-new  1-cont  2-samecut
   ICHARG =      2    charge: 1-file 2-atom 10-const
   ISPIN  =      1    spin polarized calculation?
   LNONCOLLINEAR =      F non collinear calculations
   LSORBIT =      F    spin-orbit coupling
   INIWAV =      1    electr: 0-lowe 1-rand  2-diag
   LASPH  =      F    aspherical Exc in radial PAW
   METAGGA=      F    non-selfconsistent MetaGGA calc.

 Electronic Relaxation 1
   ENCUT  =  520.0 eV  38.22 Ry    6.18 a.u.   5.57  5.57 78.67*2*pi/ulx,y,z
   ENINI  =  520.0     initial cutoff
   ENAUG  =  605.4 eV  augmentation charge cutoff
   NELM   =    100;   NELMIN=  6; NELMDL=  0     # of ELM steps 
   EDIFF  = 0.1E-04   stopping-criterion for ELM
   LREAL  =      F    real-space projection
   NLSPLINE    = F    spline interpolate recip. space projectors
   LCOMPAT=      F    compatible to vasp.4.4
   GGA_COMPAT  = T    GGA compatible to vasp.4.4-vasp.4.6
   LMAXPAW     = -100 max onsite density
   LMAXMIX     =    2 max onsite mixed and CHGCAR
   VOSKOWN=      0    Vosko Wilk Nusair interpolation
   ROPT   =    0.00000   0.00000   0.00000
 Ionic relaxation
   EDIFFG = -.2E-01   stopping-criterion for IOM
   NSW    =    500    number of steps for IOM
   NBLOCK =      1;   KBLOCK =    500    inner block; outer block 
   IBRION =      2    ionic relax: 0-MD 1-quasi-New 2-CG
   NFREE  =      1    steps in history (QN), initial steepest desc. (CG)
   ISIF   =      2    stress and relaxation
   IWAVPR =     11    prediction:  0-non 1-charg 2-wave 3-comb
   ISYM   =      2    0-nonsym 1-usesym 2-fastsym
   LCORR  =      T    Harris-Foulkes like correction to forces

   POTIM  = 0.5000    time-step for ionic-motion
   TEIN   =    0.0    initial temperature
   TEBEG  =    0.0;   TEEND  =   0.0 temperature during run
   SMASS  =  -3.00    Nose mass-parameter (am)
   estimated Nose-frequenzy (Omega)   =  0.10E-29 period in steps =****** mass=  -0.205E-27a.u.
   SCALEE = 1.0000    scale energy and forces
   NPACO  =    256;   APACO  = 16.0  distance and # of slots for P.C.
   PSTRESS=    0.0 pullay stress

  Mass of Ions in am
   POMASS =  16.00 24.30 26.98
  Ionic Valenz
   ZVAL   =   6.00  2.00  3.00
  Atomic Wigner-Seitz radii
   RWIGS  =  -1.00 -1.00 -1.00
  virtual crystal weights 
   VCA    =   1.00  1.00  1.00
   NELECT =      95.0000    total number of electrons
   NUPDOWN=      -1.0000    fix difference up-down

 DOS related values:
   EMIN   =  10.00;   EMAX   =-10.00  energy-range for DOS
   EFERMI =   0.00
   ISMEAR =     0;   SIGMA  =   0.05  broadening in eV -4-tet -1-fermi 0-gaus

 Electronic relaxation 2 (details)
   IALGO  =     38    algorithm
   LDIAG  =      T    sub-space diagonalisation (order eigenvalues)
   LSUBROT=      F    optimize rotation matrix (better conditioning)
   TURBO    =      0    0=normal 1=particle mesh
   IRESTART =      0    0=no restart 2=restart with 2 vectors
   NREBOOT  =      0    no. of reboots
   NMIN     =      0    reboot dimension
   EREF     =   0.00    reference energy to select bands
   IMIX   =      4    mixing-type and parameters
     AMIX     =   0.40;   BMIX     =  1.00
     AMIX_MAG =   1.60;   BMIX_MAG =  1.00
     AMIN     =   0.01
     WC   =   100.;   INIMIX=   1;  MIXPRE=   1;  MAXMIX= -45

 Intra band minimization:
   WEIMIN = 0.0010     energy-eigenvalue tresh-hold
   EBREAK =  0.40E-07  absolut break condition
   DEPER  =   0.30     relativ break condition  

   TIME   =   0.40     timestep for ELM

  volume/ion in A,a.u.               =      12.62        85.19
  Fermi-wavevector in a.u.,A,eV,Ry     =   1.082928  2.046437 15.955996  1.172733
  Thomas-Fermi vector in A             =   2.218981
 
 Write flags
   LWAVE  =      F    write WAVECAR
   LCHARG =      T    write CHGCAR
   LVTOT  =      F    write LOCPOT, total local potential
   LVHAR  =      F    write LOCPOT, Hartree potential only
   LELF   =      F    write electronic localiz. function (ELF)
   LORBIT =      0    0 simple, 1 ext, 2 COOP (PROOUT)


 Dipole corrections
   LMONO  =      F    monopole corrections only (constant potential shift)
   LDIPOL =      F    correct potential (dipole corrections)
   IDIPOL =      0    1-x, 2-y, 3-z, 4-all directions 
   EPSILON=  1.0000000 bulk dielectric constant

 Exchange correlation treatment:
   GGA     =    --    GGA type
   LEXCH   =     8    internal setting for exchange type
   VOSKOWN=      0    Vosko Wilk Nusair interpolation
   LHFCALC =     F    Hartree Fock is set to
   LHFONE  =     F    Hartree Fock one center treatment
   AEXX    =    0.0000 exact exchange contribution

 Linear response parameters
   LEPSILON=     F    determine dielectric tensor
   LRPA    =     F    only Hartree local field effects (RPA)
   LNABLA  =     F    use nabla operator in PAW spheres
   LVEL    =     F    velocity operator in full k-point grid
   LINTERFAST=   F  fast interpolation
   KINTER  =     0    interpolate to denser k-point grid
   CSHIFT  =0.1000    complex shift for real part using Kramers Kronig
   OMEGAMAX=  -1.0    maximum frequency
   DEG_THRESHOLD= 0.2000000E-02 threshold for treating states as degnerate
   RTIME   =    0.100 relaxation time in fs

 Orbital magnetization related:
   ORBITALMAG=     F  switch on orbital magnetization
   LCHIMAG   =     F  perturbation theory with respect to B field
   DQ        =  0.001000  dq finite difference perturbation B field



--------------------------------------------------------------------------------------------------------


 conjugate gradient relaxation of ions
   using selective dynamics as specified on POSCAR
 charge density and potential will be updated during run
 non-spin polarized calculation
 Variant of blocked Davidson
 Davidson routine will perform the subspace rotation
 perform sub-space diagonalisation
    after iterative eigenvector-optimisation
 modified Broyden-mixing scheme, WC =      100.0
 initial mixing is a Kerker type mixing with AMIX =  0.4000 and BMIX =      1.0000
 Hartree-type preconditioning will be used
 using additional bands           14
 reciprocal scheme for non local part
 use partial core corrections
 calculate Harris-corrections to forces 
   (improved forces if not selfconsistent)
 use gradient corrections 
 use of overlap-Matrix (Vanderbilt PP)
 Gauss-broadening in eV      SIGMA  =   0.05


--------------------------------------------------------------------------------------------------------


  energy-cutoff  :      520.00
  volume of cell :      328.21
      direct lattice vectors                 reciprocal lattice vectors
     2.592590006 -1.495275227  0.051895165     0.385651852 -0.000238449 -0.003732228
     0.001348276  2.992885737 -0.051895149     0.192619423  0.334103627  0.003732228
     0.408967606 -0.708352458 42.303955012    -0.000236797  0.000410144  0.023647609

  length of vectors
     2.993336608  2.993335925 42.311861544     0.385669985  0.385670073  0.023652350


 
 k-points in units of 2pi/SCALE and weight: K-Spacing Value to Generate K-Mesh: 0.02
   0.00000000  0.00000000  0.00000000       0.006
   0.02966553 -0.00001834 -0.00028709       0.024
   0.05933105 -0.00003668 -0.00057419       0.024
   0.08899658 -0.00005503 -0.00086128       0.024
   0.11866211 -0.00007337 -0.00114838       0.024
   0.14832764 -0.00009171 -0.00143547       0.024
   0.17799316 -0.00011005 -0.00172257       0.024
   0.04448241  0.02568194  0.00000000       0.012
   0.07414793  0.02566359 -0.00028709       0.024
   0.10381346  0.02564525 -0.00057419       0.024
   0.13347899  0.02562691 -0.00086128       0.024
   0.16314451  0.02560857 -0.00114838       0.024
   0.19281004  0.02559023 -0.00143547       0.024
  -0.16317628  0.02581033  0.00200966       0.024
  -0.13351076  0.02579199  0.00172257       0.024
  -0.10384523  0.02577365  0.00143547       0.024
  -0.07417970  0.02575531  0.00114838       0.024
  -0.04451418  0.02573696  0.00086128       0.024
  -0.01484865  0.02571862  0.00057419       0.012
   0.08896481  0.05136387  0.00000000       0.012
   0.11863034  0.05134553 -0.00028709       0.024
   0.14829587  0.05132719 -0.00057419       0.024
   0.17796139  0.05130885 -0.00086128       0.024
   0.20762692  0.05129050 -0.00114838       0.024
  -0.14835941  0.05151061  0.00229676       0.024
  -0.11869388  0.05149227  0.00200966       0.024
  -0.08902835  0.05147393  0.00172257       0.024
  -0.05936282  0.05145558  0.00143547       0.024
  -0.02969730  0.05143724  0.00114838       0.012
   0.13344722  0.07704581  0.00000000       0.012
   0.16311274  0.07702747 -0.00028709       0.024
   0.19277827  0.07700913 -0.00057419       0.024
   0.22244380  0.07699078 -0.00086128       0.024
  -0.13354253  0.07721089  0.00258385       0.024
  -0.10387700  0.07719255  0.00229676       0.024
  -0.07421147  0.07717421  0.00200966       0.024
  -0.04454595  0.07715586  0.00172257       0.012
   0.17792962  0.10272775  0.00000000       0.012
   0.20759515  0.10270941 -0.00028709       0.024
   0.23726068  0.10269106 -0.00057419       0.024
  -0.11872565  0.10291117  0.00287094       0.024
  -0.08906012  0.10289283  0.00258385       0.024
  -0.05939459  0.10287448  0.00229676       0.012
   0.22241203  0.12840968  0.00000000       0.012
   0.25207756  0.12839134 -0.00028709       0.024
  -0.10390877  0.12861145  0.00315804       0.024
  -0.07424324  0.12859311  0.00287094       0.012
   0.26689444  0.15409162  0.00000000       0.012
  -0.08909189  0.15431173  0.00344513       0.012
 
 k-points in reciprocal lattice and weights: K-Spacing Value to Generate K-Mesh: 0.02
   0.00000000  0.00000000  0.00000000       0.006
   0.07692308 -0.00000000  0.00000000       0.024
   0.15384615  0.00000000 -0.00000000       0.024
   0.23076923 -0.00000000 -0.00000000       0.024
   0.30769231 -0.00000000  0.00000000       0.024
   0.38461538 -0.00000000  0.00000000       0.024
   0.46153846 -0.00000000 -0.00000000       0.024
   0.07692308  0.07692308  0.00000000       0.012
   0.15384615  0.07692308  0.00000000       0.024
   0.23076923  0.07692308  0.00000000       0.024
   0.30769231  0.07692308  0.00000000       0.024
   0.38461538  0.07692308  0.00000000       0.024
   0.46153846  0.07692308  0.00000000       0.024
  -0.46153846  0.07692308  0.00000000       0.024
  -0.38461538  0.07692308 -0.00000000       0.024
  -0.30769231  0.07692308 -0.00000000       0.024
  -0.23076923  0.07692308  0.00000000       0.024
  -0.15384615  0.07692308  0.00000000       0.024
  -0.07692308  0.07692308  0.00000000       0.012
   0.15384615  0.15384615  0.00000000       0.012
   0.23076923  0.15384615  0.00000000       0.024
   0.30769231  0.15384615  0.00000000       0.024
   0.38461538  0.15384615  0.00000000       0.024
   0.46153846  0.15384615  0.00000000       0.024
  -0.46153846  0.15384615  0.00000000       0.024
  -0.38461538  0.15384615 -0.00000000       0.024
  -0.30769231  0.15384615  0.00000000       0.024
  -0.23076923  0.15384615  0.00000000       0.024
  -0.15384615  0.15384615  0.00000000       0.012
   0.23076923  0.23076923  0.00000000       0.012
   0.30769231  0.23076923  0.00000000       0.024
   0.38461538  0.23076923  0.00000000       0.024
   0.46153846  0.23076923  0.00000000       0.024
  -0.46153846  0.23076923  0.00000000       0.024
  -0.38461538  0.23076923  0.00000000       0.024
  -0.30769231  0.23076923  0.00000000       0.024
  -0.23076923  0.23076923  0.00000000       0.012
   0.30769231  0.30769231  0.00000000       0.012
   0.38461538  0.30769231  0.00000000       0.024
   0.46153846  0.30769231  0.00000000       0.024
  -0.46153846  0.30769231 -0.00000000       0.024
  -0.38461538  0.30769231 -0.00000000       0.024
  -0.30769231  0.30769231  0.00000000       0.012
   0.38461538  0.38461538  0.00000000       0.012
   0.46153846  0.38461538  0.00000000       0.024
  -0.46153846  0.38461538  0.00000000       0.024
  -0.38461538  0.38461538  0.00000000       0.012
   0.46153846  0.46153846  0.00000000       0.012
  -0.46153846  0.46153846  0.00000000       0.012
 
 position of ions in fractional coordinates (direct lattice) 
   0.55519606  0.44480394  0.34573394
   0.50005071  0.49994929  0.52578789
   0.44486612  0.55513388  0.70584550
   0.24080776  0.75919224  0.28579337
   0.86993660  0.13006340  0.40572653
   0.18492248  0.81507752  0.46577313
   0.81517416  0.18482584  0.58579947
   0.13014750  0.86985250  0.64584795
   0.75923786  0.24076214  0.76578673
   0.58395380  0.41604620  0.25515279
   0.52738920  0.47261080  0.43575528
   0.47269814  0.52730186  0.61582444
   0.41607802  0.58392198  0.79642553
   0.89794698  0.10205302  0.31572475
   0.21251405  0.78748595  0.37572579
   0.84247176  0.15752824  0.49578829
   0.15762820  0.84237180  0.55578723
   0.78756019  0.21243981  0.67585034
   0.10211057  0.89788943  0.73585031
   0.99984557  0.00015443  0.02579127
   0.93811442  0.06188558  0.19505366
   0.62473880  0.37526120  0.13880442
   0.31205052  0.68794948  0.08207599
   0.06180610  0.93819390  0.85652729
   0.68769291  0.31230709  0.96950617
   0.37506151  0.62493849  0.91277695
 
 position of ions in cartesian coordinates  (Angst):
   1.58138944  0.25617499 14.63164177
   1.51213076  0.37613452 22.24291249
   1.44277188  0.49626757 29.85433403
   0.74221962  1.70965932 12.06328828
   2.42149329 -1.19892711 17.20223252
   0.67101324  1.83299234 19.67134374
   2.35323458 -1.08069959 24.81434635
   0.60272281  1.95127481 27.28353567
   2.28189908 -0.95714292 32.42271365
   1.61886297  0.19126896 10.80268566
   1.54615096  0.31720981 18.43701442
   1.47807568  0.43511963 26.04897569
   1.40521925  0.56131063 33.68323951
   2.45726715 -1.26088924 13.39770860
   0.70568324  1.77294217 15.86484873
   2.38715760 -1.13945597 21.00935071
   0.63710003  1.89173173 23.47646317
   2.31850800 -1.02055142 28.62098830
   0.56688039  2.01335568 31.08808130
   2.60273764 -1.51285144  1.14295177
   2.51200014 -1.35568953  8.29701331
   1.67696403  0.09063500  5.88492259
   0.84351302  1.53421406  3.45263161
   0.51179474  2.10876680 36.18901174
   2.17982347 -0.78034283 41.03342601
   1.34651951  0.66298152 38.60110775
 


--------------------------------------------------------------------------------------------------------


 k-point  1 :   0.0000 0.0000 0.0000  plane waves:    8961
 k-point  2 :   0.0769-0.0000 0.0000  plane waves:    8951
 k-point  3 :   0.1538 0.0000-0.0000  plane waves:    8925
 k-point  4 :   0.2308-0.0000-0.0000  plane waves:    8885
 k-point  5 :   0.3077-0.0000 0.0000  plane waves:    8832
 k-point  6 :   0.3846-0.0000 0.0000  plane waves:    8785
 k-point  7 :   0.4615-0.0000-0.0000  plane waves:    8792
 k-point  8 :   0.0769 0.0769 0.0000  plane waves:    8927
 k-point  9 :   0.1538 0.0769 0.0000  plane waves:    8904
 k-point 10 :   0.2308 0.0769 0.0000  plane waves:    8848
 k-point 11 :   0.3077 0.0769 0.0000  plane waves:    8830
 k-point 12 :   0.3846 0.0769 0.0000  plane waves:    8784
 k-point 13 :   0.4615 0.0769 0.0000  plane waves:    8767
 k-point 14 :  -0.4615 0.0769 0.0000  plane waves:    8791
 k-point 15 :  -0.3846 0.0769-0.0000  plane waves:    8830
 k-point 16 :  -0.3077 0.0769-0.0000  plane waves:    8846
 k-point 17 :  -0.2308 0.0769 0.0000  plane waves:    8908
 k-point 18 :  -0.1538 0.0769 0.0000  plane waves:    8931
 k-point 19 :  -0.0769 0.0769 0.0000  plane waves:    8952
 k-point 20 :   0.1538 0.1538 0.0000  plane waves:    8873
 k-point 21 :   0.2308 0.1538 0.0000  plane waves:    8838
 k-point 22 :   0.3077 0.1538 0.0000  plane waves:    8824
 k-point 23 :   0.3846 0.1538 0.0000  plane waves:    8786
 k-point 24 :   0.4615 0.1538 0.0000  plane waves:    8790
 k-point 25 :  -0.4615 0.1538 0.0000  plane waves:    8823
 k-point 26 :  -0.3846 0.1538-0.0000  plane waves:    8844
 k-point 27 :  -0.3077 0.1538 0.0000  plane waves:    8864
 k-point 28 :  -0.2308 0.1538 0.0000  plane waves:    8906
 k-point 29 :  -0.1538 0.1538 0.0000  plane waves:    8919
 k-point 30 :   0.2308 0.2308 0.0000  plane waves:    8830
 k-point 31 :   0.3077 0.2308 0.0000  plane waves:    8791
 k-point 32 :   0.3846 0.2308 0.0000  plane waves:    8822
 k-point 33 :   0.4615 0.2308 0.0000  plane waves:    8796
 k-point 34 :  -0.4615 0.2308 0.0000  plane waves:    8833
 k-point 35 :  -0.3846 0.2308 0.0000  plane waves:    8830
 k-point 36 :  -0.3077 0.2308 0.0000  plane waves:    8857
 k-point 37 :  -0.2308 0.2308 0.0000  plane waves:    8891
 k-point 38 :   0.3077 0.3077 0.0000  plane waves:    8832
 k-point 39 :   0.3846 0.3077 0.0000  plane waves:    8831
 k-point 40 :   0.4615 0.3077 0.0000  plane waves:    8781
 k-point 41 :  -0.4615 0.3077-0.0000  plane waves:    8812
 k-point 42 :  -0.3846 0.3077-0.0000  plane waves:    8829
 k-point 43 :  -0.3077 0.3077 0.0000  plane waves:    8847
 k-point 44 :   0.3846 0.3846 0.0000  plane waves:    8806
 k-point 45 :   0.4615 0.3846 0.0000  plane waves:    8776
 k-point 46 :  -0.4615 0.3846 0.0000  plane waves:    8794
 k-point 47 :  -0.3846 0.3846 0.0000  plane waves:    8789
 k-point 48 :   0.4615 0.4615 0.0000  plane waves:    8764
 k-point 49 :  -0.4615 0.4615 0.0000  plane waves:    8796

 maximum and minimum number of plane-waves per node :      2249     2177

 maximum number of plane-waves:      8961
 maximum index in each direction: 
   IXMAX=    6   IYMAX=    5   IZMAX=   78
   IXMIN=   -6   IYMIN=   -6   IZMIN=  -78

 WARNING: aliasing errors must be expected set NGX to  26 to avoid them
 NGY is ok and might be reduce to  24
 NGZ is ok and might be reduce to 314
 aliasing errors are usually negligible using standard VASP settings
 and one can safely disregard these warnings

 parallel 3D FFT for wavefunctions:
    minimum data exchange during FFTs selected (reduces bandwidth)
 parallel 3D FFT for charge:
    minimum data exchange during FFTs selected (reduces bandwidth)


 total amount of memory used by VASP on root node   199114. kBytes
========================================================================

   base      :      30000. kBytes
   nonl-proj :      35334. kBytes
   fftplans  :      55173. kBytes
   grid      :      22118. kBytes
   one-center:         56. kBytes
   wavefun   :      56433. kBytes
 
     INWAV:  cpu time    0.00: real time    0.00
 Broyden mixing: mesh for mixing (old mesh)
   NGX = 11   NGY = 11   NGZ =157
  (NGX  = 48   NGY  = 48   NGZ  =640)
  gives a total of  18997 points

 initial charge density was supplied:
 charge density of overlapping atoms calculated
 number of electron      95.0000000 magnetization 
 keeping initial charge density in first step


--------------------------------------------------------------------------------------------------------


 Maximum index for augmentation-charges        23271 (set IRDMAX)


--------------------------------------------------------------------------------------------------------


 First call to EWALD:  gamma=   0.257
 Maximum number of real-space cells 6x 6x 1
 Maximum number of reciprocal cells 1x 1x14

 FEWALD executed in parallel
    FEWALD:  cpu time    0.00: real time    0.00


----------------------------------------- Iteration    1(   1)  ---------------------------------------


    POTLOK:  cpu time    0.10: real time    0.10
    SETDIJ:  cpu time    0.11: real time    0.11
     EDDAV:  cpu time    9.12: real time    9.14
       DOS:  cpu time    0.00: real time    0.00
    --------------------------------------------
      LOOP:  cpu time    9.33: real time    9.35

 eigenvalue-minimisations  :  6100
 total energy-change (2. order) : 0.4705967E+03  (-0.4139383E+04)
 number of electron      95.0000000 magnetization 
 augmentation part       95.0000000 magnetization 

 Free energy of the ion-electron system (eV)
  ---------------------------------------------------
  alpha Z        PSCENC =       123.19671547
  Ewald energy   TEWEN  =     13285.85138638
  -Hartree energ DENC   =    -18047.82610394
  -exchange      EXHF   =         0.00000000
  -V(xc)+E(xc)   XCENC  =      -419.43545760
  PAW double counting   =      4235.41334458    -3509.29226066
  entropy T*S    EENTRO =        -0.00458143
  eigenvalues    EBANDS =       306.33390880
  atomic energy  EATOM  =      4496.35971583
  ---------------------------------------------------
  free energy    TOTEN  =       470.59666743 eV

  energy without entropy =      470.60124886  energy(sigma->0) =      470.59895814


--------------------------------------------------------------------------------------------------------




----------------------------------------- Iteration    1(   2)  ---------------------------------------


     EDDAV:  cpu time   10.87: real time   10.88
       DOS:  cpu time    0.00: real time    0.00
    --------------------------------------------
      LOOP:  cpu time   10.87: real time   10.88

 eigenvalue-minimisations  :  7886
 total energy-change (2. order) :-0.5641189E+03  (-0.5348929E+03)
 number of electron      95.0000000 magnetization 
 augmentation part       95.0000000 magnetization 

 Free energy of the ion-electron system (eV)
  ---------------------------------------------------
  alpha Z        PSCENC =       123.19671547
  Ewald energy   TEWEN  =     13285.85138638
  -Hartree energ DENC   =    -18047.82610394
  -exchange      EXHF   =         0.00000000
  -V(xc)+E(xc)   XCENC  =      -419.43545760
  PAW double counting   =      4235.41334458    -3509.29226066
  entropy T*S    EENTRO =        -0.00243565
  eigenvalues    EBANDS =      -257.78709074
  atomic energy  EATOM  =      4496.35971583
  ---------------------------------------------------
  free energy    TOTEN  =       -93.52218634 eV

  energy without entropy =      -93.51975069  energy(sigma->0) =      -93.52096851


--------------------------------------------------------------------------------------------------------




----------------------------------------- Iteration    1(   3)  ---------------------------------------


     EDDAV:  cpu time   10.16: real time   10.17
       DOS:  cpu time    0.00: real time    0.00
    --------------------------------------------
      LOOP:  cpu time   10.17: real time   10.18

 eigenvalue-minimisations  :  7082
 total energy-change (2. order) :-0.5404554E+02  (-0.5373227E+02)
 number of electron      95.0000000 magnetization 
 augmentation part       95.0000000 magnetization 

 Free energy of the ion-electron system (eV)
  ---------------------------------------------------
  alpha Z        PSCENC =       123.19671547
  Ewald energy   TEWEN  =     13285.85138638
  -Hartree energ DENC   =    -18047.82610394
  -exchange      EXHF   =         0.00000000
  -V(xc)+E(xc)   XCENC  =      -419.43545760
  PAW double counting   =      4235.41334458    -3509.29226066
  entropy T*S    EENTRO =        -0.00326960
  eigenvalues    EBANDS =      -311.83179511
  atomic energy  EATOM  =      4496.35971583
  ---------------------------------------------------
  free energy    TOTEN  =      -147.56772465 eV

  energy without entropy =     -147.56445505  energy(sigma->0) =     -147.56608985


--------------------------------------------------------------------------------------------------------




----------------------------------------- Iteration    1(   4)  ---------------------------------------


     EDDAV:  cpu time   10.21: real time   10.22
       DOS:  cpu time    0.00: real time    0.00
    --------------------------------------------
      LOOP:  cpu time   10.21: real time   10.22

 eigenvalue-minimisations  :  7120
 total energy-change (2. order) :-0.7002814E+00  (-0.6991106E+00)
 number of electron      95.0000000 magnetization 
 augmentation part       95.0000000 magnetization 

 Free energy of the ion-electron system (eV)
  ---------------------------------------------------
  alpha Z        PSCENC =       123.19671547
  Ewald energy   TEWEN  =     13285.85138638
  -Hartree energ DENC   =    -18047.82610394
  -exchange      EXHF   =         0.00000000
  -V(xc)+E(xc)   XCENC  =      -419.43545760
  PAW double counting   =      4235.41334458    -3509.29226066
  entropy T*S    EENTRO =        -0.00331175
  eigenvalues    EBANDS =      -312.53203440
  atomic energy  EATOM  =      4496.35971583
  ---------------------------------------------------
  free energy    TOTEN  =      -148.26800609 eV

  energy without entropy =     -148.26469435  energy(sigma->0) =     -148.26635022


--------------------------------------------------------------------------------------------------------




----------------------------------------- Iteration    1(   5)  ---------------------------------------


     EDDAV:  cpu time   10.28: real time   10.29
       DOS:  cpu time    0.00: real time    0.00
    CHARGE:  cpu time    0.69: real time    0.69
    MIXING:  cpu time    0.00: real time    0.00
    --------------------------------------------
      LOOP:  cpu time   10.98: real time   10.99

 eigenvalue-minimisations  :  7190
 total energy-change (2. order) :-0.1062367E-01  (-0.1061805E-01)
 number of electron      95.0000001 magnetization 
 augmentation part        6.9217554 magnetization 

 Broyden mixing:
  rms(total) = 0.21898E+01    rms(broyden)= 0.21893E+01
  rms(prec ) = 0.22445E+01
  weight for this iteration     100.00

 Free energy of the ion-electron system (eV)
  ---------------------------------------------------
  alpha Z        PSCENC =       123.19671547
  Ewald energy   TEWEN  =     13285.85138638
  -Hartree energ DENC   =    -18047.82610394
  -exchange      EXHF   =         0.00000000
  -V(xc)+E(xc)   XCENC  =      -419.43545760
  PAW double counting   =      4235.41334458    -3509.29226066
  entropy T*S    EENTRO =        -0.00331794
  eigenvalues    EBANDS =      -312.54265189
  atomic energy  EATOM  =      4496.35971583
  ---------------------------------------------------
  free energy    TOTEN  =      -148.27862977 eV

  energy without entropy =     -148.27531183  energy(sigma->0) =     -148.27697080


--------------------------------------------------------------------------------------------------------




----------------------------------------- Iteration    1(   6)  ---------------------------------------


    POTLOK:  cpu time    0.10: real time    0.10
    SETDIJ:  cpu time    0.10: real time    0.10
     EDDAV:  cpu time   10.07: real time   10.08
       DOS:  cpu time    0.00: real time    0.00
    CHARGE:  cpu time    0.68: real time    0.68
    MIXING:  cpu time    0.01: real time    0.01
    --------------------------------------------
      LOOP:  cpu time   10.96: real time   10.97

 eigenvalue-minimisations  :  6918
 total energy-change (2. order) : 0.1436462E+02  (-0.8299132E+01)
 number of electron      95.0000002 magnetization 
 augmentation part        5.5850540 magnetization 

 Broyden mixing:
  rms(total) = 0.74916E+00    rms(broyden)= 0.74823E+00
  rms(prec ) = 0.75564E+00
  weight for this iteration     100.00

 eigenvalues of (default mixing * dielectric matrix)
  average eigenvalue GAMMA=   0.8369
  0.8369

 Free energy of the ion-electron system (eV)
  ---------------------------------------------------
  alpha Z        PSCENC =       123.19671547
  Ewald energy   TEWEN  =     13285.85138638
  -Hartree energ DENC   =    -18220.15273868
  -exchange      EXHF   =         0.00000000
  -V(xc)+E(xc)   XCENC  =      -407.25872622
  PAW double counting   =      5014.29710449    -4291.28736042
  entropy T*S    EENTRO =        -0.00254158
  eigenvalues    EBANDS =      -134.91756258
  atomic energy  EATOM  =      4496.35971583
  ---------------------------------------------------
  free energy    TOTEN  =      -133.91400732 eV

  energy without entropy =     -133.91146574  energy(sigma->0) =     -133.91273653


--------------------------------------------------------------------------------------------------------




----------------------------------------- Iteration    1(   7)  ---------------------------------------


    POTLOK:  cpu time    0.10: real time    0.10
    SETDIJ:  cpu time    0.10: real time    0.10
     EDDAV:  cpu time    9.81: real time    9.82
       DOS:  cpu time    0.00: real time    0.00
    CHARGE:  cpu time    0.67: real time    0.68
    MIXING:  cpu time    0.01: real time    0.01
    --------------------------------------------
      LOOP:  cpu time   10.69: real time   10.70

 eigenvalue-minimisations  :  6680
 total energy-change (2. order) : 0.1228394E+00  (-0.1599662E+00)
 number of electron      95.0000002 magnetization 
 augmentation part        5.6286099 magnetization 

 Broyden mixing:
  rms(total) = 0.45657E+00    rms(broyden)= 0.45656E+00
  rms(prec ) = 0.46164E+00
  weight for this iteration     100.00

 eigenvalues of (default mixing * dielectric matrix)
  average eigenvalue GAMMA=   1.6407
  0.9718  2.3097

 Free energy of the ion-electron system (eV)
  ---------------------------------------------------
  alpha Z        PSCENC =       123.19671547
  Ewald energy   TEWEN  =     13285.85138638
  -Hartree energ DENC   =    -18217.23730982
  -exchange      EXHF   =         0.00000000
  -V(xc)+E(xc)   XCENC  =      -406.94609181
  PAW double counting   =      5284.33135047    -4560.88675357
  entropy T*S    EENTRO =        -0.00344917
  eigenvalues    EBANDS =      -138.45673171
  atomic energy  EATOM  =      4496.35971583
  ---------------------------------------------------
  free energy    TOTEN  =      -133.79116794 eV

  energy without entropy =     -133.78771877  energy(sigma->0) =     -133.78944335


--------------------------------------------------------------------------------------------------------




----------------------------------------- Iteration    1(   8)  ---------------------------------------


    POTLOK:  cpu time    0.10: real time    0.10
    SETDIJ:  cpu time    0.10: real time    0.10
     EDDAV:  cpu time   10.25: real time   10.26
       DOS:  cpu time    0.00: real time    0.00
    CHARGE:  cpu time    0.68: real time    0.68
    MIXING:  cpu time    0.01: real time    0.01
    --------------------------------------------
      LOOP:  cpu time   11.14: real time   11.15

 eigenvalue-minimisations  :  7170
 total energy-change (2. order) : 0.1028742E+00  (-0.4675354E-01)
 number of electron      95.0000002 magnetization 
 augmentation part        5.6799194 magnetization 

 Broyden mixing:
  rms(total) = 0.80559E-01    rms(broyden)= 0.80508E-01
  rms(prec ) = 0.84605E-01
  weight for this iteration     100.00

 eigenvalues of (default mixing * dielectric matrix)
  average eigenvalue GAMMA=   1.3962
  2.4379  0.8754  0.8754

 Free energy of the ion-electron system (eV)
  ---------------------------------------------------
  alpha Z        PSCENC =       123.19671547
  Ewald energy   TEWEN  =     13285.85138638
  -Hartree energ DENC   =    -18221.62700708
  -exchange      EXHF   =         0.00000000
  -V(xc)+E(xc)   XCENC  =      -405.49546606
  PAW double counting   =      5764.15547406    -5040.38463066
  entropy T*S    EENTRO =        -0.00393620
  eigenvalues    EBANDS =      -135.74054553
  atomic energy  EATOM  =      4496.35971583
  ---------------------------------------------------
  free energy    TOTEN  =      -133.68829379 eV

  energy without entropy =     -133.68435759  energy(sigma->0) =     -133.68632569


--------------------------------------------------------------------------------------------------------




----------------------------------------- Iteration    1(   9)  ---------------------------------------


    POTLOK:  cpu time    0.10: real time    0.10
    SETDIJ:  cpu time    0.10: real time    0.10
     EDDAV:  cpu time    9.91: real time    9.92
       DOS:  cpu time    0.00: real time    0.00
    CHARGE:  cpu time    0.67: real time    0.67
    MIXING:  cpu time    0.01: real time    0.01
    --------------------------------------------
      LOOP:  cpu time   10.79: real time   10.80

 eigenvalue-minimisations  :  6940
 total energy-change (2. order) : 0.1186932E-01  (-0.6349348E-02)
 number of electron      95.0000002 magnetization 
 augmentation part        5.6566297 magnetization 

 Broyden mixing:
  rms(total) = 0.45889E-01    rms(broyden)= 0.45886E-01
  rms(prec ) = 0.47062E-01
  weight for this iteration     100.00

 eigenvalues of (default mixing * dielectric matrix)
  average eigenvalue GAMMA=   1.5808
  0.9646  0.9646  2.4511  1.9428

 Free energy of the ion-electron system (eV)
  ---------------------------------------------------
  alpha Z        PSCENC =       123.19671547
  Ewald energy   TEWEN  =     13285.85138638
  -Hartree energ DENC   =    -18225.55239578
  -exchange      EXHF   =         0.00000000
  -V(xc)+E(xc)   XCENC  =      -405.12522347
  PAW double counting   =      5778.07425162    -5054.36032919
  entropy T*S    EENTRO =        -0.00414507
  eigenvalues    EBANDS =      -132.11640026
  atomic energy  EATOM  =      4496.35971583
  ---------------------------------------------------
  free energy    TOTEN  =      -133.67642447 eV

  energy without entropy =     -133.67227939  energy(sigma->0) =     -133.67435193


--------------------------------------------------------------------------------------------------------




----------------------------------------- Iteration    1(  10)  ---------------------------------------


    POTLOK:  cpu time    0.10: real time    0.10
    SETDIJ:  cpu time    0.10: real time    0.10
     EDDAV:  cpu time   10.01: real time   10.02
       DOS:  cpu time    0.00: real time    0.00
    CHARGE:  cpu time    0.68: real time    0.68
    MIXING:  cpu time    0.01: real time    0.01
    --------------------------------------------
      LOOP:  cpu time   10.90: real time   10.91

 eigenvalue-minimisations  :  6852
 total energy-change (2. order) :-0.4916043E-03  (-0.4618431E-02)
 number of electron      95.0000002 magnetization 
 augmentation part        5.6395134 magnetization 

 Broyden mixing:
  rms(total) = 0.26134E-01    rms(broyden)= 0.26112E-01
  rms(prec ) = 0.27055E-01
  weight for this iteration     100.00

 eigenvalues of (default mixing * dielectric matrix)
  average eigenvalue GAMMA=   1.3315
  2.5160  1.9062  0.9299  0.9299  0.3755

 Free energy of the ion-electron system (eV)
  ---------------------------------------------------
  alpha Z        PSCENC =       123.19671547
  Ewald energy   TEWEN  =     13285.85138638
  -Hartree energ DENC   =    -18226.93979107
  -exchange      EXHF   =         0.00000000
  -V(xc)+E(xc)   XCENC  =      -404.95832276
  PAW double counting   =      5758.55730886    -5034.87245785
  entropy T*S    EENTRO =        -0.00396064
  eigenvalues    EBANDS =      -130.86751029
  atomic energy  EATOM  =      4496.35971583
  ---------------------------------------------------
  free energy    TOTEN  =      -133.67691607 eV

  energy without entropy =     -133.67295543  energy(sigma->0) =     -133.67493575


--------------------------------------------------------------------------------------------------------




----------------------------------------- Iteration    1(  11)  ---------------------------------------


    POTLOK:  cpu time    0.10: real time    0.10
    SETDIJ:  cpu time    0.10: real time    0.10
     EDDAV:  cpu time   10.02: real time   10.03
       DOS:  cpu time    0.00: real time    0.00
    CHARGE:  cpu time    0.68: real time    0.68
    MIXING:  cpu time    0.01: real time    0.01
    --------------------------------------------
      LOOP:  cpu time   10.91: real time   10.92

 eigenvalue-minimisations  :  6952
 total energy-change (2. order) : 0.2465286E-03  (-0.3427733E-03)
 number of electron      95.0000002 magnetization 
 augmentation part        5.6422106 magnetization 

 Broyden mixing:
  rms(total) = 0.18766E-01    rms(broyden)= 0.18766E-01
  rms(prec ) = 0.19466E-01
  weight for this iteration     100.00

 eigenvalues of (default mixing * dielectric matrix)
  average eigenvalue GAMMA=   1.4405
  2.7292  2.2215  0.9685  0.9685  1.0086  0.7463

 Free energy of the ion-electron system (eV)
  ---------------------------------------------------
  alpha Z        PSCENC =       123.19671547
  Ewald energy   TEWEN  =     13285.85138638
  -Hartree energ DENC   =    -18226.68619398
  -exchange      EXHF   =         0.00000000
  -V(xc)+E(xc)   XCENC  =      -404.93231118
  PAW double counting   =      5744.47519292    -5020.79034744
  entropy T*S    EENTRO =        -0.00406896
  eigenvalues    EBANDS =      -131.14675858
  atomic energy  EATOM  =      4496.35971583
  ---------------------------------------------------
  free energy    TOTEN  =      -133.67666954 eV

  energy without entropy =     -133.67260058  energy(sigma->0) =     -133.67463506


--------------------------------------------------------------------------------------------------------




----------------------------------------- Iteration    1(  12)  ---------------------------------------


    POTLOK:  cpu time    0.10: real time    0.10
    SETDIJ:  cpu time    0.10: real time    0.10
     EDDAV:  cpu time   11.24: real time   11.26
       DOS:  cpu time    0.00: real time    0.00
    CHARGE:  cpu time    0.69: real time    0.69
    MIXING:  cpu time    0.00: real time    0.00
    --------------------------------------------
      LOOP:  cpu time   12.14: real time   12.16

 eigenvalue-minimisations  :  7918
 total energy-change (2. order) : 0.1617834E-03  (-0.7147316E-03)
 number of electron      95.0000002 magnetization 
 augmentation part        5.6424667 magnetization 

 Broyden mixing:
  rms(total) = 0.10381E-01    rms(broyden)= 0.10372E-01
  rms(prec ) = 0.10925E-01
  weight for this iteration     100.00

 eigenvalues of (default mixing * dielectric matrix)
  average eigenvalue GAMMA=   1.3993
  2.8971  2.4995  0.9295  0.9295  0.9349  0.9349  0.6699

 Free energy of the ion-electron system (eV)
  ---------------------------------------------------
  alpha Z        PSCENC =       123.19671547
  Ewald energy   TEWEN  =     13285.85138638
  -Hartree energ DENC   =    -18226.43370397
  -exchange      EXHF   =         0.00000000
  -V(xc)+E(xc)   XCENC  =      -404.89396116
  PAW double counting   =      5724.80039817    -5001.12815087
  entropy T*S    EENTRO =        -0.00414795
  eigenvalues    EBANDS =      -131.42475966
  atomic energy  EATOM  =      4496.35971583
  ---------------------------------------------------
  free energy    TOTEN  =      -133.67650776 eV

  energy without entropy =     -133.67235981  energy(sigma->0) =     -133.67443379


--------------------------------------------------------------------------------------------------------




----------------------------------------- Iteration    1(  13)  ---------------------------------------


    POTLOK:  cpu time    0.10: real time    0.10
    SETDIJ:  cpu time    0.10: real time    0.10
     EDDAV:  cpu time   10.28: real time   10.29
       DOS:  cpu time    0.00: real time    0.00
    CHARGE:  cpu time    0.69: real time    0.69
    MIXING:  cpu time    0.01: real time    0.01
    --------------------------------------------
      LOOP:  cpu time   11.18: real time   11.19

 eigenvalue-minimisations  :  7060
 total energy-change (2. order) : 0.1552246E-03  (-0.1479186E-03)
 number of electron      95.0000002 magnetization 
 augmentation part        5.6453832 magnetization 

 Broyden mixing:
  rms(total) = 0.75232E-02    rms(broyden)= 0.75222E-02
  rms(prec ) = 0.81123E-02
  weight for this iteration     100.00

 eigenvalues of (default mixing * dielectric matrix)
  average eigenvalue GAMMA=   1.3698
  2.9647  2.5540  0.9416  0.9416  1.0219  1.0219  0.8137  0.6987

 Free energy of the ion-electron system (eV)
  ---------------------------------------------------
  alpha Z        PSCENC =       123.19671547
  Ewald energy   TEWEN  =     13285.85138638
  -Hartree energ DENC   =    -18225.91535418
  -exchange      EXHF   =         0.00000000
  -V(xc)+E(xc)   XCENC  =      -404.91555162
  PAW double counting   =      5716.68787383    -4993.01129722
  entropy T*S    EENTRO =        -0.00415079
  eigenvalues    EBANDS =      -131.92569024
  atomic energy  EATOM  =      4496.35971583
  ---------------------------------------------------
  free energy    TOTEN  =      -133.67635254 eV

  energy without entropy =     -133.67220175  energy(sigma->0) =     -133.67427714


--------------------------------------------------------------------------------------------------------




----------------------------------------- Iteration    1(  14)  ---------------------------------------


    POTLOK:  cpu time    0.10: real time    0.10
    SETDIJ:  cpu time    0.10: real time    0.10
     EDDAV:  cpu time   10.65: real time   10.66
       DOS:  cpu time    0.00: real time    0.00
    CHARGE:  cpu time    0.69: real time    0.69
    MIXING:  cpu time    0.01: real time    0.01
    --------------------------------------------
      LOOP:  cpu time   11.55: real time   11.56

 eigenvalue-minimisations  :  7400
 total energy-change (2. order) : 0.1069545E-03  (-0.6378579E-04)
 number of electron      95.0000002 magnetization 
 augmentation part        5.6457608 magnetization 

 Broyden mixing:
  rms(total) = 0.25283E-02    rms(broyden)= 0.25253E-02
  rms(prec ) = 0.35889E-02
  weight for this iteration     100.00

 eigenvalues of (default mixing * dielectric matrix)
  average eigenvalue GAMMA=   1.4393
  3.0097  2.5485  1.9393  0.9253  0.9253  1.0190  0.9543  0.9543  0.6776

 Free energy of the ion-electron system (eV)
  ---------------------------------------------------
  alpha Z        PSCENC =       123.19671547
  Ewald energy   TEWEN  =     13285.85138638
  -Hartree energ DENC   =    -18225.73604425
  -exchange      EXHF   =         0.00000000
  -V(xc)+E(xc)   XCENC  =      -404.91940863
  PAW double counting   =      5715.15666371    -4991.47880558
  entropy T*S    EENTRO =        -0.00414635
  eigenvalues    EBANDS =      -132.10232216
  atomic energy  EATOM  =      4496.35971583
  ---------------------------------------------------
  free energy    TOTEN  =      -133.67624558 eV

  energy without entropy =     -133.67209924  energy(sigma->0) =     -133.67417241


--------------------------------------------------------------------------------------------------------




----------------------------------------- Iteration    1(  15)  ---------------------------------------


    POTLOK:  cpu time    0.10: real time    0.10
    SETDIJ:  cpu time    0.10: real time    0.10
     EDDAV:  cpu time   10.18: real time   10.19
       DOS:  cpu time    0.00: real time    0.00
    CHARGE:  cpu time    0.68: real time    0.69
    MIXING:  cpu time    0.00: real time    0.00
    --------------------------------------------
      LOOP:  cpu time   11.08: real time   11.09

 eigenvalue-minimisations  :  7006
 total energy-change (2. order) : 0.6833173E-04  (-0.9265966E-05)
 number of electron      95.0000002 magnetization 
 augmentation part        5.6452997 magnetization 

 Broyden mixing:
  rms(total) = 0.13832E-02    rms(broyden)= 0.13829E-02
  rms(prec ) = 0.24166E-02
  weight for this iteration     100.00

 eigenvalues of (default mixing * dielectric matrix)
  average eigenvalue GAMMA=   1.4322
  3.0625  2.4761  2.4761  0.9204  0.9204  1.0011  1.0011  0.8831  0.8831  0.6977

 Free energy of the ion-electron system (eV)
  ---------------------------------------------------
  alpha Z        PSCENC =       123.19671547
  Ewald energy   TEWEN  =     13285.85138638
  -Hartree energ DENC   =    -18225.58137229
  -exchange      EXHF   =         0.00000000
  -V(xc)+E(xc)   XCENC  =      -404.91500315
  PAW double counting   =      5715.57766459    -4991.89995903
  entropy T*S    EENTRO =        -0.00414984
  eigenvalues    EBANDS =      -132.26117521
  atomic energy  EATOM  =      4496.35971583
  ---------------------------------------------------
  free energy    TOTEN  =      -133.67617725 eV

  energy without entropy =     -133.67202741  energy(sigma->0) =     -133.67410233


--------------------------------------------------------------------------------------------------------




----------------------------------------- Iteration    1(  16)  ---------------------------------------


    POTLOK:  cpu time    0.10: real time    0.10
    SETDIJ:  cpu time    0.10: real time    0.10
     EDDAV:  cpu time    9.77: real time    9.78
       DOS:  cpu time    0.00: real time    0.00
    CHARGE:  cpu time    0.70: real time    0.70
    MIXING:  cpu time    0.01: real time    0.01
    --------------------------------------------
      LOOP:  cpu time   10.68: real time   10.69

 eigenvalue-minimisations  :  6504
 total energy-change (2. order) : 0.3793212E-04  (-0.5247878E-05)
 number of electron      95.0000002 magnetization 
 augmentation part        5.6448755 magnetization 

 Broyden mixing:
  rms(total) = 0.73677E-03    rms(broyden)= 0.73616E-03
  rms(prec ) = 0.19128E-02
  weight for this iteration     100.00

 eigenvalues of (default mixing * dielectric matrix)
  average eigenvalue GAMMA=   1.5350
  3.0285  3.0285  2.2926  2.1814  0.9267  0.9267  0.9862  0.9862  0.9168  0.9168
  0.6949

 Free energy of the ion-electron system (eV)
  ---------------------------------------------------
  alpha Z        PSCENC =       123.19671547
  Ewald energy   TEWEN  =     13285.85138638
  -Hartree energ DENC   =    -18225.46313083
  -exchange      EXHF   =         0.00000000
  -V(xc)+E(xc)   XCENC  =      -404.91236690
  PAW double counting   =      5716.06171256    -4992.38417909
  entropy T*S    EENTRO =        -0.00414962
  eigenvalues    EBANDS =      -132.38184312
  atomic energy  EATOM  =      4496.35971583
  ---------------------------------------------------
  free energy    TOTEN  =      -133.67613932 eV

  energy without entropy =     -133.67198970  energy(sigma->0) =     -133.67406451


--------------------------------------------------------------------------------------------------------




----------------------------------------- Iteration    1(  17)  ---------------------------------------


    POTLOK:  cpu time    0.10: real time    0.10
    SETDIJ:  cpu time    0.10: real time    0.10
     EDDAV:  cpu time   10.12: real time   10.13
       DOS:  cpu time    0.00: real time    0.00
    CHARGE:  cpu time    0.69: real time    0.69
    MIXING:  cpu time    0.00: real time    0.00
    --------------------------------------------
      LOOP:  cpu time   11.02: real time   11.03

 eigenvalue-minimisations  :  6862
 total energy-change (2. order) : 0.6483230E-04  (-0.6434077E-05)
 number of electron      95.0000002 magnetization 
 augmentation part        5.6452945 magnetization 

 Broyden mixing:
  rms(total) = 0.12236E-02    rms(broyden)= 0.12233E-02
  rms(prec ) = 0.17228E-02
  weight for this iteration     100.00

 eigenvalues of (default mixing * dielectric matrix)
  average eigenvalue GAMMA=   1.5726
  4.1698  3.0239  2.2887  2.2887  0.9280  0.9280  1.0029  1.0029  0.8825  0.8825
  0.6919  0.7813

 Free energy of the ion-electron system (eV)
  ---------------------------------------------------
  alpha Z        PSCENC =       123.19671547
  Ewald energy   TEWEN  =     13285.85138638
  -Hartree energ DENC   =    -18225.00485292
  -exchange      EXHF   =         0.00000000
  -V(xc)+E(xc)   XCENC  =      -404.91728351
  PAW double counting   =      5716.29786026    -4992.61854125
  entropy T*S    EENTRO =        -0.00415601
  eigenvalues    EBANDS =      -132.83691873
  atomic energy  EATOM  =      4496.35971583
  ---------------------------------------------------
  free energy    TOTEN  =      -133.67607448 eV

  energy without entropy =     -133.67191847  energy(sigma->0) =     -133.67399648


--------------------------------------------------------------------------------------------------------




----------------------------------------- Iteration    1(  18)  ---------------------------------------


    POTLOK:  cpu time    0.10: real time    0.10
    SETDIJ:  cpu time    0.10: real time    0.10
     EDDAV:  cpu time   10.63: real time   10.65
       DOS:  cpu time    0.00: real time    0.00
    CHARGE:  cpu time    0.69: real time    0.69
    MIXING:  cpu time    0.01: real time    0.01
    --------------------------------------------
      LOOP:  cpu time   11.54: real time   11.55

 eigenvalue-minimisations  :  7340
 total energy-change (2. order) : 0.2801663E-04  (-0.6985318E-05)
 number of electron      95.0000002 magnetization 
 augmentation part        5.6454512 magnetization 

 Broyden mixing:
  rms(total) = 0.11058E-02    rms(broyden)= 0.11056E-02
  rms(prec ) = 0.14187E-02
  weight for this iteration     100.00

 eigenvalues of (default mixing * dielectric matrix)
  average eigenvalue GAMMA=   1.5279
  4.4325  3.0195  2.3029  2.3029  0.9048  0.9048  1.0052  1.0052  0.9366  0.9366
  0.7303  0.6909  0.6909

 Free energy of the ion-electron system (eV)
  ---------------------------------------------------
  alpha Z        PSCENC =       123.19671547
  Ewald energy   TEWEN  =     13285.85138638
  -Hartree energ DENC   =    -18224.75322326
  -exchange      EXHF   =         0.00000000
  -V(xc)+E(xc)   XCENC  =      -404.91661987
  PAW double counting   =      5715.97338254    -4992.29383863
  entropy T*S    EENTRO =        -0.00415151
  eigenvalues    EBANDS =      -133.08941342
  atomic energy  EATOM  =      4496.35971583
  ---------------------------------------------------
  free energy    TOTEN  =      -133.67604647 eV

  energy without entropy =     -133.67189496  energy(sigma->0) =     -133.67397071


--------------------------------------------------------------------------------------------------------




----------------------------------------- Iteration    1(  19)  ---------------------------------------


    POTLOK:  cpu time    0.10: real time    0.10
    SETDIJ:  cpu time    0.10: real time    0.10
     EDDAV:  cpu time   11.42: real time   11.43
       DOS:  cpu time    0.00: real time    0.00
    CHARGE:  cpu time    0.69: real time    0.69
    MIXING:  cpu time    0.01: real time    0.01
    --------------------------------------------
      LOOP:  cpu time   12.32: real time   12.33

 eigenvalue-minimisations  :  8060
 total energy-change (2. order) : 0.2267989E-04  (-0.9716128E-05)
 number of electron      95.0000002 magnetization 
 augmentation part        5.6450124 magnetization 

 Broyden mixing:
  rms(total) = 0.12182E-02    rms(broyden)= 0.12178E-02
  rms(prec ) = 0.13385E-02
  weight for this iteration     100.00

 eigenvalues of (default mixing * dielectric matrix)
  average eigenvalue GAMMA=   1.6868
  6.1054  2.9832  2.4624  2.4624  1.1555  1.1555  0.9218  0.9218  1.0574  1.0574
  0.9216  0.9216  0.6975  0.7914

 Free energy of the ion-electron system (eV)
  ---------------------------------------------------
  alpha Z        PSCENC =       123.19671547
  Ewald energy   TEWEN  =     13285.85138638
  -Hartree energ DENC   =    -18224.58519382
  -exchange      EXHF   =         0.00000000
  -V(xc)+E(xc)   XCENC  =      -404.91028221
  PAW double counting   =      5716.38447640    -4992.70693318
  entropy T*S    EENTRO =        -0.00415056
  eigenvalues    EBANDS =      -133.26175810
  atomic energy  EATOM  =      4496.35971583
  ---------------------------------------------------
  free energy    TOTEN  =      -133.67602379 eV

  energy without entropy =     -133.67187323  energy(sigma->0) =     -133.67394851


--------------------------------------------------------------------------------------------------------




----------------------------------------- Iteration    1(  20)  ---------------------------------------


    POTLOK:  cpu time    0.10: real time    0.10
    SETDIJ:  cpu time    0.10: real time    0.10
     EDDAV:  cpu time    9.56: real time    9.58
       DOS:  cpu time    0.00: real time    0.00
    --------------------------------------------
      LOOP:  cpu time    9.77: real time    9.78

 eigenvalue-minimisations  :  6336
 total energy-change (2. order) : 0.4515758E-05  (-0.6266448E-05)
 number of electron      95.0000002 magnetization 
 augmentation part        5.6450124 magnetization 

 Free energy of the ion-electron system (eV)
  ---------------------------------------------------
  alpha Z        PSCENC =       123.19671547
  Ewald energy   TEWEN  =     13285.85138638
  -Hartree energ DENC   =    -18224.48850135
  -exchange      EXHF   =         0.00000000
  -V(xc)+E(xc)   XCENC  =      -404.91006494
  PAW double counting   =      5716.43906612    -4992.76167324
  entropy T*S    EENTRO =        -0.00415208
  eigenvalues    EBANDS =      -133.35851146
  atomic energy  EATOM  =      4496.35971583
  ---------------------------------------------------
  free energy    TOTEN  =      -133.67601927 eV

  energy without entropy =     -133.67186719  energy(sigma->0) =     -133.67394323


--------------------------------------------------------------------------------------------------------




 average (electrostatic) potential at core
  the test charge radii are     0.7215  1.0714  1.0406
  (the norm of the test charge is              1.0000)
       1 -69.9968       2 -69.9719       3 -70.0005       4 -70.1020       5 -69.9766
       6 -69.9717       7 -69.9726       8 -69.9814       9 -70.1029      10 -35.7865
      11 -35.6388      12 -35.6416      13 -35.7867      14 -35.6782      15 -35.6479
      16 -35.6301      17 -35.6301      18 -35.6525      19 -35.6804      20 -74.4304
      21 -74.2785      22 -74.4013      23 -74.3413      24 -74.2785      25 -74.3413
      26 -74.4014
 
 
 
 E-fermi :   6.4171     XC(G=0): -10.2854     alpha+bet :-12.4982


 k-point     1 :       0.0000    0.0000    0.0000
  band No.  band energies     occupation 
      1     -14.2108      2.00000
      2     -14.1610      2.00000
      3     -14.0596      2.00000
      4     -13.9212      2.00000
      5     -13.7614      2.00000
      6     -13.5909      2.00000
      7     -13.4286      2.00000
      8     -13.2897      2.00000
      9     -13.1880      2.00000
     10      -3.8441      2.00000
     11      -3.5292      2.00000
     12      -3.0500      2.00000
     13      -2.3588      2.00000
     14      -1.7012      2.00000
     15      -1.6961      2.00000
     16      -1.3384      2.00000
     17      -1.2478      2.00000
     18      -0.6776      2.00000
     19      -0.5378      2.00000
     20       0.1020      2.00000
     21       0.3168      2.00000
     22       1.1300      2.00000
     23       1.1432      2.00000
     24       1.9160      2.00000
     25       2.2236      2.00000
     26       2.3370      2.00000
     27       2.3389      2.00000
     28       2.3566      2.00000
     29       2.3589      2.00000
     30       2.4107      2.00000
     31       2.4124      2.00000
     32       2.4830      2.00000
     33       2.4842      2.00000
     34       2.5638      2.00000
     35       2.5645      2.00000
     36       2.5725      2.00000
     37       2.6496      2.00000
     38       2.6496      2.00000
     39       2.7288      2.00000
     40       2.7295      2.00000
[...]
     58      10.4157      0.00000
     59      10.5958      0.00000
     60      10.7590      0.00000
     61      10.9028      0.00000
     62      11.1049      0.00000

 k-point    47 :      -0.3846    0.3846    0.0000
  band No.  band energies     occupation 
      1     -13.3338      2.00000
      2     -13.3042      2.00000
      3     -13.2619      2.00000
      4     -13.2028      2.00000
      5     -13.1340      2.00000
      6     -13.0613      2.00000
      7     -12.9936      2.00000
      8     -12.9385      2.00000
      9     -12.9022      2.00000
     10      -1.2806      2.00000
     11      -1.1727      2.00000
     12      -1.0120      2.00000
     13      -0.9793      2.00000
     14      -0.8791      2.00000
     15      -0.8188      2.00000
     16      -0.7371      2.00000
     17      -0.6412      2.00000
     18      -0.6158      2.00000
     19      -0.5407      2.00000
     20      -0.2233      2.00000
     21       0.0493      2.00000
     22       0.1794      2.00000
     23       0.4003      2.00000
     24       0.6240      2.00000
     25       1.0162      2.00000
     26       1.0252      2.00000
     27       1.3355      2.00000
     28       1.4663      2.00000
     29       1.5486      2.00000
     30       1.6388      2.00000
     31       1.6784      2.00000
     32       1.7366      2.00000
     33       1.7504      2.00000
     34       1.8156      2.00000
     35       1.9067      2.00000
     36       1.9128      2.00000
     37       2.0030      2.00000
     38       2.0043      2.00000
     39       2.0932      2.00000
     40       2.1671      2.00000
     41       2.2157      2.00000
     42       2.8579      2.00000
     43       3.9805      2.00000
     44       4.3425      2.00000
     45       4.6505      2.00000
     46       4.9908      2.00000
     47       5.2946      2.00000
     48       5.9303      2.00000
     49       6.4766      0.25481
     50       6.8541      0.00000
     51       7.5276      0.00000
     52       8.0330      0.00000
     53       8.6572      0.00000
     54       9.3314      0.00000
     55       9.7991      0.00000
     56      10.2604      0.00000
     57      10.5132      0.00000
     58      10.7215      0.00000
     59      11.0152      0.00000
     60      11.1619      0.00000
     61      11.6425      0.00000
     62      11.6607      0.00000

 k-point    48 :       0.4615    0.4615    0.0000
  band No.  band energies     occupation 
      1     -13.1018      2.00000
      2     -13.0885      2.00000
      3     -13.0738      2.00000
      4     -13.0474      2.00000
      5     -13.0150      2.00000
      6     -12.9788      2.00000
      7     -12.9442      2.00000
      8     -12.9157      2.00000
      9     -12.8950      2.00000
     10      -1.5662      2.00000
     11      -1.4560      2.00000
     12      -1.2930      2.00000
     13      -1.1038      2.00000
     14      -1.0929      2.00000
     15      -1.0114      2.00000
     16      -0.9515      2.00000
     17      -0.8966      2.00000
     18      -0.8628      2.00000
     19       0.7363      2.00000
     20       0.7641      2.00000
     21       0.8840      2.00000
     22       0.9699      2.00000
     23       1.0936      2.00000
     24       1.2572      2.00000
     25       1.2707      2.00000
     26       1.3852      2.00000
     27       1.4451      2.00000
     28       1.5059      2.00000
     29       1.5704      2.00000
     30       1.6191      2.00000
     31       1.7317      2.00000
     32       1.7370      2.00000
     33       1.7436      2.00000
     34       1.7911      2.00000
     35       1.8797      2.00000
     36       1.9301      2.00000
     37       2.0028      2.00000
     38       2.0143      2.00000
     39       2.0603      2.00000
     40       2.0621      2.00000
     41       2.4942      2.00000
     42       2.5869      2.00000
     43       3.1659      2.00000
     44       3.2507      2.00000
     45       3.9658      2.00000
     46       4.1475      2.00000
     47       4.8157      2.00000
     48       5.2895      2.00000
     49       5.9944      2.00000
     50       6.4298      1.14522
     51       7.0815      0.00000
     52       7.6079      0.00000
     53       8.3225      0.00000
     54       8.9588      0.00000
     55       9.3729      0.00000
     56       9.5313      0.00000
     57      10.2831      0.00000
     58      10.3072      0.00000
     59      10.5629      0.00000
     60      10.6274      0.00000
     61      10.9448      0.00000
     62      10.9497      0.00000

 k-point    49 :      -0.4615    0.4615    0.0000
  band No.  band energies     occupation 
      1     -13.1482      2.00000
      2     -13.1315      2.00000
      3     -13.1109      2.00000
      4     -13.0779      2.00000
      5     -13.0383      2.00000
      6     -12.9951      2.00000
      7     -12.9543      2.00000
      8     -12.9209      2.00000
      9     -12.8975      2.00000
     10      -1.5866      2.00000
     11      -1.4759      2.00000
     12      -1.3120      2.00000
     13      -1.1284      2.00000
     14      -1.1204      2.00000
     15      -1.0390      2.00000
     16      -0.9701      2.00000
     17      -0.9121      2.00000
     18      -0.8763      2.00000
     19       0.5539      2.00000
     20       0.6863      2.00000
     21       0.8576      2.00000
     22       0.8967      2.00000
     23       1.0912      2.00000
     24       1.1252      2.00000
     25       1.2007      2.00000
     26       1.2791      2.00000
     27       1.3656      2.00000
     28       1.5688      2.00000
     29       1.6086      2.00000
     30       1.6670      2.00000
     31       1.6685      2.00000
     32       1.6862      2.00000
     33       1.7463      2.00000
     34       1.8378      2.00000
     35       1.9254      2.00000
     36       1.9346      2.00000
     37       2.0251      2.00000
     38       2.0994      2.00000
     39       2.1483      2.00000
     40       2.3368      2.00000
     41       2.5013      2.00000
     42       2.8188      2.00000
     43       3.1640      2.00000
     44       3.2896      2.00000
     45       3.9380      2.00000
     46       4.1938      2.00000
     47       4.7425      2.00000
     48       5.4065      2.00000
     49       5.7967      2.00000
     50       6.5410      0.00306
     51       6.9111      0.00000
     52       7.8879      0.00000
     53       8.0193      0.00000
     54       9.0960      0.00000
     55       9.3528      0.00000
     56      10.2592      0.00000
     57      10.4080      0.00000
     58      10.5371      0.00000
     59      10.8972      0.00000
     60      11.2209      0.00000
     61      11.4156      0.00000
     62      11.5481      0.00000


--------------------------------------------------------------------------------------------------------


 soft charge-density along one line, spin component           1
         0         1         2         3         4         5         6         7         8         9
 total charge-density along one line
 
 pseudopotential strength for first ion, spin component:           1
 12.164   0.000 -14.799   0.000  -0.000   0.000  -0.000   0.000   0.000   0.000   0.000   0.000   0.000   0.000  -0.000   0.000
-14.799   0.000  18.024   0.000   0.000   0.000   0.000   0.000  -0.000   0.000  -0.000   0.000  -0.000   0.000   0.000   0.000
 -0.000   0.000   0.000   0.000  -8.292   0.000  -0.000   0.000  -0.000   0.000   9.923   0.000   0.000   0.000   0.000   0.000
 -0.000   0.000   0.000   0.000  -0.000   0.000  -8.298   0.000   0.000   0.000   0.000   0.000   9.931   0.000  -0.000   0.000
  0.000   0.000  -0.000   0.000  -0.000   0.000   0.000   0.000  -8.292   0.000   0.000   0.000  -0.000   0.000   9.923   0.000
  0.000   0.000  -0.000   0.000   9.923   0.000   0.000   0.000   0.000   0.000 -11.713   0.000  -0.000   0.000  -0.000   0.000
  0.000   0.000  -0.000   0.000   0.000   0.000   9.931   0.000  -0.000   0.000  -0.000   0.000 -11.724   0.000   0.000   0.000
 -0.000   0.000   0.000   0.000   0.000   0.000  -0.000   0.000   9.923   0.000  -0.000   0.000   0.000   0.000 -11.713   0.000
 total augmentation occupancy for first ion, spin component:           1
  2.591   0.357   0.000   0.000  -0.000   0.000  -0.000  -0.000
  0.357   0.066   0.000   0.000  -0.000  -0.000  -0.000   0.000
  0.000   0.000   2.152   0.000  -0.000   0.255   0.000  -0.000
  0.000   0.000   0.000   2.147  -0.000   0.000   0.261  -0.000
 -0.000  -0.000  -0.000  -0.000   2.152  -0.000  -0.000   0.255
  0.000  -0.000   0.255   0.000  -0.000   0.033   0.000  -0.000
 -0.000  -0.000   0.000   0.261  -0.000   0.000   0.034  -0.000
 -0.000   0.000  -0.000  -0.000   0.255  -0.000  -0.000   0.033


------------------------ aborting loop because EDIFF is reached ----------------------------------------


    CHARGE:  cpu time    0.69: real time    0.69
    FORLOC:  cpu time    0.03: real time    0.03
    FORNL :  cpu time    6.21: real time    6.21
    STRESS:  cpu time    7.02: real time    7.02
    FORCOR:  cpu time    0.14: real time    0.14
    FORHAR:  cpu time    0.06: real time    0.06
    MIXING:  cpu time    0.00: real time    0.00
    OFIELD:  cpu time    0.00: real time    0.00

  FORCE on cell =-STRESS in cart. coord.  units (eV):
  Direction    XX          YY          ZZ          XY          YZ          ZX
  --------------------------------------------------------------------------------------
  Alpha Z   123.19672   123.19672   123.19672
  Ewald   16415.48280 16409.32334-18866.15999     5.33448  -611.38950   352.98584
  Hartree 18036.30132 18029.42078-17169.71195     5.95866  -610.66197   352.56600
  E(xc)    -388.22948  -388.23972  -388.37346     0.00886    -0.00267     0.00154
  Local  -35589.53194-35576.48162 34896.24599   -11.30166  1222.07002  -705.56261
  n-local   -29.63607   -37.49826   -30.12900    -2.36930     1.58086     2.66596
  augment    53.69643    53.69639    52.90412     0.00000    -0.01215     0.00703
  Kinetic  1391.06864  1365.99535  1364.61748    -7.21006     0.17113     0.92850
  Fock        0.00000     0.00000     0.00000     0.00000     0.00000     0.00000
  -------------------------------------------------------------------------------------
  Total      -4.15023    -4.08839   -17.41009    -0.05355    -0.23865     0.13778
  in kB     -20.25968   -19.95782   -84.98888    -0.26141    -1.16497     0.67260
  external pressure =      -41.74 kB  Pullay stress =        0.00 kB


 VOLUME and BASIS-vectors are now :
 -----------------------------------------------------------------------------
  energy-cutoff  :      520.00
  volume of cell :      328.21
      direct lattice vectors                 reciprocal lattice vectors
     2.592590006 -1.495275227  0.051895165     0.385651852 -0.000238449 -0.003732228
     0.001348276  2.992885737 -0.051895149     0.192619423  0.334103627  0.003732228
     0.408967606 -0.708352458 42.303955012    -0.000236797  0.000410144  0.023647609

  length of vectors
     2.993336608  2.993335925 42.311861544     0.385669985  0.385670073  0.023652350


 FORCES acting on ions
    electron-ion (+dipol)            ewald-force                    non-local-force                 convergence-correction
 -----------------------------------------------------------------------------------------------
   -.985E+01 0.171E+02 0.983E+03   0.985E+01 -.171E+02 -.983E+03   0.199E-03 -.344E-03 0.337E-01   0.421E-03 -.729E-03 -.561E-01
   0.546E-03 -.946E-03 -.548E-01   -.370E-03 0.640E-03 0.382E-01   -.131E-03 0.228E-03 0.112E-01   -.116E-03 0.201E-03 0.119E-01
   0.985E+01 -.171E+02 -.983E+03   -.985E+01 0.171E+02 0.983E+03   -.495E-04 0.857E-04 -.483E-01   -.508E-03 0.880E-03 0.607E-01
   -.131E+02 0.227E+02 0.131E+04   0.131E+02 -.227E+02 -.131E+04   -.759E-02 0.131E-01 0.772E+00   0.432E-03 -.748E-03 -.544E-01
   -.657E+01 0.114E+02 0.656E+03   0.657E+01 -.114E+02 -.656E+03   0.178E-03 -.308E-03 0.217E-01   0.420E-03 -.728E-03 -.550E-01
   -.329E+01 0.569E+01 0.328E+03   0.329E+01 -.569E+01 -.328E+03   0.811E-04 -.140E-03 0.793E-02   0.304E-03 -.526E-03 -.355E-01
   0.329E+01 -.569E+01 -.328E+03   -.329E+01 0.569E+01 0.328E+03   -.271E-03 0.469E-03 0.722E-02   -.513E-03 0.889E-03 0.584E-01
   0.657E+01 -.114E+02 -.656E+03   -.657E+01 0.114E+02 0.656E+03   -.224E-03 0.389E-03 -.185E-01   -.589E-03 0.102E-02 0.708E-01
   0.131E+02 -.227E+02 -.131E+04   -.131E+02 0.227E+02 0.131E+04   0.776E-02 -.134E-01 -.785E+00   -.342E-03 0.592E-03 0.419E-01
   -.476E+01 0.824E+01 0.473E+03   0.475E+01 -.823E+01 -.473E+03   0.425E-02 -.737E-02 -.643E-02   0.160E-03 -.277E-03 -.160E-01
   -.164E+01 0.285E+01 0.164E+03   0.164E+01 -.285E+01 -.164E+03   0.589E-03 -.102E-02 0.197E-02   0.152E-03 -.263E-03 -.151E-01
   0.164E+01 -.285E+01 -.164E+03   -.164E+01 0.285E+01 0.164E+03   -.606E-03 0.105E-02 -.565E-02   -.217E-03 0.376E-03 0.217E-01
   0.476E+01 -.824E+01 -.473E+03   -.475E+01 0.823E+01 0.473E+03   -.429E-02 0.744E-02 0.109E-01   -.111E-03 0.192E-03 0.111E-01
   -.383E+01 0.664E+01 0.383E+03   0.383E+01 -.664E+01 -.383E+03   0.121E-02 -.210E-02 -.239E-01   0.180E-03 -.311E-03 -.179E-01
   -.274E+01 0.474E+01 0.273E+03   0.274E+01 -.474E+01 -.273E+03   0.101E-02 -.174E-02 0.249E-03   0.182E-03 -.315E-03 -.182E-01
   -.548E+00 0.949E+00 0.547E+02   0.548E+00 -.949E+00 -.547E+02   0.187E-03 -.325E-03 -.322E-02   0.339E-04 -.588E-04 -.339E-02
   0.548E+00 -.950E+00 -.547E+02   -.548E+00 0.949E+00 0.547E+02   -.154E-03 0.266E-03 -.444E-02   -.117E-03 0.203E-03 0.117E-01
   0.274E+01 -.474E+01 -.273E+03   -.274E+01 0.474E+01 0.273E+03   -.100E-02 0.174E-02 0.718E-03   -.220E-03 0.381E-03 0.219E-01
   0.383E+01 -.664E+01 -.383E+03   -.383E+01 0.664E+01 0.383E+03   -.128E-02 0.222E-02 0.307E-01   -.165E-03 0.286E-03 0.165E-01
   -.375E-03 0.650E-03 -.611E-03   0.130E-03 -.225E-03 0.302E-02   0.248E-03 -.430E-03 -.198E-03   0.229E-04 -.397E-04 -.229E-02
   -.511E+01 0.884E+01 0.509E+03   0.509E+01 -.882E+01 -.508E+03   0.138E-01 -.238E-01 -.105E+01   0.168E-03 -.292E-03 -.169E-01
   -.337E+01 0.583E+01 0.336E+03   0.336E+01 -.582E+01 -.336E+03   0.479E-02 -.829E-02 0.132E+00   0.105E-03 -.182E-03 -.105E-01
   -.166E+01 0.288E+01 0.166E+03   0.166E+01 -.288E+01 -.166E+03   -.149E-02 0.258E-02 0.586E-01   0.558E-04 -.966E-04 -.561E-02
   0.511E+01 -.884E+01 -.509E+03   -.509E+01 0.882E+01 0.508E+03   -.139E-01 0.240E-01 0.105E+01   -.105E-03 0.182E-03 0.105E-01
   0.166E+01 -.288E+01 -.166E+03   -.167E+01 0.288E+01 0.166E+03   0.144E-02 -.250E-02 -.585E-01   -.796E-05 0.138E-04 0.834E-03
   0.337E+01 -.583E+01 -.336E+03   -.336E+01 0.582E+01 0.336E+03   -.460E-02 0.797E-02 -.131E+00   -.504E-04 0.872E-04 0.503E-02
 -----------------------------------------------------------------------------------------------
   0.256E-03 -.443E-03 -.384E-01   -.324E-13 -.560E-13 -.398E-12   0.140E-03 -.243E-03 0.216E-02   -.425E-03 0.737E-03 0.361E-01
 
 
 POSITION                                       TOTAL-FORCE (eV/Angst)
 -----------------------------------------------------------------------------------
      1.58406      0.25156     14.69317         0.000445     -0.000771     -0.004254
      1.51209      0.37620     22.24274        -0.000069      0.000120      0.006535
      1.44007      0.50095     29.79312        -0.000377      0.000653     -0.003860
      0.74513      1.70463     12.14364         0.000394     -0.000683     -0.001639
      2.42345     -1.20231     17.24445         0.000322     -0.000558      0.005571
      0.67201      1.83126     19.69235         0.000280     -0.000485      0.000303
      2.35216     -1.07884     24.79324        -0.000373      0.000646      0.008561
      0.60071      1.95476     27.24137        -0.000382      0.000661     -0.002956
      2.27896     -0.95205     32.34274        -0.000314      0.000544     -0.007966
      1.62174      0.18629     10.88949         0.000480     -0.000831     -0.002797
      1.54768      0.31456     18.46836         0.000333     -0.000578     -0.002293
      1.47649      0.43787     26.01777        -0.000298      0.000517     -0.003060
      1.40233      0.56632     33.59609        -0.000518      0.000897      0.007785
      2.46014     -1.26587     13.46851         0.000329     -0.000570      0.009008
      0.70805      1.76885     15.91695         0.000494     -0.000855     -0.001587
      2.38766     -1.14032     21.01980         0.000177     -0.000307     -0.008598
      0.63652      1.89274     23.46659        -0.000058      0.000101     -0.003945
      2.31609     -1.01637     28.56897        -0.000511      0.000884      0.003817
      0.56397      2.01840     31.01707        -0.000445      0.000771      0.001884
      2.60283     -1.51301      1.14285         0.000027     -0.000046     -0.000072
      2.51342     -1.35815      8.37720         0.000709     -0.001229     -0.000374
      1.67936      0.08648      5.91357         0.000253     -0.000438     -0.003701
      0.84439      1.53270      3.46402         0.000296     -0.000513      0.018206
      0.51045      2.11110     36.10869        -0.000691      0.001197     -0.000238
      2.17914     -0.77915     41.02181        -0.000278      0.000482     -0.018199
      1.34425      0.66691     38.57222        -0.000224      0.000388      0.003872
 -----------------------------------------------------------------------------------
    total drift:                               -0.000029      0.000051     -0.000146


--------------------------------------------------------------------------------------------------------



  FREE ENERGIE OF THE ION-ELECTRON SYSTEM (eV)
  ---------------------------------------------------
  free  energy   TOTEN  =      -133.68692340 eV

  energy  without entropy=     -133.68080315  energy(sigma->0) =     -133.68386327
 
 d Force = 0.8940766E-04[ 0.583E-04, 0.120E-03]  d Energy = 0.7689579E-04 0.125E-04
 d Force =-0.4653990E+01[-0.465E+01,-0.465E+01]  d Ewald  =-0.4653990E+01-0.113E-07


--------------------------------------------------------------------------------------------------------


    POTLOK:  cpu time    0.20: real time    0.20


--------------------------------------------------------------------------------------------------------


 Conjugate gradient step on ions:
 trial-energy change:   -0.000077  1 .order   -0.000089   -0.000120   -0.000058
  (g-gl).g = 0.906E-04      g.g   = 0.111E-03  gl.gl    = 0.537E-03
 g(Force)  = 0.111E-03   g(Stress)= 0.000E+00 ortho     = 0.126E-04
 gamma     =   0.16857
 trial     =   1.06535
 opt step  =   2.06568  (harmonic =   2.06568) maximal distance =0.00275701
 next E    =  -133.686963   (d E  =  -0.00012)


--------------------------------------------------------------------------------------------------------


  
 reached required accuracy - stopping structural energy minimisation
     LOOP+:  cpu time   67.76: real time   67.83
    4ORBIT:  cpu time    0.00: real time    0.00

 total amount of memory used by VASP on root node   199114. kBytes
========================================================================

   base      :      30000. kBytes
   nonl-proj :      35334. kBytes
   fftplans  :      55173. kBytes
   grid      :      22118. kBytes
   one-center:         56. kBytes
   wavefun   :      56433. kBytes
 
  
  
 General timing and accounting informations for this job:
 ========================================================
  
                  Total CPU time used (sec):     2414.009
                            User time (sec):     2399.753
                          System time (sec):       14.256
                         Elapsed time (sec):     2416.585
  
                   Maximum memory used (kb):      308448.
                   Average memory used (kb):           0.
  
                          Minor page faults:       619179
                          Major page faults:            0
                 Voluntary context switches:          358
