       N       E                     dE             d eps       ncg     rms          rms(c)
DAV:   1     0.510748718657E+03    0.51075E+03   -0.43992E+04  2696   0.134E+03
DAV:   2    -0.991228269048E+02   -0.60987E+03   -0.57710E+03  3480   0.260E+02
DAV:   3    -0.157023802634E+03   -0.57901E+02   -0.57585E+02  3136   0.871E+01
DAV:   4    -0.157765801454E+03   -0.74200E+00   -0.74074E+00  3128   0.107E+01
DAV:   5    -0.157777051998E+03   -0.11251E-01   -0.11247E-01  3200   0.130E+00    0.236E+01
DAV:   6    -0.140672026746E+03    0.17105E+02   -0.94223E+01  3208   0.334E+01    0.792E+00
DAV:   7    -0.140709741390E+03   -0.37715E-01   -0.39973E+00  3024   0.663E+00    0.500E+00
DAV:   8    -0.140552935114E+03    0.15681E+00   -0.92163E-01  3088   0.458E+00    0.141E+00
DAV:   9    -0.140492252405E+03    0.60683E-01   -0.22525E-01  3048   0.199E+00    0.678E-01
DAV:  10    -0.140484826905E+03    0.74255E-02   -0.61847E-02  3048   0.861E-01    0.340E-01
DAV:  11    -0.140474565596E+03    0.10261E-01   -0.19790E-02  3104   0.789E-01    0.214E-01
DAV:  12    -0.140468896114E+03    0.56695E-02   -0.56584E-03  3528   0.507E-01    0.178E-01
DAV:  13    -0.140457464234E+03    0.11432E-01   -0.15583E-02  4024   0.107E+00    0.128E-01
DAV:  14    -0.140454341621E+03    0.31226E-02   -0.87319E-03  3088   0.504E-01    0.160E-01
DAV:  15    -0.140445871622E+03    0.84700E-02   -0.14971E-02  3792   0.110E+00    0.220E-01
DAV:  16    -0.140437653972E+03    0.82176E-02   -0.11579E-02  3840   0.147E+00    0.189E-01
DAV:  17    -0.140435053148E+03    0.26008E-02   -0.20276E-02  3320   0.102E+00    0.928E-02
DAV:  18    -0.140433321984E+03    0.17312E-02   -0.69371E-03  3344   0.770E-01    0.976E-02
DAV:  19    -0.140432259467E+03    0.10625E-02   -0.38536E-03  3840   0.701E-01    0.567E-02
DAV:  20    -0.140432061735E+03    0.19773E-03   -0.29834E-03  3168   0.465E-01    0.276E-02
DAV:  21    -0.140432158838E+03   -0.97104E-04   -0.16117E-03  2944   0.215E-01    0.289E-02
DAV:  22    -0.140432156403E+03    0.24353E-05   -0.20934E-04  2816   0.602E-02    0.137E-02
DAV:  23    -0.140432150157E+03    0.62464E-05   -0.28908E-05  2408   0.473E-02
   1 F= -.14043215E+03 E0= -.14043036E+03  d E =-.140432E+03
       N       E                     dE             d eps       ncg     rms          rms(c)
DAV:   1    -0.140430047491E+03    0.21089E-02   -0.14267E+00  2720   0.458E+00    0.252E-01
DAV:   2    -0.140433968174E+03   -0.39207E-02   -0.59490E-02  2936   0.775E-01    0.202E-01
DAV:   3    -0.140433026561E+03    0.94161E-03   -0.11650E-03  3080   0.182E-01    0.138E-01
DAV:   4    -0.140432018011E+03    0.10085E-02   -0.27982E-03  2992   0.283E-01    0.429E-02
DAV:   5    -0.140431954602E+03    0.63409E-04   -0.94237E-04  3008   0.139E-01    0.256E-02
DAV:   6    -0.140431832694E+03    0.12191E-03   -0.15910E-04  3392   0.886E-02    0.224E-02
DAV:   7    -0.140431785561E+03    0.47133E-04   -0.81098E-05  3008   0.572E-02    0.168E-02
DAV:   8    -0.140431687596E+03    0.97965E-04   -0.12129E-04  3472   0.986E-02    0.103E-02
DAV:   9    -0.140431651098E+03    0.36498E-04   -0.10509E-04  3152   0.675E-02    0.137E-02
DAV:  10    -0.140431635776E+03    0.15322E-04   -0.13391E-04  3008   0.496E-02    0.225E-02
DAV:  11    -0.140431591033E+03    0.44743E-04   -0.32754E-05  2744   0.806E-02    0.141E-02
DAV:  12    -0.140431570288E+03    0.20745E-04   -0.75419E-05  3272   0.719E-02    0.537E-03
DAV:  13    -0.140431552464E+03    0.17824E-04   -0.22226E-05  2288   0.708E-02    0.447E-03
DAV:  14    -0.140431537029E+03    0.15435E-04   -0.38635E-05  2560   0.927E-02    0.444E-03
DAV:  15    -0.140431534151E+03    0.28779E-05   -0.45796E-05  2544   0.660E-02
   2 F= -.14043153E+03 E0= -.14042978E+03  d E =0.616006E-03
       N       E                     dE             d eps       ncg     rms          rms(c)
DAV:   1    -0.140435775733E+03   -0.42387E-02   -0.37534E-01  2704   0.235E+00    0.131E-01
DAV:   2    -0.140436699691E+03   -0.92396E-03   -0.14914E-02  2928   0.395E-01    0.101E-01
DAV:   3    -0.140436437677E+03    0.26201E-03   -0.29481E-04  3168   0.967E-02    0.668E-02
DAV:   4    -0.140436175484E+03    0.26219E-03   -0.59978E-04  3056   0.147E-01    0.178E-02
DAV:   5    -0.140436153848E+03    0.21636E-04   -0.25013E-04  3016   0.765E-02    0.131E-02
DAV:   6    -0.140436125368E+03    0.28480E-04   -0.25728E-05  2376   0.400E-02    0.980E-03
DAV:   7    -0.140436109225E+03    0.16143E-04   -0.20122E-05  2200   0.354E-02    0.662E-03
DAV:   8    -0.140436086887E+03    0.22338E-04   -0.24603E-05  2368   0.498E-02    0.429E-03
DAV:   9    -0.140436078562E+03    0.83248E-05   -0.23403E-05  2312   0.325E-02
   3 F= -.14043608E+03 E0= -.14043430E+03  d E =-.392841E-02
       N       E                     dE             d eps       ncg     rms          rms(c)
DAV:   1    -0.140437014803E+03   -0.92792E-03   -0.14499E-01  2720   0.152E+00    0.605E-02
DAV:   2    -0.140437319997E+03   -0.30519E-03   -0.36731E-03  2968   0.205E-01    0.374E-02
DAV:   3    -0.140437284377E+03    0.35620E-04   -0.48775E-05  2968   0.331E-02    0.240E-02
DAV:   4    -0.140437254363E+03    0.30013E-04   -0.34606E-05  2584   0.337E-02    0.991E-03
DAV:   5    -0.140437233720E+03    0.20643E-04   -0.19899E-05  2392   0.388E-02    0.435E-03
DAV:   6    -0.140437218145E+03    0.15575E-04   -0.12031E-05  1784   0.318E-02    0.402E-03
DAV:   7    -0.140437186857E+03    0.31288E-04   -0.10257E-05  1944   0.626E-02    0.473E-03
DAV:   8    -0.140437157483E+03    0.29374E-04   -0.40378E-05  2736   0.819E-02    0.662E-03
DAV:   9    -0.140437135626E+03    0.21857E-04   -0.47849E-05  2968   0.985E-02    0.474E-03
DAV:  10    -0.140437131216E+03    0.44096E-05   -0.53619E-05  2848   0.785E-02
   4 F= -.14043713E+03 E0= -.14043536E+03  d E =-.105265E-02
       N       E                     dE             d eps       ncg     rms          rms(c)
DAV:   1    -0.140437396140E+03   -0.26051E-03   -0.27099E-01  2720   0.204E+00    0.835E-02
DAV:   2    -0.140437959189E+03   -0.56305E-03   -0.66659E-03  2968   0.268E-01    0.481E-02
DAV:   3    -0.140437905138E+03    0.54051E-04   -0.92342E-05  3080   0.427E-02    0.308E-02
DAV:   4    -0.140437870223E+03    0.34915E-04   -0.44752E-05  2728   0.374E-02    0.137E-02
DAV:   5    -0.140437847536E+03    0.22687E-04   -0.34050E-05  2720   0.402E-02    0.503E-03
DAV:   6    -0.140437833563E+03    0.13973E-04   -0.15377E-05  2040   0.284E-02    0.423E-03
DAV:   7    -0.140437818957E+03    0.14606E-04   -0.40509E-06  1752   0.281E-02    0.389E-03
DAV:   8    -0.140437792355E+03    0.26602E-04   -0.12077E-05  2080   0.594E-02    0.415E-03
DAV:   9    -0.140437750311E+03    0.42045E-04   -0.11785E-04  3752   0.166E-01    0.647E-03
DAV:  10    -0.140437755235E+03   -0.49244E-05   -0.10395E-04  2624   0.461E-02    0.611E-03
DAV:  11    -0.140437755346E+03   -0.11096E-06   -0.15001E-05  1808   0.176E-02
   5 F= -.14043776E+03 E0= -.14043598E+03  d E =-.167678E-02
       N       E                     dE             d eps       ncg     rms          rms(c)
DAV:   1    -0.140438448748E+03   -0.69351E-03   -0.10883E-01  2736   0.135E+00    0.500E-02
DAV:   2    -0.140438675165E+03   -0.22642E-03   -0.26617E-03  2944   0.187E-01    0.283E-02
DAV:   3    -0.140438657610E+03    0.17554E-04   -0.35894E-05  2864   0.331E-02    0.197E-02
DAV:   4    -0.140438647145E+03    0.10465E-04   -0.40116E-05  2664   0.367E-02    0.774E-03
DAV:   5    -0.140438646455E+03    0.69009E-06   -0.13279E-05  1752   0.177E-02    0.500E-03
DAV:   6    -0.140438644901E+03    0.15542E-05   -0.59070E-06  1592   0.126E-02
   6 F= -.14043864E+03 E0= -.14043687E+03  d E =-.889555E-03
       N       E                     dE             d eps       ncg     rms          rms(c)
DAV:   1    -0.140438504298E+03    0.14216E-03   -0.97959E-01  2736   0.404E+00    0.151E-01
DAV:   2    -0.140440541049E+03   -0.20368E-02   -0.24134E-02  2936   0.562E-01    0.851E-02
DAV:   3    -0.140440366557E+03    0.17449E-03   -0.31676E-04  3136   0.106E-01    0.586E-02
DAV:   4    -0.140440252346E+03    0.11421E-03   -0.32928E-04  3048   0.121E-01    0.231E-02
DAV:   5    -0.140440235342E+03    0.17004E-04   -0.15414E-04  2952   0.669E-02    0.149E-02
DAV:   6    -0.140440212741E+03    0.22601E-04   -0.39234E-05  2440   0.356E-02    0.752E-03
DAV:   7    -0.140440192087E+03    0.20654E-04   -0.39003E-06  1648   0.361E-02    0.546E-03
DAV:   8    -0.140440163869E+03    0.28218E-04   -0.20572E-05  2192   0.577E-02    0.520E-03
DAV:   9    -0.140440106227E+03    0.57642E-04   -0.35385E-05  2616   0.119E-01    0.549E-03
DAV:  10    -0.140440058917E+03    0.47310E-04   -0.10928E-04  3336   0.153E-01    0.102E-02
DAV:  11    -0.140440051662E+03    0.72545E-05   -0.12146E-04  2952   0.105E-01    0.602E-03
DAV:  12    -0.140440060623E+03   -0.89604E-05   -0.10704E-04  2552   0.345E-02    0.115E-02
DAV:  13    -0.140440059007E+03    0.16156E-05   -0.39158E-06  1560   0.840E-03
   7 F= -.14044006E+03 E0= -.14043826E+03  d E =-.230366E-02
       N       E                     dE             d eps       ncg     rms          rms(c)
DAV:   1    -0.140440017533E+03    0.43089E-04   -0.62509E-02  2736   0.103E+00    0.383E-02
DAV:   2    -0.140440148615E+03   -0.13108E-03   -0.15492E-03  2944   0.145E-01    0.237E-02
DAV:   3    -0.140440137208E+03    0.11407E-04   -0.29602E-05  2552   0.302E-02    0.156E-02
DAV:   4    -0.140440131106E+03    0.61019E-05   -0.21262E-05  2088   0.252E-02    0.684E-03
DAV:   5    -0.140440129835E+03    0.12712E-05   -0.66955E-06  1608   0.150E-02    0.352E-03
DAV:   6    -0.140440128287E+03    0.15484E-05   -0.31470E-06  1648   0.130E-02
   8 F= -.14044013E+03 E0= -.14043833E+03  d E =-.237294E-02
       N       E                     dE             d eps       ncg     rms          rms(c)
DAV:   1    -0.140440846257E+03   -0.71642E-03   -0.11696E-01  2704   0.150E+00    0.563E-02
DAV:   2    -0.140441066352E+03   -0.22010E-03   -0.27164E-03  3000   0.213E-01    0.317E-02
DAV:   3    -0.140441049378E+03    0.16973E-04   -0.64217E-05  3032   0.352E-02    0.232E-02
DAV:   4    -0.140441034341E+03    0.15038E-04   -0.70635E-05  2984   0.369E-02    0.120E-02
DAV:   5    -0.140441028705E+03    0.56355E-05   -0.73966E-06  1712   0.204E-02    0.100E-02
DAV:   6    -0.140441023654E+03    0.50515E-05   -0.34016E-05  2448   0.337E-02
   9 F= -.14044102E+03 E0= -.14043920E+03  d E =-.895367E-03
       N       E                     dE             d eps       ncg     rms          rms(c)
DAV:   1    -0.140441111596E+03   -0.82890E-04   -0.15742E-01  2704   0.174E+00    0.650E-02
DAV:   2    -0.140441407135E+03   -0.29554E-03   -0.36379E-03  3008   0.247E-01    0.362E-02
DAV:   3    -0.140441382671E+03    0.24463E-04   -0.85028E-05  3096   0.402E-02    0.263E-02
DAV:   4    -0.140441359577E+03    0.23095E-04   -0.86286E-05  3040   0.406E-02    0.135E-02
DAV:   5    -0.140441350513E+03    0.90633E-05   -0.96233E-06  1840   0.249E-02    0.111E-02
DAV:   6    -0.140441342412E+03    0.81012E-05   -0.46240E-05  2568   0.417E-02
  10 F= -.14044134E+03 E0= -.14043949E+03  d E =-.121413E-02
       N       E                     dE             d eps       ncg     rms          rms(c)
DAV:   1    -0.140441667966E+03   -0.31745E-03   -0.15244E-01  2704   0.170E+00    0.559E-02
DAV:   2    -0.140441998384E+03   -0.33042E-03   -0.35545E-03  2928   0.232E-01    0.288E-02
DAV:   3    -0.140441979972E+03    0.18412E-04   -0.30087E-05  2688   0.288E-02    0.191E-02
DAV:   4    -0.140441970521E+03    0.94510E-05   -0.62245E-05  2880   0.407E-02    0.718E-03
DAV:   5    -0.140441971215E+03   -0.69366E-06   -0.14241E-05  1912   0.163E-02    0.631E-03
DAV:   6    -0.140441970941E+03    0.27360E-06   -0.87524E-06  1432   0.143E-02
  11 F= -.14044197E+03 E0= -.14044009E+03  d E =-.628529E-03
       N       E                     dE             d eps       ncg     rms          rms(c)
DAV:   1    -0.140440600624E+03    0.13706E-02   -0.13718E+00  2688   0.509E+00    0.163E-01
DAV:   2    -0.140443545126E+03   -0.29445E-02   -0.31956E-02  2904   0.696E-01    0.896E-02
DAV:   3    -0.140443366542E+03    0.17858E-03   -0.27491E-04  3208   0.889E-02    0.614E-02
DAV:   4    -0.140443250631E+03    0.11591E-03   -0.62574E-04  3048   0.140E-01    0.220E-02
DAV:   5    -0.140443255281E+03   -0.46504E-05   -0.17522E-04  2912   0.567E-02    0.205E-02
DAV:   6    -0.140443245179E+03    0.10103E-04   -0.80946E-05  2744   0.437E-02    0.936E-03
DAV:   7    -0.140443238004E+03    0.71750E-05   -0.94344E-06  1696   0.248E-02
  12 F= -.14044324E+03 E0= -.14044128E+03  d E =-.189559E-02
       N       E                     dE             d eps       ncg     rms          rms(c)
DAV:   1    -0.140432352663E+03    0.10893E-01   -0.54845E+00  2688   0.102E+01    0.327E-01
DAV:   2    -0.140444184793E+03   -0.11832E-01   -0.12873E-01  2912   0.139E+00    0.182E-01
DAV:   3    -0.140443425813E+03    0.75898E-03   -0.11415E-03  3184   0.180E-01    0.124E-01
DAV:   4    -0.140442892535E+03    0.53328E-03   -0.23805E-03  3048   0.274E-01    0.440E-02
DAV:   5    -0.140442891835E+03    0.69993E-06   -0.71622E-04  2968   0.118E-01    0.391E-02
DAV:   6    -0.140442826772E+03    0.65063E-04   -0.28864E-04  3008   0.894E-02    0.181E-02
DAV:   7    -0.140442767513E+03    0.59259E-04   -0.44514E-05  2808   0.646E-02    0.187E-02
DAV:   8    -0.140442711884E+03    0.55629E-04   -0.49466E-05  2720   0.539E-02    0.983E-03
DAV:   9    -0.140442618718E+03    0.93166E-04   -0.95432E-05  3512   0.918E-02    0.181E-02
DAV:  10    -0.140442507838E+03    0.11088E-03   -0.52806E-05  3032   0.119E-01    0.167E-02
DAV:  11    -0.140442400048E+03    0.10779E-03   -0.50501E-04  3784   0.265E-01    0.364E-02
DAV:  12    -0.140442331652E+03    0.68396E-04   -0.28704E-04  3536   0.209E-01    0.224E-02
DAV:  13    -0.140442349650E+03   -0.17997E-04   -0.35532E-04  2800   0.656E-02    0.141E-02
DAV:  14    -0.140442349225E+03    0.42437E-06   -0.13964E-05  1856   0.165E-02
  13 F= -.14044235E+03 E0= -.14044026E+03  d E =-.100681E-02
       N       E                     dE             d eps       ncg     rms          rms(c)
DAV:   1    -0.140438997565E+03    0.33521E-02   -0.23076E+00  2704   0.651E+00    0.215E-01
DAV:   2    -0.140444041247E+03   -0.50437E-02   -0.55088E-02  2928   0.894E-01    0.118E-01
DAV:   3    -0.140443731834E+03    0.30941E-03   -0.45461E-04  3240   0.116E-01    0.812E-02
DAV:   4    -0.140443519284E+03    0.21255E-03   -0.11337E-03  3024   0.191E-01    0.283E-02
DAV:   5    -0.140443526459E+03   -0.71745E-05   -0.32906E-04  2952   0.748E-02    0.261E-02
DAV:   6    -0.140443508816E+03    0.17643E-04   -0.12367E-04  2904   0.518E-02    0.115E-02
DAV:   7    -0.140443496106E+03    0.12710E-04   -0.12772E-05  1888   0.286E-02    0.120E-02
DAV:   8    -0.140443480915E+03    0.15191E-04   -0.82118E-06  1760   0.254E-02    0.874E-03
DAV:   9    -0.140443460390E+03    0.20525E-04   -0.27044E-05  2304   0.413E-02    0.507E-03
DAV:  10    -0.140443437852E+03    0.22539E-04   -0.10901E-05  1824   0.487E-02    0.602E-03
DAV:  11    -0.140443398548E+03    0.39304E-04   -0.59144E-05  3024   0.119E-01    0.494E-03
DAV:  12    -0.140443389670E+03    0.88773E-05   -0.74759E-05  3080   0.905E-02
  14 F= -.14044339E+03 E0= -.14044139E+03  d E =-.204726E-02
       N       E                     dE             d eps       ncg     rms          rms(c)
DAV:   1    -0.140443883437E+03   -0.48489E-03   -0.24406E-01  2704   0.215E+00    0.722E-02
DAV:   2    -0.140444401726E+03   -0.51829E-03   -0.59029E-03  2960   0.306E-01    0.395E-02
DAV:   3    -0.140444366499E+03    0.35228E-04   -0.87881E-05  3200   0.519E-02    0.282E-02
DAV:   4    -0.140444339006E+03    0.27493E-04   -0.92602E-05  2824   0.599E-02    0.117E-02
DAV:   5    -0.140444335024E+03    0.39817E-05   -0.37643E-05  2504   0.376E-02    0.103E-02
DAV:   6    -0.140444331292E+03    0.37314E-05   -0.30841E-05  2288   0.305E-02
  15 F= -.14044433E+03 E0= -.14044229E+03  d E =-.941622E-03
       N       E                     dE             d eps       ncg     rms          rms(c)
DAV:   1    -0.140441188481E+03    0.31465E-02   -0.21931E+00  2688   0.647E+00    0.215E-01
DAV:   2    -0.140445907766E+03   -0.47193E-02   -0.53208E-02  2960   0.925E-01    0.119E-01
DAV:   3    -0.140445614575E+03    0.29319E-03   -0.86710E-04  3232   0.157E-01    0.843E-02
DAV:   4    -0.140445408351E+03    0.20622E-03   -0.67640E-04  3032   0.151E-01    0.368E-02
DAV:   5    -0.140445359188E+03    0.49163E-04   -0.23342E-04  3312   0.104E-01    0.252E-02
DAV:   6    -0.140445326901E+03    0.32288E-04   -0.20811E-04  3144   0.953E-02    0.145E-02
DAV:   7    -0.140445320117E+03    0.67834E-05   -0.71469E-05  2752   0.432E-02
  16 F= -.14044532E+03 E0= -.14044316E+03  d E =-.193045E-02
       N       E                     dE             d eps       ncg     rms          rms(c)
DAV:   1    -0.140445930795E+03   -0.60389E-03   -0.31854E-01  2696   0.250E+00    0.762E-02
DAV:   2    -0.140446520973E+03   -0.59018E-03   -0.67035E-03  3016   0.333E-01    0.407E-02
DAV:   3    -0.140446482306E+03    0.38667E-04   -0.11362E-04  3232   0.505E-02    0.279E-02
DAV:   4    -0.140446443864E+03    0.38442E-04   -0.88116E-05  3088   0.593E-02    0.123E-02
DAV:   5    -0.140446430977E+03    0.12888E-04   -0.39084E-05  2752   0.382E-02    0.127E-02
DAV:   6    -0.140446416822E+03    0.14155E-04   -0.24424E-05  2120   0.365E-02    0.568E-03
DAV:   7    -0.140446399950E+03    0.16873E-04   -0.10947E-05  1720   0.390E-02    0.676E-03
DAV:   8    -0.140446387932E+03    0.12017E-04   -0.11677E-05  1752   0.316E-02    0.707E-03
DAV:   9    -0.140446352484E+03    0.35448E-04   -0.28376E-05  2448   0.852E-02    0.494E-03
DAV:  10    -0.140446328868E+03    0.23617E-04   -0.58223E-05  3112   0.989E-02    0.117E-02
DAV:  11    -0.140446321011E+03    0.78567E-05   -0.59474E-05  2704   0.677E-02
  17 F= -.14044632E+03 E0= -.14044410E+03  d E =-.100089E-02
       N       E                     dE             d eps       ncg     rms          rms(c)
DAV:   1    -0.140445795192E+03    0.53368E-03   -0.74278E-01  2720   0.382E+00    0.112E-01
DAV:   2    -0.140447195180E+03   -0.14000E-02   -0.15595E-02  3016   0.508E-01    0.643E-02
DAV:   3    -0.140447115359E+03    0.79820E-04   -0.23757E-04  3280   0.733E-02    0.446E-02
DAV:   4    -0.140447055086E+03    0.60274E-04   -0.25739E-04  3128   0.935E-02    0.190E-02
DAV:   5    -0.140447051005E+03    0.40803E-05   -0.96593E-05  3000   0.439E-02    0.197E-02
DAV:   6    -0.140447041858E+03    0.91475E-05   -0.28005E-05  2248   0.278E-02
  18 F= -.14044704E+03 E0= -.14044474E+03  d E =-.172174E-02
       N       E                     dE             d eps       ncg     rms          rms(c)
DAV:   1    -0.140447479514E+03   -0.42851E-03   -0.46097E-01  2712   0.303E+00    0.920E-02
DAV:   2    -0.140448479744E+03   -0.10002E-02   -0.10922E-02  2976   0.426E-01    0.503E-02
DAV:   3    -0.140448425222E+03    0.54522E-04   -0.12468E-04  3240   0.527E-02    0.339E-02
DAV:   4    -0.140448389407E+03    0.35815E-04   -0.18375E-04  3056   0.738E-02    0.131E-02
DAV:   5    -0.140448391047E+03   -0.16406E-05   -0.57839E-05  2720   0.322E-02    0.120E-02
DAV:   6    -0.140448389131E+03    0.19158E-05   -0.90267E-06  1600   0.141E-02
  19 F= -.14044839E+03 E0= -.14044606E+03  d E =-.134727E-02
       N       E                     dE             d eps       ncg     rms          rms(c)
DAV:   1    -0.140442390361E+03    0.60007E-02   -0.41490E+00  2696   0.909E+00    0.273E-01
DAV:   2    -0.140451324898E+03   -0.89345E-02   -0.97365E-02  2976   0.127E+00    0.153E-01
DAV:   3    -0.140450816087E+03    0.50881E-03   -0.10451E-03  3256   0.157E-01    0.103E-01
DAV:   4    -0.140450436565E+03    0.37952E-03   -0.14991E-03  3024   0.236E-01    0.338E-02
DAV:   5    -0.140450458366E+03   -0.21801E-04   -0.61426E-04  2960   0.107E-01    0.323E-02
DAV:   6    -0.140450440509E+03    0.17857E-04   -0.70965E-05  2840   0.371E-02    0.172E-02
DAV:   7    -0.140450415929E+03    0.24580E-04   -0.14791E-05  1744   0.365E-02    0.774E-03
DAV:   8    -0.140450392287E+03    0.23642E-04   -0.19706E-05  2032   0.437E-02    0.816E-03
DAV:   9    -0.140450367779E+03    0.24508E-04   -0.15896E-05  2160   0.568E-02    0.686E-03
DAV:  10    -0.140450330866E+03    0.36913E-04   -0.56388E-05  2840   0.110E-01    0.109E-02
DAV:  11    -0.140450296952E+03    0.33914E-04   -0.63623E-05  2896   0.107E-01    0.125E-02
DAV:  12    -0.140450273221E+03    0.23731E-04   -0.56904E-05  2880   0.128E-01    0.913E-03
DAV:  13    -0.140450277042E+03   -0.38206E-05   -0.10634E-04  2568   0.449E-02    0.518E-03
DAV:  14    -0.140450276413E+03    0.62891E-06   -0.89512E-06  1640   0.165E-02
  20 F= -.14045028E+03 E0= -.14044795E+03  d E =-.323456E-02
       N       E                     dE             d eps       ncg     rms          rms(c)
DAV:   1    -0.140450537882E+03   -0.26084E-03   -0.57279E-01  2728   0.338E+00    0.985E-02
DAV:   2    -0.140451762727E+03   -0.12248E-02   -0.13205E-02  2968   0.471E-01    0.547E-02
DAV:   3    -0.140451705108E+03    0.57618E-04   -0.16677E-04  3232   0.564E-02    0.382E-02
DAV:   4    -0.140451662448E+03    0.42660E-04   -0.15347E-04  2992   0.662E-02    0.141E-02
DAV:   5    -0.140451661125E+03    0.13231E-05   -0.52496E-05  2704   0.336E-02    0.117E-02
DAV:   6    -0.140451658299E+03    0.28264E-05   -0.18186E-05  1632   0.207E-02
  21 F= -.14045166E+03 E0= -.14044933E+03  d E =-.138189E-02
       N       E                     dE             d eps       ncg     rms          rms(c)
DAV:   1    -0.140444277867E+03    0.73833E-02   -0.51539E+00  2712   0.101E+01    0.300E-01
DAV:   2    -0.140455395848E+03   -0.11118E-01   -0.11965E-01  2968   0.142E+00    0.166E-01
DAV:   3    -0.140454860747E+03    0.53510E-03   -0.14844E-03  3224   0.170E-01    0.114E-01
DAV:   4    -0.140454473598E+03    0.38715E-03   -0.13358E-03  3024   0.202E-01    0.411E-02
DAV:   5    -0.140454465875E+03    0.77230E-05   -0.47480E-04  3064   0.990E-02    0.328E-02
DAV:   6    -0.140454441478E+03    0.24397E-04   -0.15409E-04  2904   0.562E-02    0.158E-02
DAV:   7    -0.140454418947E+03    0.22531E-04   -0.28417E-05  2344   0.329E-02    0.118E-02
DAV:   8    -0.140454397011E+03    0.21936E-04   -0.10113E-05  1784   0.339E-02    0.872E-03
DAV:   9    -0.140454360983E+03    0.36027E-04   -0.43099E-05  2656   0.734E-02    0.909E-03
DAV:  10    -0.140454339398E+03    0.21586E-04   -0.30756E-05  2472   0.451E-02    0.112E-02
DAV:  11    -0.140454291734E+03    0.47664E-04   -0.94026E-05  3360   0.107E-01    0.155E-02
DAV:  12    -0.140454263298E+03    0.28435E-04   -0.75820E-05  3264   0.119E-01    0.809E-03
DAV:  13    -0.140454264739E+03   -0.14404E-05   -0.98294E-05  2608   0.669E-02
  22 F= -.14045426E+03 E0= -.14045202E+03  d E =-.398833E-02
       N       E                     dE             d eps       ncg     rms          rms(c)
DAV:   1    -0.140411737236E+03    0.42526E-01   -0.20616E+01  2720   0.203E+01    0.607E-01
DAV:   2    -0.140457016995E+03   -0.45280E-01   -0.48828E-01  2992   0.285E+00    0.349E-01
DAV:   3    -0.140454735150E+03    0.22818E-02   -0.63953E-03  3224   0.348E-01    0.233E-01
DAV:   4    -0.140453197376E+03    0.15378E-02   -0.50973E-03  3016   0.379E-01    0.853E-02
DAV:   5    -0.140453163756E+03    0.33620E-04   -0.16884E-03  3064   0.183E-01    0.568E-02
DAV:   6    -0.140453105605E+03    0.58150E-04   -0.52168E-04  2936   0.104E-01    0.305E-02
DAV:   7    -0.140453046335E+03    0.59270E-04   -0.81971E-05  3008   0.537E-02    0.187E-02
DAV:   8    -0.140452989826E+03    0.56509E-04   -0.50810E-05  2680   0.617E-02    0.100E-02
DAV:   9    -0.140452912949E+03    0.76878E-04   -0.28772E-05  2432   0.783E-02    0.102E-02
DAV:  10    -0.140452857297E+03    0.55652E-04   -0.40110E-05  2536   0.602E-02    0.104E-02
DAV:  11    -0.140452719236E+03    0.13806E-03   -0.15153E-04  3688   0.192E-01    0.189E-02
DAV:  12    -0.140452636882E+03    0.82354E-04   -0.27247E-04  3592   0.235E-01    0.142E-02
DAV:  13    -0.140452659727E+03   -0.22845E-04   -0.39267E-04  2680   0.938E-02    0.141E-02
DAV:  14    -0.140452663343E+03   -0.36161E-05   -0.59465E-05  2504   0.267E-02
  23 F= -.14045266E+03 E0= -.14045069E+03  d E =-.238693E-02
       N       E                     dE             d eps       ncg     rms          rms(c)
DAV:   1    -0.140434342934E+03    0.18317E-01   -0.10455E+01  2704   0.144E+01    0.427E-01
DAV:   2    -0.140456855590E+03   -0.22513E-01   -0.24292E-01  2968   0.202E+00    0.237E-01
DAV:   3    -0.140455794538E+03    0.10611E-02   -0.30418E-03  3280   0.240E-01    0.166E-01
DAV:   4    -0.140455025284E+03    0.76925E-03   -0.32104E-03  2960   0.297E-01    0.609E-02
DAV:   5    -0.140455026399E+03   -0.11144E-05   -0.91605E-04  3056   0.133E-01    0.538E-02
DAV:   6    -0.140454975066E+03    0.51333E-04   -0.62379E-04  2936   0.115E-01    0.256E-02
DAV:   7    -0.140454954527E+03    0.20538E-04   -0.72669E-05  2864   0.453E-02    0.241E-02
DAV:   8    -0.140454918355E+03    0.36173E-04   -0.47868E-05  2544   0.494E-02    0.970E-03
DAV:   9    -0.140454891010E+03    0.27345E-04   -0.42837E-05  2696   0.509E-02    0.932E-03
DAV:  10    -0.140454862289E+03    0.28721E-04   -0.11401E-05  1816   0.415E-02    0.785E-03
DAV:  11    -0.140454793735E+03    0.68554E-04   -0.58799E-05  3072   0.114E-01    0.634E-03
DAV:  12    -0.140454743040E+03    0.50696E-04   -0.14569E-04  3496   0.178E-01    0.462E-03
DAV:  13    -0.140454754871E+03   -0.11831E-04   -0.16935E-04  2608   0.553E-02    0.816E-03
DAV:  14    -0.140454754750E+03    0.12149E-06   -0.19643E-05  1936   0.203E-02
  24 F= -.14045475E+03 E0= -.14045257E+03  d E =-.447834E-02
       N       E                     dE             d eps       ncg     rms          rms(c)
DAV:   1    -0.140455579269E+03   -0.82440E-03   -0.36980E-01  2720   0.270E+00    0.814E-02
DAV:   2    -0.140456321548E+03   -0.74228E-03   -0.82141E-03  2968   0.370E-01    0.442E-02
DAV:   3    -0.140456290699E+03    0.30850E-04   -0.14391E-04  3232   0.512E-02    0.313E-02
DAV:   4    -0.140456265214E+03    0.25485E-04   -0.12165E-04  2984   0.541E-02    0.147E-02
DAV:   5    -0.140456259511E+03    0.57026E-05   -0.26300E-05  2312   0.289E-02    0.133E-02
DAV:   6    -0.140456250034E+03    0.94776E-05   -0.29194E-05  2216   0.353E-02
  25 F= -.14045625E+03 E0= -.14045412E+03  d E =-.149528E-02
       N       E                     dE             d eps       ncg     rms          rms(c)
DAV:   1    -0.140452258243E+03    0.40013E-02   -0.33256E+00  2696   0.810E+00    0.242E-01
DAV:   2    -0.140458893525E+03   -0.66353E-02   -0.73473E-02  2968   0.111E+00    0.132E-01
DAV:   3    -0.140458600365E+03    0.29316E-03   -0.12639E-03  3240   0.152E-01    0.929E-02
DAV:   4    -0.140458330098E+03    0.27027E-03   -0.93409E-04  3112   0.157E-01    0.424E-02
DAV:   5    -0.140458247004E+03    0.83094E-04   -0.26461E-04  3400   0.950E-02    0.383E-02
DAV:   6    -0.140458146836E+03    0.10017E-03   -0.21139E-04  3208   0.995E-02    0.166E-02
DAV:   7    -0.140458084056E+03    0.62780E-04   -0.68547E-05  2944   0.622E-02    0.144E-02
DAV:   8    -0.140457930191E+03    0.15386E-03   -0.64530E-05  3104   0.114E-01    0.972E-03
DAV:   9    -0.140457777667E+03    0.15252E-03   -0.14382E-04  3504   0.158E-01    0.191E-02
DAV:  10    -0.140457663955E+03    0.11371E-03   -0.23425E-04  3744   0.202E-01    0.737E-03
DAV:  11    -0.140457603440E+03    0.60516E-04   -0.20628E-04  3528   0.235E-01    0.116E-02
DAV:  12    -0.140457627015E+03   -0.23575E-04   -0.34082E-04  2824   0.806E-02    0.142E-02
DAV:  13    -0.140457626125E+03    0.88940E-06   -0.32223E-05  2352   0.230E-02
  26 F= -.14045763E+03 E0= -.14045562E+03  d E =-.287138E-02
       N       E                     dE             d eps       ncg     rms          rms(c)
DAV:   1    -0.140457515463E+03    0.11155E-03   -0.10828E-01  2696   0.146E+00    0.453E-02
DAV:   2    -0.140457730445E+03   -0.21498E-03   -0.24547E-03  2968   0.203E-01    0.234E-02
DAV:   3    -0.140457720849E+03    0.95954E-05   -0.45283E-05  2912   0.315E-02    0.168E-02
DAV:   4    -0.140457711872E+03    0.89770E-05   -0.32507E-05  2464   0.349E-02    0.800E-03
DAV:   5    -0.140457709005E+03    0.28677E-05   -0.13373E-05  1760   0.224E-02    0.753E-03
DAV:   6    -0.140457706023E+03    0.29817E-05   -0.78325E-06  1584   0.178E-02
  27 F= -.14045771E+03 E0= -.14045567E+03  d E =-.295127E-02
       N       E                     dE             d eps       ncg     rms          rms(c)
DAV:   1    -0.140457324362E+03    0.38464E-03   -0.69834E-01  2720   0.377E+00    0.118E-01
DAV:   2    -0.140458907754E+03   -0.15834E-02   -0.17513E-02  3000   0.541E-01    0.678E-02
DAV:   3    -0.140458821840E+03    0.85914E-04   -0.22994E-04  3240   0.724E-02    0.477E-02
DAV:   4    -0.140458764820E+03    0.57020E-04   -0.33705E-04  3040   0.995E-02    0.188E-02
DAV:   5    -0.140458767194E+03   -0.23735E-05   -0.85732E-05  2720   0.406E-02    0.170E-02
DAV:   6    -0.140458763433E+03    0.37607E-05   -0.39637E-05  2432   0.273E-02
  28 F= -.14045876E+03 E0= -.14045683E+03  d E =-.105741E-02
       N       E                     dE             d eps       ncg     rms          rms(c)
DAV:   1    -0.140458666236E+03    0.10096E-03   -0.13347E-01  2720   0.165E+00    0.518E-02
DAV:   2    -0.140458973513E+03   -0.30728E-03   -0.33573E-03  3000   0.236E-01    0.301E-02
DAV:   3    -0.140458955737E+03    0.17776E-04   -0.37396E-05  2568   0.315E-02    0.207E-02
DAV:   4    -0.140458944314E+03    0.11423E-04   -0.79125E-05  2880   0.513E-02    0.822E-03
DAV:   5    -0.140458945198E+03   -0.88410E-06   -0.22474E-05  2064   0.211E-02    0.775E-03
DAV:   6    -0.140458944537E+03    0.66157E-06   -0.40966E-06  1488   0.866E-03
  29 F= -.14045894E+03 E0= -.14045705E+03  d E =-.123851E-02
       N       E                     dE             d eps       ncg     rms          rms(c)
DAV:   1    -0.140457699084E+03    0.12461E-02   -0.53226E-01  2720   0.329E+00    0.103E-01
DAV:   2    -0.140458916195E+03   -0.12171E-02   -0.13416E-02  2992   0.473E-01    0.593E-02
DAV:   3    -0.140458849813E+03    0.66381E-04   -0.17005E-04  3240   0.636E-02    0.416E-02
DAV:   4    -0.140458806990E+03    0.42823E-04   -0.28345E-04  3040   0.921E-02    0.171E-02
DAV:   5    -0.140458809275E+03   -0.22849E-05   -0.72513E-05  2712   0.375E-02    0.159E-02
DAV:   6    -0.140458806081E+03    0.31937E-05   -0.25354E-05  2272   0.215E-02
  30 F= -.14045881E+03 E0= -.14045700E+03  d E =-.110006E-02
       N       E                     dE             d eps       ncg     rms          rms(c)
DAV:   1    -0.140458395024E+03    0.41425E-03   -0.27988E-01  2720   0.238E+00    0.750E-02
DAV:   2    -0.140459029104E+03   -0.63408E-03   -0.70571E-03  2984   0.344E-01    0.424E-02
DAV:   3    -0.140458996311E+03    0.32793E-04   -0.99435E-05  3208   0.463E-02    0.301E-02
DAV:   4    -0.140458974292E+03    0.22019E-04   -0.13109E-04  2968   0.594E-02    0.124E-02
DAV:   5    -0.140458974087E+03    0.20522E-06   -0.29330E-05  2144   0.246E-02    0.113E-02
DAV:   6    -0.140458972655E+03    0.14321E-05   -0.15643E-05  1680   0.187E-02
  31 F= -.14045897E+03 E0= -.14045711E+03  d E =-.126663E-02
       N       E                     dE             d eps       ncg     rms          rms(c)
DAV:   1    -0.140459224412E+03   -0.25033E-03   -0.10717E-01  2856   0.142E+00    0.414E-02
DAV:   2    -0.140459418569E+03   -0.19416E-03   -0.23570E-03  3040   0.200E-01    0.260E-02
DAV:   3    -0.140459399400E+03    0.19169E-04   -0.40494E-05  2816   0.321E-02    0.195E-02
DAV:   4    -0.140459379994E+03    0.19406E-04   -0.34113E-05  2448   0.377E-02    0.865E-03
DAV:   5    -0.140459373394E+03    0.66006E-05   -0.22964E-05  2312   0.329E-02    0.743E-03
DAV:   6    -0.140459370920E+03    0.24732E-05   -0.13326E-05  1592   0.195E-02
  32 F= -.14045937E+03 E0= -.14045751E+03  d E =-.398266E-03
       N       E                     dE             d eps       ncg     rms          rms(c)
DAV:   1    -0.140459314531E+03    0.58863E-04   -0.12951E-01  2856   0.157E+00    0.463E-02
DAV:   2    -0.140459545810E+03   -0.23128E-03   -0.28674E-03  3040   0.223E-01    0.292E-02
DAV:   3    -0.140459518642E+03    0.27167E-04   -0.56529E-05  2912   0.407E-02    0.221E-02
DAV:   4    -0.140459487888E+03    0.30754E-04   -0.37489E-05  2488   0.439E-02    0.107E-02
DAV:   5    -0.140459469421E+03    0.18468E-04   -0.30883E-05  2656   0.473E-02    0.881E-03
DAV:   6    -0.140459459768E+03    0.96527E-05   -0.33124E-05  2224   0.388E-02
  33 F= -.14045946E+03 E0= -.14045760E+03  d E =-.487113E-03
       N       E                     dE             d eps       ncg     rms          rms(c)
DAV:   1    -0.140459486207E+03   -0.16786E-04   -0.20634E-02  2768   0.630E-01    0.239E-02
DAV:   2    -0.140459529022E+03   -0.42814E-04   -0.62031E-04  2968   0.102E-01    0.162E-02
DAV:   3    -0.140459518504E+03    0.10517E-04   -0.15329E-05  1856   0.221E-02    0.109E-02
DAV:   4    -0.140459503322E+03    0.15182E-04   -0.11983E-05  1736   0.254E-02    0.503E-03
DAV:   5    -0.140459492531E+03    0.10791E-04   -0.83989E-06  1744   0.256E-02    0.400E-03
DAV:   6    -0.140459475416E+03    0.17115E-04   -0.53744E-06  1768   0.421E-02    0.292E-03
DAV:   7    -0.140459450335E+03    0.25081E-04   -0.22089E-05  2264   0.725E-02    0.416E-03
DAV:   8    -0.140459431101E+03    0.19234E-04   -0.34990E-05  2680   0.824E-02    0.420E-03
DAV:   9    -0.140459423670E+03    0.74302E-05   -0.35176E-05  2592   0.755E-02
  34 F= -.14045942E+03 E0= -.14045758E+03  d E =0.360975E-04
       N       E                     dE             d eps       ncg     rms          rms(c)
DAV:   1    -0.140459424273E+03    0.68275E-05   -0.98312E-04  2848   0.141E-01    0.620E-03
DAV:   2    -0.140459427302E+03   -0.30290E-05   -0.38362E-05  2424   0.245E-02    0.579E-03
DAV:   3    -0.140459426880E+03    0.42237E-06   -0.14178E-06  1560   0.541E-03    0.357E-03
DAV:   4    -0.140459426608E+03    0.27147E-06   -0.14209E-06  1536   0.534E-03    0.115E-03
DAV:   5    -0.140459426546E+03    0.62779E-07   -0.25947E-07  1536   0.256E-03    0.797E-04
DAV:   6    -0.140459426440E+03    0.10568E-06   -0.68235E-08  1440   0.304E-03
  35 F= -.14045943E+03 E0= -.14045758E+03  d E =0.333281E-04
       N       E                     dE             d eps       ncg     rms          rms(c)
DAV:   1    -0.140459477603E+03   -0.51058E-04   -0.37875E-03  2712   0.275E-01    0.894E-03
DAV:   2    -0.140459485201E+03   -0.75975E-05   -0.89948E-05  2960   0.388E-02    0.547E-03
DAV:   3    -0.140459484353E+03    0.84768E-06   -0.13686E-06  1456   0.812E-03    0.368E-03
DAV:   4    -0.140459483649E+03    0.70392E-06   -0.13327E-06  1536   0.962E-03    0.146E-03
DAV:   5    -0.140459483554E+03    0.95312E-07   -0.14706E-06  1416   0.737E-03    0.108E-03
DAV:   6    -0.140459483552E+03    0.17799E-08   -0.49555E-07  1392   0.293E-03
  36 F= -.14045948E+03 E0= -.14045764E+03  d E =-.571124E-04
       N       E                     dE             d eps       ncg     rms          rms(c)
DAV:   1    -0.140459547054E+03   -0.63500E-04   -0.34080E-02  2696   0.825E-01    0.267E-02
DAV:   2    -0.140459612330E+03   -0.65275E-04   -0.79982E-04  2992   0.116E-01    0.161E-02
DAV:   3    -0.140459603770E+03    0.85596E-05   -0.13006E-05  1872   0.258E-02    0.111E-02
DAV:   4    -0.140459595734E+03    0.80359E-05   -0.10474E-05  1728   0.306E-02    0.492E-03
DAV:   5    -0.140459593026E+03    0.27080E-05   -0.14596E-05  1824   0.283E-02    0.321E-03
DAV:   6    -0.140459593128E+03   -0.10198E-06   -0.79443E-06  1536   0.121E-02
  37 F= -.14045959E+03 E0= -.14045774E+03  d E =-.166688E-03
       N       E                     dE             d eps       ncg     rms          rms(c)
DAV:   1    -0.140459356014E+03    0.23701E-03   -0.13632E-01  2696   0.165E+00    0.535E-02
DAV:   2    -0.140459613731E+03   -0.25772E-03   -0.32104E-03  2984   0.233E-01    0.325E-02
DAV:   3    -0.140459576998E+03    0.36733E-04   -0.56115E-05  3064   0.533E-02    0.227E-02
DAV:   4    -0.140459543478E+03    0.33520E-04   -0.38924E-05  2568   0.586E-02    0.109E-02
DAV:   5    -0.140459525776E+03    0.17702E-04   -0.41530E-05  2712   0.585E-02    0.584E-03
DAV:   6    -0.140459517032E+03    0.87439E-05   -0.26772E-05  2112   0.444E-02
  38 F= -.14045952E+03 E0= -.14045766E+03  d E =-.905919E-04
       N       E                     dE             d eps       ncg     rms          rms(c)
DAV:   1    -0.140459519422E+03    0.63536E-05   -0.48097E-02  2696   0.980E-01    0.329E-02
DAV:   2    -0.140459617967E+03   -0.98545E-04   -0.11799E-03  2984   0.140E-01    0.201E-02
DAV:   3    -0.140459607921E+03    0.10046E-04   -0.22224E-05  2080   0.269E-02    0.137E-02
DAV:   4    -0.140459600969E+03    0.69525E-05   -0.16655E-05  1768   0.254E-02    0.581E-03
DAV:   5    -0.140459599530E+03    0.14385E-05   -0.10355E-05  1632   0.179E-02    0.385E-03
DAV:   6    -0.140459598944E+03    0.58653E-06   -0.40027E-06  1464   0.103E-02
  39 F= -.14045960E+03 E0= -.14045775E+03  d E =-.172504E-03
       N       E                     dE             d eps       ncg     rms          rms(c)
DAV:   1    -0.140459715166E+03   -0.11564E-03   -0.71072E-03  2792   0.367E-01    0.132E-02
DAV:   2    -0.140459727128E+03   -0.11963E-04   -0.17436E-04  3064   0.546E-02    0.883E-03
DAV:   3    -0.140459724702E+03    0.24266E-05   -0.64197E-06  1600   0.131E-02    0.661E-03
DAV:   4    -0.140459721347E+03    0.33552E-05   -0.28755E-06  1624   0.127E-02    0.352E-03
DAV:   5    -0.140459717207E+03    0.41395E-05   -0.36522E-06  1672   0.183E-02    0.316E-03
DAV:   6    -0.140459714434E+03    0.27726E-05   -0.45899E-06  1664   0.153E-02
  40 F= -.14045971E+03 E0= -.14045786E+03  d E =-.115491E-03
       N       E                     dE             d eps       ncg     rms          rms(c)
DAV:   1    -0.140459760183E+03   -0.42975E-04   -0.21304E-02  2856   0.637E-01    0.209E-02
DAV:   2    -0.140459798276E+03   -0.38094E-04   -0.50659E-04  3056   0.913E-02    0.150E-02
DAV:   3    -0.140459791169E+03    0.71070E-05   -0.10697E-05  1704   0.186E-02    0.110E-02
DAV:   4    -0.140459777748E+03    0.13422E-04   -0.10860E-05  1768   0.306E-02    0.480E-03
DAV:   5    -0.140459770647E+03    0.71004E-05   -0.12723E-05  1712   0.252E-02    0.547E-03
DAV:   6    -0.140459768285E+03    0.23626E-05   -0.71444E-06  1584   0.125E-02
  41 F= -.14045977E+03 E0= -.14045790E+03  d E =-.169341E-03
       N       E                     dE             d eps       ncg     rms          rms(c)
DAV:   1    -0.140459833142E+03   -0.62495E-04   -0.79985E-03  2848   0.397E-01    0.161E-02
DAV:   2    -0.140459852759E+03   -0.19617E-04   -0.29048E-04  3040   0.697E-02    0.124E-02
DAV:   3    -0.140459848515E+03    0.42444E-05   -0.70724E-06  1640   0.142E-02    0.879E-03
DAV:   4    -0.140459841705E+03    0.68101E-05   -0.23157E-05  2264   0.282E-02    0.623E-03
DAV:   5    -0.140459841651E+03    0.53455E-07   -0.64116E-06  1584   0.108E-02    0.640E-03
DAV:   6    -0.140459841524E+03    0.12691E-06   -0.78040E-07  1464   0.354E-03
  42 F= -.14045984E+03 E0= -.14045799E+03  d E =-.732396E-04
