 vasp.5.3.5 31Mar14 (build Apr 08 2024 10:12:10) complex                        
  
 executed on             LinuxIFC date 2024.07.29  21:12:12
 running on    8 total cores
 distrk:  each k-point on    8 cores,    1 groups
 distr:  one band on NCORES_PER_BAND=   4 cores,    2 groups


--------------------------------------------------------------------------------------------------------


 INCAR:
 POTCAR:    PAW_PBE O 08Apr2002                   
 POTCAR:    PAW_PBE Mg 13Apr2007                  
 POTCAR:    PAW_PBE Al 04Jan2001                  
 POTCAR:    PAW_PBE O 08Apr2002                   
   VRHFIN =O: s2p4                                                              
   LEXCH  = PE                                                                  
   EATOM  =   432.3788 eV,   31.7789 Ry                                         
                                                                                
   TITEL  = PAW_PBE O 08Apr2002                                                 
   LULTRA =        F    use ultrasoft PP ?                                      
   IUNSCR =        1    unscreen: 0-lin 1-nonlin 2-no                           
   RPACOR =    1.200    partial core radius                                     
   POMASS =   16.000; ZVAL   =    6.000    mass and valenz                      
   RCORE  =    1.520    outmost cutoff radius                                   
   RWIGS  =    1.550; RWIGS  =    0.820    wigner-seitz radius (au A)           
   ENMAX  =  400.000; ENMIN  =  300.000 eV                                      
   ICORE  =        2    local potential                                         
   LCOR   =        T    correct aug charges                                     
   LPAW   =        T    paw PP                                                  
   EAUG   =  605.392                                                            
   DEXC   =    0.000                                                            
   RMAX   =    1.553    core radius for proj-oper                               
   RAUG   =    1.300    factor for augmentation sphere                          
   RDEP   =    1.550    radius for radial grids                                 
   RDEPT  =    1.329    core radius for aug-charge                              
                                                                                
   Atomic configuration                                                         
    4 entries                                                                   
     n  l   j            E        occ.                                          
     1  0  0.50      -514.6923   2.0000                                         
     2  0  0.50       -23.9615   2.0000                                         
     2  1  0.50        -9.0305   4.0000                                         
     3  2  1.50        -9.5241   0.0000                                         
   Description                                                                  
     l       E           TYP  RCUT    TYP  RCUT                                 
     0    -23.9615318     23  1.200                                             
     0     -9.5240782     23  1.200                                             
     1     -9.0304911     23  1.520                                             
     1      8.1634956     23  1.520                                             
     2     -9.5240782      7  1.500                                             
  local pseudopotential read in
  partial core-charges read in
  partial kinetic energy density read in
  kinetic energy density of atom read in
  atomic valenz-charges read in
  non local Contribution for L=           0  read in
    real space projection operators read in
  non local Contribution for L=           0  read in
    real space projection operators read in
  non local Contribution for L=           1  read in
    real space projection operators read in
  non local Contribution for L=           1  read in
    real space projection operators read in
    PAW grid and wavefunctions read in
 
   number of l-projection  operators is LMAX  =           4
   number of lm-projection operators is LMMAX =           8
 
 POTCAR:    PAW_PBE Mg 13Apr2007                  
   VRHFIN =Mg: s2p0                                                             
   LEXCH  = PE                                                                  
   EATOM  =    23.0369 eV,    1.6932 Ry                                         
                                                                                
   TITEL  = PAW_PBE Mg 13Apr2007                                                
   LULTRA =        F    use ultrasoft PP ?                                      
   IUNSCR =        1    unscreen: 0-lin 1-nonlin 2-no                           
   RPACOR =    1.500    partial core radius                                     
   POMASS =   24.305; ZVAL   =    2.000    mass and valenz                      
   RCORE  =    2.000    outmost cutoff radius                                   
   RWIGS  =    2.880; RWIGS  =    1.524    wigner-seitz radius (au A)           
   ENMAX  =  200.000; ENMIN  =  100.000 eV                                      
   RCLOC  =    1.506    cutoff for local pot                                    
   LCOR   =        T    correct aug charges                                     
   LPAW   =        T    paw PP                                                  
   EAUG   =  454.734                                                            
   DEXC   =    0.000                                                            
   RMAX   =    2.045    core radius for proj-oper                               
   RAUG   =    1.300    factor for augmentation sphere                          
   RDEP   =    2.025    radius for radial grids                                 
   RDEPT  =    1.942    core radius for aug-charge                              
                                                                                
   Atomic configuration                                                         
    6 entries                                                                   
     n  l   j            E        occ.                                          
     1  0  0.50     -1259.6230   2.0000                                         
     2  0  0.50       -79.8442   2.0000                                         
     2  1  1.50       -46.6121   6.0000                                         
     3  0  0.50        -4.7055   2.0000                                         
     3  1  0.50        -1.3660   0.0000                                         
     3  2  1.50        -1.3606   0.0000                                         
   Description                                                                  
     l       E           TYP  RCUT    TYP  RCUT                                 
     0     -4.7054661     23  2.000                                             
     0     27.2116520     23  2.000                                             
     1      1.3605826     23  2.000                                             
     1     27.2116520     23  2.000                                             
     2     -1.3605826     23  2.000                                             
  local pseudopotential read in
  partial core-charges read in
  partial kinetic energy density read in
  atomic valenz-charges read in
  non local Contribution for L=           0  read in
    real space projection operators read in
  non local Contribution for L=           0  read in
    real space projection operators read in
  non local Contribution for L=           1  read in
    real space projection operators read in
  non local Contribution for L=           1  read in
    real space projection operators read in
  non local Contribution for L=           2  read in
    real space projection operators read in
    PAW grid and wavefunctions read in
 
   number of l-projection  operators is LMAX  =           5
   number of lm-projection operators is LMMAX =          13
 
 POTCAR:    PAW_PBE Al 04Jan2001                  
   VRHFIN =Al: s2p1                                                             
   LEXCH  = PE                                                                  
   EATOM  =    53.5387 eV,    3.9350 Ry                                         
                                                                                
   TITEL  = PAW_PBE Al 04Jan2001                                                
   LULTRA =        F    use ultrasoft PP ?                                      
   IUNSCR =        1    unscreen: 0-lin 1-nonlin 2-no                           
   RPACOR =    1.500    partial core radius                                     
   POMASS =   26.981; ZVAL   =    3.000    mass and valenz                      
   RCORE  =    1.900    outmost cutoff radius                                   
   RWIGS  =    2.650; RWIGS  =    1.402    wigner-seitz radius (au A)           
   ENMAX  =  240.300; ENMIN  =  180.225 eV                                      
   ICORE  =        2    local potential                                         
   LCOR   =        T    correct aug charges                                     
   LPAW   =        T    paw PP                                                  
   EAUG   =  291.052                                                            
   DEXC   =    0.000                                                            
   RMAX   =    1.939    core radius for proj-oper                               
   RAUG   =    1.300    factor for augmentation sphere                          
   RDEP   =    1.966    radius for radial grids                                 
   RDEPT  =    1.856    core radius for aug-charge                              
                                                                                
   Atomic configuration                                                         
    6 entries                                                                   
     n  l   j            E        occ.                                          
     1  0  0.50     -1511.1048   2.0000                                         
     2  0  0.50      -108.1629   2.0000                                         
     2  1  1.50       -69.6402   6.0000                                         
     3  0  0.50        -7.7528   2.0000                                         
     3  1  1.50        -2.7121   1.0000                                         
     3  2  2.50        -2.7212   0.0000                                         
   Description                                                                  
     l       E           TYP  RCUT    TYP  RCUT                                 
     0     -7.7528455     23  1.900                                             
     0     -3.3096929     23  1.900                                             
     1     -2.7120682     23  1.900                                             
     1     13.6058260     23  1.900                                             
     2     -2.7211652      7  1.900                                             
  local pseudopotential read in
  partial core-charges read in
  partial kinetic energy density read in
  atomic valenz-charges read in
  non local Contribution for L=           0  read in
    real space projection operators read in
  non local Contribution for L=           0  read in
    real space projection operators read in
  non local Contribution for L=           1  read in
    real space projection operators read in
  non local Contribution for L=           1  read in
    real space projection operators read in
    PAW grid and wavefunctions read in
 
   number of l-projection  operators is LMAX  =           4
   number of lm-projection operators is LMMAX =           8
 

 ----------------------------------------------------------------------------- 
|                                                                             |
|  ADVICE TO THIS USER RUNNING 'VASP/VAMP'   (HEAR YOUR MASTER'S VOICE ...):  |
|                                                                             |
|      You have a (more or less) 'large supercell' and for larger cells       |
|      it might be more efficient to use real space projection opertators     |
|      So try LREAL= Auto  in the INCAR   file.                               |
|      Mind: At the moment your POTCAR file does not contain real space       |
|       projectors, and has to be modified,  BUT if you                       |
|      want to do an extremely  accurate calculation you might also keep the  |
|      reciprocal projection scheme          (i.e. LREAL=.FALSE.)             |
|                                                                             |
 ----------------------------------------------------------------------------- 

  PAW_PBE O 08Apr2002                   :
 energy of atom  1       EATOM= -432.3788
 kinetic energy error for atom=    0.0208 (will be added to EATOM!!)
  PAW_PBE Mg 13Apr2007                  :
 energy of atom  2       EATOM=  -23.0369
 kinetic energy error for atom=    0.0000 (will be added to EATOM!!)
  PAW_PBE Al 04Jan2001                  :
 energy of atom  3       EATOM=  -53.5387
 kinetic energy error for atom=    0.0002 (will be added to EATOM!!)
 
 
 POSCAR: Layer                                   
  positions in direct lattice
  velocities in cartesian coordinates
 exchange correlation table for  LEXCH =        8
   RHO(1)=    0.500       N(1)  =     2000
   RHO(2)=  100.500       N(2)  =     4000
 


--------------------------------------------------------------------------------------------------------


 ion  position               nearest neighbor table
   1  0.000  0.000  0.257-  21 1.76  14 2.10  14 2.10  14 2.10
   2  0.333  0.667  0.315-  11 2.15  11 2.15  11 2.15  14 2.16  14 2.16  14 2.16
   3  0.000  0.000  0.436-  15 2.15  15 2.15  15 2.15  17 2.15  17 2.15  17 2.15
   4  0.333  0.667  0.496-  15 2.15  15 2.15  15 2.15  12 2.15  12 2.15  12 2.15
   5  0.000  0.000  0.616-  18 2.15  18 2.15  18 2.15  16 2.15  16 2.15  16 2.15
   6  0.333  0.667  0.677-  13 2.15  13 2.15  13 2.15  16 2.15  16 2.15  16 2.15
   7  0.000  0.000  0.795-  24 1.76  19 2.10  19 2.10  19 2.10
   8  0.667  0.333  0.375-  11 2.15  11 2.15  11 2.15  17 2.15  17 2.15  17 2.15
   9  0.667  0.333  0.556-  18 2.15  18 2.15  18 2.15  12 2.15  12 2.15  12 2.15
  10  0.667  0.333  0.737-  13 2.15  13 2.15  13 2.15  19 2.16  19 2.16  19 2.16
  11  0.000  0.000  0.345-   8 2.15   8 2.15   8 2.15   2 2.15   2 2.15   2 2.15  17 3.09  17 3.09
                            17 3.09  14 3.09  14 3.09  14 3.09
  12  0.000  0.000  0.526-   9 2.15   9 2.15   9 2.15   4 2.15   4 2.15   4 2.15  18 3.09  18 3.09
                            18 3.09  15 3.09  15 3.09  15 3.09
  13  0.000  0.000  0.707-   6 2.15   6 2.15   6 2.15  10 2.15  10 2.15  10 2.15  16 3.09  16 3.09
                            16 3.09  19 3.09  19 3.09  19 3.09
  14  0.667  0.333  0.285-   1 2.10   1 2.10   1 2.10   2 2.16   2 2.16   2 2.16  11 3.09  11 3.09
                            11 3.09  21 3.41  21 3.41  21 3.41
  15  0.667  0.333  0.466-   4 2.15   4 2.15   4 2.15   3 2.15   3 2.15   3 2.15  12 3.09  12 3.09
                            12 3.09  17 3.09  17 3.09  17 3.09
  16  0.667  0.333  0.647-   5 2.15   5 2.15   5 2.15   6 2.15   6 2.15   6 2.15  18 3.09  18 3.09
                            18 3.09  13 3.09  13 3.09  13 3.09
  17  0.333  0.667  0.406-   3 2.15   3 2.15   3 2.15   8 2.15   8 2.15   8 2.15  15 3.09  15 3.09
                            15 3.09  11 3.09  11 3.09  11 3.09
  18  0.333  0.667  0.586-   9 2.15   9 2.15   9 2.15   5 2.15   5 2.15   5 2.15  12 3.09  12 3.09
                            12 3.09  16 3.09  16 3.09  16 3.09
  19  0.333  0.667  0.767-   7 2.10   7 2.10   7 2.10  10 2.16  10 2.16  10 2.16  13 3.09  13 3.09
                            13 3.09  24 3.41  24 3.41  24 3.41
  20  0.000  0.000  0.026-  25 3.16  25 3.16  25 3.16  23 3.16  23 3.16  23 3.16
  21  0.000  0.000  0.216-   1 1.76  22 3.11  22 3.11  22 3.11  14 3.41  14 3.41  14 3.41
  22  0.667  0.333  0.155-  21 3.11  21 3.11  21 3.11  23 3.31  23 3.31  23 3.31
  23  0.333  0.667  0.088-  20 3.16  20 3.16  20 3.16  22 3.31  22 3.31  22 3.31
  24  0.000  0.000  0.836-   7 1.76  26 3.11  26 3.11  26 3.11  19 3.41  19 3.41  19 3.41
  25  0.667  0.333  0.964-  20 3.16  20 3.16  20 3.16  26 3.31  26 3.31  26 3.31
  26  0.333  0.667  0.897-  24 3.11  24 3.11  24 3.11  25 3.31  25 3.31  25 3.31
 
  LATTYP: Found a hexagonal cell.
 ALAT       =     3.0027496481
 C/A-ratio  =    14.1193333043
  
  Lattice vectors:
  
 A1 = (   2.6004576727,  -1.5013744842,   0.0000000000)
 A2 = (   0.0000000000,   3.0027489684,   0.0000000000)
 A3 = (   0.0000000000,  -0.0000000000,  42.3968231111)


Analysis of symmetry for initial positions (statically):
=====================================================================
 Subroutine PRICEL returns:
 Original cell was already a primitive cell.
 

 Routine SETGRP: Setting up the symmetry group for a 
 hexagonal supercell.


 Subroutine GETGRP returns: Found  6 space group operations
 (whereof  6 operations were pure point group operations)
 out of a pool of 24 trial point group operations.


The static configuration has the point symmetry C_3v.


Analysis of symmetry for dynamics (positions and initial velocities):
=====================================================================
 Subroutine PRICEL returns:
 Original cell was already a primitive cell.
 

 Routine SETGRP: Setting up the symmetry group for a 
 hexagonal supercell.


 Subroutine GETGRP returns: Found  6 space group operations
 (whereof  6 operations were pure point group operations)
 out of a pool of 24 trial point group operations.


The dynamic configuration has the point symmetry C_3v.


Analysis of constrained symmetry for selective dynamics:
=====================================================================
 Subroutine PRICEL returns:
 Original cell was already a primitive cell.
 

 Routine SETGRP: Setting up the symmetry group for a 
 hexagonal supercell.


 Subroutine GETGRP returns: Found  6 space group operations
 (whereof  6 operations were pure point group operations)
 out of a pool of 24 trial point group operations.


The constrained configuration has the point symmetry C_3v.
 
 
 KPOINTS: K-Spacing Value to Generate K-Mesh: 0.02

Automatic generation of k-mesh.
Space group operators:
 irot       det(A)        alpha          n_x          n_y          n_z        tau_x        tau_y        tau_z
    1     1.000000     0.000001     1.000000     0.000000     0.000000     0.000000     0.000000     0.000000
    2     1.000000   120.000000    -0.000000    -0.000000    -1.000000     0.000000     0.000000     0.000000
    3     1.000000   120.000000     0.000000    -0.000000     1.000000     0.000000     0.000000     0.000000
    4    -1.000000   180.000000    -0.866025     0.500000     0.000000     0.000000     0.000000     0.000000
    5    -1.000000   180.000000     0.000000     1.000000     0.000000     0.000000     0.000000     0.000000
    6    -1.000000   180.000000    -0.866025    -0.500000     0.000000     0.000000     0.000000     0.000000
 
 Subroutine IBZKPT returns following result:
 ===========================================
 
 Found     21 irreducible k-points:
 
 Following reciprocal coordinates:
            Coordinates               Weight
  0.000000  0.000000  0.000000      1.000000
  0.076923  0.000000  0.000000      6.000000
  0.153846  0.000000  0.000000      6.000000
  0.230769  0.000000  0.000000      6.000000
  0.307692  0.000000  0.000000      6.000000
  0.384615  0.000000  0.000000      6.000000
  0.461538  0.000000  0.000000      6.000000
  0.076923  0.076923 -0.000000      6.000000
  0.153846  0.076923  0.000000     12.000000
  0.230769  0.076923  0.000000     12.000000
  0.307692  0.076923  0.000000     12.000000
  0.384615  0.076923  0.000000     12.000000
  0.461538  0.076923 -0.000000      6.000000
  0.153846  0.153846 -0.000000      6.000000
  0.230769  0.153846  0.000000     12.000000
  0.307692  0.153846  0.000000     12.000000
  0.384615  0.153846  0.000000     12.000000
  0.230769  0.230769  0.000000      6.000000
  0.307692  0.230769  0.000000     12.000000
  0.384615  0.230769  0.000000      6.000000
  0.307692  0.307692  0.000000      6.000000
 
 Following cartesian coordinates:
            Coordinates               Weight
  0.000000  0.000000  0.000000      1.000000
  0.029581  0.000000 -0.000000      6.000000
  0.059161  0.000000 -0.000000      6.000000
  0.088742  0.000000 -0.000000      6.000000
  0.118322  0.000000 -0.000000      6.000000
  0.147903  0.000000 -0.000000      6.000000
  0.177484  0.000000 -0.000000      6.000000
  0.044371  0.025618 -0.000000      6.000000
  0.073951  0.025618 -0.000000     12.000000
  0.103532  0.025618 -0.000000     12.000000
  0.133113  0.025618 -0.000000     12.000000
  0.162693  0.025618 -0.000000     12.000000
  0.192274  0.025618 -0.000000      6.000000
  0.088742  0.051235 -0.000000      6.000000
  0.118322  0.051235 -0.000000     12.000000
  0.147903  0.051235 -0.000000     12.000000
  0.177484  0.051235 -0.000000     12.000000
  0.133113  0.076853 -0.000000      6.000000
  0.162693  0.076853 -0.000000     12.000000
  0.192274  0.076853 -0.000000      6.000000
  0.177484  0.102470 -0.000000      6.000000
 


--------------------------------------------------------------------------------------------------------




 Dimension of arrays:
   k-points           NKPTS =     21   k-points in BZ     NKDIM =     21   number of bands    NBANDS=     64
   number of dos      NEDOS =    301   number of ions     NIONS =     26
   non local maximal  LDIM  =      5   non local SUM 2l+1 LMDIM =     13
   total plane-waves  NPLWV = 184320
   max r-space proj   IRMAX =      1   max aug-charges    IRDMAX= 189387
   dimension x,y,z NGX =    24 NGY =   24 NGZ =  320
   dimension x,y,z NGXF=    48 NGYF=   48 NGZF=  640
   support grid    NGXF=    96 NGYF=   96 NGZF= 1280
   ions per type =              10   9   7
 NGX,Y,Z   is equivalent  to a cutoff of  13.29, 13.29, 12.55 a.u.
 NGXF,Y,Z  is equivalent  to a cutoff of  26.57, 26.57, 25.10 a.u.


 I would recommend the setting:
   dimension x,y,z NGX =    22 NGY =   22 NGZ =  315
 SYSTEM =  unknown system                          
 POSCAR =  Layer                                   

 Startparameter for this run:
   NWRITE =      2    write-flag & timer
   PREC   = accura    normal or accurate (medium, high low for compatibility)
   ISTART =      0    job   : 0-new  1-cont  2-samecut
   ICHARG =      2    charge: 1-file 2-atom 10-const
   ISPIN  =      1    spin polarized calculation?
   LNONCOLLINEAR =      F non collinear calculations
   LSORBIT =      F    spin-orbit coupling
   INIWAV =      1    electr: 0-lowe 1-rand  2-diag
   LASPH  =      F    aspherical Exc in radial PAW
   METAGGA=      F    non-selfconsistent MetaGGA calc.

 Electronic Relaxation 1
   ENCUT  =  520.0 eV  38.22 Ry    6.18 a.u.   5.58  5.58 78.83*2*pi/ulx,y,z
   ENINI  =  520.0     initial cutoff
   ENAUG  =  605.4 eV  augmentation charge cutoff
   NELM   =    100;   NELMIN=  6; NELMDL=  0     # of ELM steps 
   EDIFF  = 0.1E-04   stopping-criterion for ELM
   LREAL  =      F    real-space projection
   NLSPLINE    = F    spline interpolate recip. space projectors
   LCOMPAT=      F    compatible to vasp.4.4
   GGA_COMPAT  = T    GGA compatible to vasp.4.4-vasp.4.6
   LMAXPAW     = -100 max onsite density
   LMAXMIX     =    2 max onsite mixed and CHGCAR
   VOSKOWN=      0    Vosko Wilk Nusair interpolation
   ROPT   =    0.00000   0.00000   0.00000
 Ionic relaxation
   EDIFFG = -.2E-01   stopping-criterion for IOM
   NSW    =    500    number of steps for IOM
   NBLOCK =      1;   KBLOCK =    500    inner block; outer block 
   IBRION =      2    ionic relax: 0-MD 1-quasi-New 2-CG
   NFREE  =      1    steps in history (QN), initial steepest desc. (CG)
   ISIF   =      2    stress and relaxation
   IWAVPR =     11    prediction:  0-non 1-charg 2-wave 3-comb
   ISYM   =      2    0-nonsym 1-usesym 2-fastsym
   LCORR  =      T    Harris-Foulkes like correction to forces

   POTIM  = 0.5000    time-step for ionic-motion
   TEIN   =    0.0    initial temperature
   TEBEG  =    0.0;   TEEND  =   0.0 temperature during run
   SMASS  =  -3.00    Nose mass-parameter (am)
   estimated Nose-frequenzy (Omega)   =  0.10E-29 period in steps =****** mass=  -0.206E-27a.u.
   SCALEE = 1.0000    scale energy and forces
   NPACO  =    256;   APACO  = 16.0  distance and # of slots for P.C.
   PSTRESS=    0.0 pullay stress

  Mass of Ions in am
   POMASS =  16.00 24.30 26.98
  Ionic Valenz
   ZVAL   =   6.00  2.00  3.00
  Atomic Wigner-Seitz radii
   RWIGS  =  -1.00 -1.00 -1.00
  virtual crystal weights 
   VCA    =   1.00  1.00  1.00
   NELECT =      99.0000    total number of electrons
   NUPDOWN=      -1.0000    fix difference up-down

 DOS related values:
   EMIN   =  10.00;   EMAX   =-10.00  energy-range for DOS
   EFERMI =   0.00
   ISMEAR =     0;   SIGMA  =   0.05  broadening in eV -4-tet -1-fermi 0-gaus

 Electronic relaxation 2 (details)
   IALGO  =     38    algorithm
   LDIAG  =      T    sub-space diagonalisation (order eigenvalues)
   LSUBROT=      F    optimize rotation matrix (better conditioning)
   TURBO    =      0    0=normal 1=particle mesh
   IRESTART =      0    0=no restart 2=restart with 2 vectors
   NREBOOT  =      0    no. of reboots
   NMIN     =      0    reboot dimension
   EREF     =   0.00    reference energy to select bands
   IMIX   =      4    mixing-type and parameters
     AMIX     =   0.40;   BMIX     =  1.00
     AMIX_MAG =   1.60;   BMIX_MAG =  1.00
     AMIN     =   0.01
     WC   =   100.;   INIMIX=   1;  MIXPRE=   1;  MAXMIX= -45

 Intra band minimization:
   WEIMIN = 0.0010     energy-eigenvalue tresh-hold
   EBREAK =  0.39E-07  absolut break condition
   DEPER  =   0.30     relativ break condition  

   TIME   =   0.40     timestep for ELM

  volume/ion in A,a.u.               =      12.73        85.93
  Fermi-wavevector in a.u.,A,eV,Ry     =   1.094761  2.068798 16.306595  1.198501
  Thomas-Fermi vector in A             =   2.231071
 
 Write flags
   LWAVE  =      F    write WAVECAR
   LCHARG =      T    write CHGCAR
   LVTOT  =      F    write LOCPOT, total local potential
   LVHAR  =      F    write LOCPOT, Hartree potential only
   LELF   =      F    write electronic localiz. function (ELF)
   LORBIT =      0    0 simple, 1 ext, 2 COOP (PROOUT)


 Dipole corrections
   LMONO  =      F    monopole corrections only (constant potential shift)
   LDIPOL =      F    correct potential (dipole corrections)
   IDIPOL =      0    1-x, 2-y, 3-z, 4-all directions 
   EPSILON=  1.0000000 bulk dielectric constant

 Exchange correlation treatment:
   GGA     =    --    GGA type
   LEXCH   =     8    internal setting for exchange type
   VOSKOWN=      0    Vosko Wilk Nusair interpolation
   LHFCALC =     F    Hartree Fock is set to
   LHFONE  =     F    Hartree Fock one center treatment
   AEXX    =    0.0000 exact exchange contribution

 Linear response parameters
   LEPSILON=     F    determine dielectric tensor
   LRPA    =     F    only Hartree local field effects (RPA)
   LNABLA  =     F    use nabla operator in PAW spheres
   LVEL    =     F    velocity operator in full k-point grid
   LINTERFAST=   F  fast interpolation
   KINTER  =     0    interpolate to denser k-point grid
   CSHIFT  =0.1000    complex shift for real part using Kramers Kronig
   OMEGAMAX=  -1.0    maximum frequency
   DEG_THRESHOLD= 0.2000000E-02 threshold for treating states as degnerate
   RTIME   =    0.100 relaxation time in fs

 Orbital magnetization related:
   ORBITALMAG=     F  switch on orbital magnetization
   LCHIMAG   =     F  perturbation theory with respect to B field
   DQ        =  0.001000  dq finite difference perturbation B field



--------------------------------------------------------------------------------------------------------


 conjugate gradient relaxation of ions
   using selective dynamics as specified on POSCAR
 charge density and potential will be updated during run
 non-spin polarized calculation
 Variant of blocked Davidson
 Davidson routine will perform the subspace rotation
 perform sub-space diagonalisation
    after iterative eigenvector-optimisation
 modified Broyden-mixing scheme, WC =      100.0
 initial mixing is a Kerker type mixing with AMIX =  0.4000 and BMIX =      1.0000
 Hartree-type preconditioning will be used
 using additional bands           14
 reciprocal scheme for non local part
 use partial core corrections
 calculate Harris-corrections to forces 
   (improved forces if not selfconsistent)
 use gradient corrections 
 use of overlap-Matrix (Vanderbilt PP)
 Gauss-broadening in eV      SIGMA  =   0.05


--------------------------------------------------------------------------------------------------------


  energy-cutoff  :      520.00
  volume of cell :      331.06
      direct lattice vectors                 reciprocal lattice vectors
     2.600457673 -1.501374484  0.000000000     0.384547693  0.000000000 -0.000000000
     0.000000000  3.002748968  0.000000000     0.192273847  0.333028172 -0.000000000
     0.000000000 -0.000000000 42.396823111     0.000000000  0.000000000  0.023586673

  length of vectors
     3.002749648  3.002748968 42.396823111     0.384547693  0.384547781  0.023586673


 
 k-points in units of 2pi/SCALE and weight: K-Spacing Value to Generate K-Mesh: 0.02
   0.00000000  0.00000000  0.00000000       0.006
   0.02958059  0.00000000 -0.00000000       0.036
   0.05916118  0.00000000 -0.00000000       0.036
   0.08874178  0.00000000 -0.00000000       0.036
   0.11832237  0.00000000 -0.00000000       0.036
   0.14790296  0.00000000 -0.00000000       0.036
   0.17748355  0.00000000 -0.00000000       0.036
   0.04437089  0.02561755 -0.00000000       0.036
   0.07395148  0.02561755 -0.00000000       0.071
   0.10353207  0.02561755 -0.00000000       0.071
   0.13311266  0.02561755 -0.00000000       0.071
   0.16269325  0.02561755 -0.00000000       0.071
   0.19227385  0.02561755 -0.00000000       0.036
   0.08874178  0.05123510 -0.00000000       0.036
   0.11832237  0.05123510 -0.00000000       0.071
   0.14790296  0.05123510 -0.00000000       0.071
   0.17748355  0.05123510 -0.00000000       0.071
   0.13311266  0.07685266 -0.00000000       0.036
   0.16269325  0.07685266 -0.00000000       0.071
   0.19227385  0.07685266 -0.00000000       0.036
   0.17748355  0.10247021 -0.00000000       0.036
 
 k-points in reciprocal lattice and weights: K-Spacing Value to Generate K-Mesh: 0.02
   0.00000000  0.00000000  0.00000000       0.006
   0.07692308  0.00000000  0.00000000       0.036
   0.15384615  0.00000000  0.00000000       0.036
   0.23076923  0.00000000  0.00000000       0.036
   0.30769231  0.00000000  0.00000000       0.036
   0.38461538  0.00000000  0.00000000       0.036
   0.46153846  0.00000000  0.00000000       0.036
   0.07692308  0.07692308 -0.00000000       0.036
   0.15384615  0.07692308  0.00000000       0.071
   0.23076923  0.07692308  0.00000000       0.071
   0.30769231  0.07692308  0.00000000       0.071
   0.38461538  0.07692308  0.00000000       0.071
   0.46153846  0.07692308 -0.00000000       0.036
   0.15384615  0.15384615 -0.00000000       0.036
   0.23076923  0.15384615  0.00000000       0.071
   0.30769231  0.15384615  0.00000000       0.071
   0.38461538  0.15384615  0.00000000       0.071
   0.23076923  0.23076923  0.00000000       0.036
   0.30769231  0.23076923  0.00000000       0.071
   0.38461538  0.23076923  0.00000000       0.036
   0.30769231  0.30769231  0.00000000       0.036
 
 position of ions in fractional coordinates (direct lattice) 
   0.00000000  0.00000000  0.25707136
   0.33333300  0.66666700  0.31507604
   0.00000000  0.00000000  0.43568369
   0.33333300  0.66666700  0.49591846
   0.00000000  0.00000000  0.61639053
   0.33333300  0.66666700  0.67667432
   0.00000000  0.00000000  0.79500128
   0.66666700  0.33333300  0.37540049
   0.66666700  0.33333300  0.55615461
   0.66666700  0.33333300  0.73699691
   0.00000000  0.00000000  0.34526022
   0.00000000  0.00000000  0.52603803
   0.00000000  0.00000000  0.70681239
   0.66666700  0.33333300  0.28485685
   0.66666700  0.33333300  0.46581091
   0.66666700  0.33333300  0.64651746
   0.33333300  0.66666700  0.40555606
   0.33333300  0.66666700  0.58626427
   0.33333300  0.66666700  0.76721645
   0.00000000  0.00000000  0.02603892
   0.00000000  0.00000000  0.21561583
   0.66666700  0.33333300  0.15483331
   0.33333300  0.66666700  0.08840656
   0.00000000  0.00000000  0.83645702
   0.66666700  0.33333300  0.96367259
   0.33333300  0.66666700  0.89724243
 
 position of ions in cartesian coordinates  (Angst):
   0.00000000 -0.00000000 10.89900914
   0.86681836  1.50137599 13.35822305
   0.00000000 -0.00000000 18.47160442
   0.86681836  1.50137599 21.02536719
   0.00000000 -0.00000000 26.13300018
   0.86681836  1.50137599 28.68884146
   0.00000000 -0.00000000 33.70552881
   1.73363932 -0.00000150 15.91578809
   1.73363932 -0.00000150 23.57918859
   1.73363932 -0.00000150 31.24632768
   0.00000000 -0.00000000 14.63793635
   0.00000000 -0.00000000 22.30234143
   0.00000000 -0.00000000 29.96659981
   1.73363932 -0.00000150 12.07702548
   1.73363932 -0.00000150 19.74890292
   1.73363932 -0.00000150 27.41028631
   0.86681836  1.50137599 17.19428861
   0.86681836  1.50137599 24.85574249
   0.86681836  1.50137599 32.52754018
   0.00000000 -0.00000000  1.10396766
   0.00000000 -0.00000000  9.14142637
   1.73363932 -0.00000150  6.56444037
   0.86681836  1.50137599  3.74815740
   0.00000000 -0.00000000 35.46312036
   1.73363932 -0.00000150 40.85665623
   0.86681836  1.50137599 38.04022846
 


--------------------------------------------------------------------------------------------------------


 k-point  1 :   0.0000 0.0000 0.0000  plane waves:    9025
 k-point  2 :   0.0769 0.0000 0.0000  plane waves:    9025
 k-point  3 :   0.1538 0.0000 0.0000  plane waves:    8993
 k-point  4 :   0.2308 0.0000 0.0000  plane waves:    8966
 k-point  5 :   0.3077 0.0000 0.0000  plane waves:    8918
 k-point  6 :   0.3846 0.0000 0.0000  plane waves:    8858
 k-point  7 :   0.4615 0.0000 0.0000  plane waves:    8882
 k-point  8 :   0.0769 0.0769-0.0000  plane waves:    9003
 k-point  9 :   0.1538 0.0769 0.0000  plane waves:    8978
 k-point 10 :   0.2308 0.0769 0.0000  plane waves:    8939
 k-point 11 :   0.3077 0.0769 0.0000  plane waves:    8908
 k-point 12 :   0.3846 0.0769 0.0000  plane waves:    8875
 k-point 13 :   0.4615 0.0769-0.0000  plane waves:    8848
 k-point 14 :   0.1538 0.1538-0.0000  plane waves:    8939
 k-point 15 :   0.2308 0.1538 0.0000  plane waves:    8908
 k-point 16 :   0.3077 0.1538 0.0000  plane waves:    8892
 k-point 17 :   0.3846 0.1538 0.0000  plane waves:    8862
 k-point 18 :   0.2308 0.2308 0.0000  plane waves:    8898
 k-point 19 :   0.3077 0.2308 0.0000  plane waves:    8881
 k-point 20 :   0.3846 0.2308 0.0000  plane waves:    8882
 k-point 21 :   0.3077 0.3077 0.0000  plane waves:    8902

 maximum and minimum number of plane-waves per node :      2272     2198

 maximum number of plane-waves:      9025
 maximum index in each direction: 
   IXMAX=    5   IYMAX=    5   IZMAX=   78
   IXMIN=   -6   IYMIN=   -5   IZMIN=  -78

 NGX is ok and might be reduce to  24
 NGY is ok and might be reduce to  22
 NGZ is ok and might be reduce to 314

 parallel 3D FFT for wavefunctions:
    minimum data exchange during FFTs selected (reduces bandwidth)
 parallel 3D FFT for charge:
    minimum data exchange during FFTs selected (reduces bandwidth)


 total amount of memory used by VASP on root node   147890. kBytes
========================================================================

   base      :      30000. kBytes
   nonl-proj :      15664. kBytes
   fftplans  :      55172. kBytes
   grid      :      22118. kBytes
   one-center:         56. kBytes
   wavefun   :      24880. kBytes
 
     INWAV:  cpu time    0.00: real time    0.00
 Broyden mixing: mesh for mixing (old mesh)
   NGX = 11   NGY = 11   NGZ =157
  (NGX  = 48   NGY  = 48   NGZ  =640)
  gives a total of  18997 points

 initial charge density was supplied:
 charge density of overlapping atoms calculated
 number of electron      99.0000000 magnetization 
 keeping initial charge density in first step


--------------------------------------------------------------------------------------------------------


 Maximum index for augmentation-charges        22819 (set IRDMAX)


--------------------------------------------------------------------------------------------------------


 First call to EWALD:  gamma=   0.256
 Maximum number of real-space cells 6x 6x 1
 Maximum number of reciprocal cells 1x 1x14

 FEWALD executed in parallel
    FEWALD:  cpu time    0.00: real time    0.00


----------------------------------------- Iteration    1(   1)  ---------------------------------------


    POTLOK:  cpu time    0.11: real time    0.11
    SETDIJ:  cpu time    0.12: real time    0.12
     EDDAV:  cpu time    4.39: real time    4.42
       DOS:  cpu time    0.00: real time    0.00
    --------------------------------------------
      LOOP:  cpu time    4.62: real time    4.66

 eigenvalue-minimisations  :  2696
 total energy-change (2. order) : 0.5107487E+03  (-0.4399239E+04)
 number of electron      99.0000000 magnetization 
 augmentation part       99.0000000 magnetization 

 Free energy of the ion-electron system (eV)
  ---------------------------------------------------
  alpha Z        PSCENC =       127.47565095
  Ewald energy   TEWEN  =     13597.04854518
  -Hartree energ DENC   =    -18722.33310354
  -exchange      EXHF   =         0.00000000
  -V(xc)+E(xc)   XCENC  =      -344.17843953
  PAW double counting   =      4516.65612620    -3844.19644948
  entropy T*S    EENTRO =        -0.00646293
  eigenvalues    EBANDS =       274.60201324
  atomic energy  EATOM  =      4905.68083858
  ---------------------------------------------------
  free energy    TOTEN  =       510.74871866 eV

  energy without entropy =      510.75518159  energy(sigma->0) =      510.75195012


--------------------------------------------------------------------------------------------------------




----------------------------------------- Iteration    1(   2)  ---------------------------------------


     EDDAV:  cpu time    5.09: real time    5.09
       DOS:  cpu time    0.00: real time    0.00
    --------------------------------------------
      LOOP:  cpu time    5.09: real time    5.09

 eigenvalue-minimisations  :  3480
 total energy-change (2. order) :-0.6098715E+03  (-0.5770953E+03)
 number of electron      99.0000000 magnetization 
 augmentation part       99.0000000 magnetization 

 Free energy of the ion-electron system (eV)
  ---------------------------------------------------
  alpha Z        PSCENC =       127.47565095
  Ewald energy   TEWEN  =     13597.04854518
  -Hartree energ DENC   =    -18722.33310354
  -exchange      EXHF   =         0.00000000
  -V(xc)+E(xc)   XCENC  =      -344.17843953
  PAW double counting   =      4516.65612620    -3844.19644948
  entropy T*S    EENTRO =        -0.00242756
  eigenvalues    EBANDS =      -335.27356770
  atomic energy  EATOM  =      4905.68083858
  ---------------------------------------------------
  free energy    TOTEN  =       -99.12282690 eV

  energy without entropy =      -99.12039935  energy(sigma->0) =      -99.12161313


--------------------------------------------------------------------------------------------------------




----------------------------------------- Iteration    1(   3)  ---------------------------------------


     EDDAV:  cpu time    4.70: real time    4.70
       DOS:  cpu time    0.00: real time    0.00
    --------------------------------------------
      LOOP:  cpu time    4.70: real time    4.70

 eigenvalue-minimisations  :  3136
 total energy-change (2. order) :-0.5790098E+02  (-0.5758533E+02)
 number of electron      99.0000000 magnetization 
 augmentation part       99.0000000 magnetization 

 Free energy of the ion-electron system (eV)
  ---------------------------------------------------
  alpha Z        PSCENC =       127.47565095
  Ewald energy   TEWEN  =     13597.04854518
  -Hartree energ DENC   =    -18722.33310354
  -exchange      EXHF   =         0.00000000
  -V(xc)+E(xc)   XCENC  =      -344.17843953
  PAW double counting   =      4516.65612620    -3844.19644948
  entropy T*S    EENTRO =        -0.00258065
  eigenvalues    EBANDS =      -393.17439033
  atomic energy  EATOM  =      4905.68083858
  ---------------------------------------------------
  free energy    TOTEN  =      -157.02380263 eV

  energy without entropy =     -157.02122198  energy(sigma->0) =     -157.02251231


--------------------------------------------------------------------------------------------------------




----------------------------------------- Iteration    1(   4)  ---------------------------------------


     EDDAV:  cpu time    4.67: real time    4.67
       DOS:  cpu time    0.00: real time    0.00
    --------------------------------------------
      LOOP:  cpu time    4.67: real time    4.68

 eigenvalue-minimisations  :  3128
 total energy-change (2. order) :-0.7419988E+00  (-0.7407389E+00)
 number of electron      99.0000000 magnetization 
 augmentation part       99.0000000 magnetization 

 Free energy of the ion-electron system (eV)
  ---------------------------------------------------
  alpha Z        PSCENC =       127.47565095
  Ewald energy   TEWEN  =     13597.04854518
  -Hartree energ DENC   =    -18722.33310354
  -exchange      EXHF   =         0.00000000
  -V(xc)+E(xc)   XCENC  =      -344.17843953
  PAW double counting   =      4516.65612620    -3844.19644948
  entropy T*S    EENTRO =        -0.00273495
  eigenvalues    EBANDS =      -393.91623485
  atomic energy  EATOM  =      4905.68083858
  ---------------------------------------------------
  free energy    TOTEN  =      -157.76580145 eV

  energy without entropy =     -157.76306650  energy(sigma->0) =     -157.76443398


--------------------------------------------------------------------------------------------------------




----------------------------------------- Iteration    1(   5)  ---------------------------------------


     EDDAV:  cpu time    4.74: real time    4.75
       DOS:  cpu time    0.00: real time    0.00
    CHARGE:  cpu time    0.37: real time    0.37
    MIXING:  cpu time    0.00: real time    0.00
    --------------------------------------------
      LOOP:  cpu time    5.12: real time    5.13

 eigenvalue-minimisations  :  3200
 total energy-change (2. order) :-0.1125054E-01  (-0.1124746E-01)
 number of electron      99.0000001 magnetization 
 augmentation part        7.7730186 magnetization 

 Broyden mixing:
  rms(total) = 0.23642E+01    rms(broyden)= 0.23637E+01
  rms(prec ) = 0.24307E+01
  weight for this iteration     100.00

 Free energy of the ion-electron system (eV)
  ---------------------------------------------------
  alpha Z        PSCENC =       127.47565095
  Ewald energy   TEWEN  =     13597.04854518
  -Hartree energ DENC   =    -18722.33310354
  -exchange      EXHF   =         0.00000000
  -V(xc)+E(xc)   XCENC  =      -344.17843953
  PAW double counting   =      4516.65612620    -3844.19644948
  entropy T*S    EENTRO =        -0.00273457
  eigenvalues    EBANDS =      -393.92748577
  atomic energy  EATOM  =      4905.68083858
  ---------------------------------------------------
  free energy    TOTEN  =      -157.77705200 eV

  energy without entropy =     -157.77431742  energy(sigma->0) =     -157.77568471


--------------------------------------------------------------------------------------------------------




----------------------------------------- Iteration    1(   6)  ---------------------------------------


    POTLOK:  cpu time    0.10: real time    0.10
    SETDIJ:  cpu time    0.10: real time    0.10
     EDDAV:  cpu time    4.80: real time    4.81
       DOS:  cpu time    0.00: real time    0.00
    CHARGE:  cpu time    0.39: real time    0.39
    MIXING:  cpu time    0.01: real time    0.01
    --------------------------------------------
      LOOP:  cpu time    5.40: real time    5.41

 eigenvalue-minimisations  :  3208
 total energy-change (2. order) : 0.1710503E+02  (-0.9422335E+01)
 number of electron      99.0000001 magnetization 
 augmentation part        6.2470695 magnetization 

 Broyden mixing:
  rms(total) = 0.79202E+00    rms(broyden)= 0.79103E+00
  rms(prec ) = 0.80044E+00
  weight for this iteration     100.00

 eigenvalues of (default mixing * dielectric matrix)
  average eigenvalue GAMMA=   0.8424
  0.8424

 Free energy of the ion-electron system (eV)
  ---------------------------------------------------
  alpha Z        PSCENC =       127.47565095
  Ewald energy   TEWEN  =     13597.04854518
  -Hartree energ DENC   =    -18928.19144172
  -exchange      EXHF   =         0.00000000
  -V(xc)+E(xc)   XCENC  =      -330.56017164
  PAW double counting   =      5363.37723286    -4694.42190392
  entropy T*S    EENTRO =        -0.00407717
  eigenvalues    EBANDS =      -181.07669987
  atomic energy  EATOM  =      4905.68083858
  ---------------------------------------------------
  free energy    TOTEN  =      -140.67202675 eV

  energy without entropy =     -140.66794958  energy(sigma->0) =     -140.66998816


--------------------------------------------------------------------------------------------------------




----------------------------------------- Iteration    1(   7)  ---------------------------------------


    POTLOK:  cpu time    0.11: real time    0.11
    SETDIJ:  cpu time    0.11: real time    0.11
     EDDAV:  cpu time    4.64: real time    4.65
       DOS:  cpu time    0.00: real time    0.00
    CHARGE:  cpu time    0.37: real time    0.37
    MIXING:  cpu time    0.01: real time    0.01
    --------------------------------------------
      LOOP:  cpu time    5.24: real time    5.25

 eigenvalue-minimisations  :  3024
 total energy-change (2. order) :-0.3771464E-01  (-0.3997337E+00)
 number of electron      99.0000002 magnetization 
 augmentation part        6.2607048 magnetization 

 Broyden mixing:
  rms(total) = 0.49970E+00    rms(broyden)= 0.49968E+00
  rms(prec ) = 0.50976E+00
  weight for this iteration     100.00

 eigenvalues of (default mixing * dielectric matrix)
  average eigenvalue GAMMA=   1.4320
  1.0347  1.8294

 Free energy of the ion-electron system (eV)
  ---------------------------------------------------
  alpha Z        PSCENC =       127.47565095
  Ewald energy   TEWEN  =     13597.04854518
  -Hartree energ DENC   =    -18929.79738012
  -exchange      EXHF   =         0.00000000
  -V(xc)+E(xc)   XCENC  =      -330.25107146
  PAW double counting   =      5670.34657771    -5000.90048631
  entropy T*S    EENTRO =        -0.00424903
  eigenvalues    EBANDS =      -180.30816689
  atomic energy  EATOM  =      4905.68083858
  ---------------------------------------------------
  free energy    TOTEN  =      -140.70974139 eV

  energy without entropy =     -140.70549236  energy(sigma->0) =     -140.70761688


--------------------------------------------------------------------------------------------------------




----------------------------------------- Iteration    1(   8)  ---------------------------------------


    POTLOK:  cpu time    0.10: real time    0.10
    SETDIJ:  cpu time    0.10: real time    0.10
     EDDAV:  cpu time    4.92: real time    4.93
       DOS:  cpu time    0.00: real time    0.00
    CHARGE:  cpu time    0.37: real time    0.37
    MIXING:  cpu time    0.00: real time    0.00
    --------------------------------------------
      LOOP:  cpu time    5.50: real time    5.51

 eigenvalue-minimisations  :  3088
 total energy-change (2. order) : 0.1568063E+00  (-0.9216326E-01)
 number of electron      99.0000001 magnetization 
 augmentation part        6.3329381 magnetization 

 Broyden mixing:
  rms(total) = 0.14114E+00    rms(broyden)= 0.14109E+00
  rms(prec ) = 0.15275E+00
  weight for this iteration     100.00

 eigenvalues of (default mixing * dielectric matrix)
  average eigenvalue GAMMA=   1.3602
  2.3926  0.9119  0.7760

 Free energy of the ion-electron system (eV)
  ---------------------------------------------------
  alpha Z        PSCENC =       127.47565095
  Ewald energy   TEWEN  =     13597.04854518
  -Hartree energ DENC   =    -18937.04400434
  -exchange      EXHF   =         0.00000000
  -V(xc)+E(xc)   XCENC  =      -329.48232808
  PAW double counting   =      6063.33308396    -5393.50772747
  entropy T*S    EENTRO =        -0.00358657
  eigenvalues    EBANDS =      -174.05340731
  atomic energy  EATOM  =      4905.68083858
  ---------------------------------------------------
  free energy    TOTEN  =      -140.55293511 eV

  energy without entropy =     -140.54934854  energy(sigma->0) =     -140.55114183


--------------------------------------------------------------------------------------------------------




----------------------------------------- Iteration    1(   9)  ---------------------------------------


    POTLOK:  cpu time    0.10: real time    0.10
    SETDIJ:  cpu time    0.10: real time    0.10
     EDDAV:  cpu time    4.62: real time    4.62
       DOS:  cpu time    0.00: real time    0.00
    CHARGE:  cpu time    0.37: real time    0.37
    MIXING:  cpu time    0.01: real time    0.01
    --------------------------------------------
      LOOP:  cpu time    5.20: real time    5.20

 eigenvalue-minimisations  :  3048
 total energy-change (2. order) : 0.6068271E-01  (-0.2252533E-01)
 number of electron      99.0000001 magnetization 
 augmentation part        6.3039597 magnetization 

 Broyden mixing:
  rms(total) = 0.67826E-01    rms(broyden)= 0.67820E-01
  rms(prec ) = 0.79323E-01
  weight for this iteration     100.00

 eigenvalues of (default mixing * dielectric matrix)
  average eigenvalue GAMMA=   1.3143
  2.4150  0.9206  0.9206  1.0009

 Free energy of the ion-electron system (eV)
  ---------------------------------------------------
  alpha Z        PSCENC =       127.47565095
  Ewald energy   TEWEN  =     13597.04854518
  -Hartree energ DENC   =    -18946.55021563
  -exchange      EXHF   =         0.00000000
  -V(xc)+E(xc)   XCENC  =      -328.76144643
  PAW double counting   =      6187.96112934    -5518.14115062
  entropy T*S    EENTRO =        -0.00378559
  eigenvalues    EBANDS =      -165.20181818
  atomic energy  EATOM  =      4905.68083858
  ---------------------------------------------------
  free energy    TOTEN  =      -140.49225241 eV

  energy without entropy =     -140.48846681  energy(sigma->0) =     -140.49035961


--------------------------------------------------------------------------------------------------------




----------------------------------------- Iteration    1(  10)  ---------------------------------------


    POTLOK:  cpu time    0.10: real time    0.10
    SETDIJ:  cpu time    0.10: real time    0.10
     EDDAV:  cpu time    4.66: real time    4.66
       DOS:  cpu time    0.00: real time    0.00
    CHARGE:  cpu time    0.37: real time    0.37
    MIXING:  cpu time    0.00: real time    0.00
    --------------------------------------------
      LOOP:  cpu time    5.24: real time    5.25

 eigenvalue-minimisations  :  3048
 total energy-change (2. order) : 0.7425500E-02  (-0.6184705E-02)
 number of electron      99.0000002 magnetization 
 augmentation part        6.2841214 magnetization 

 Broyden mixing:
  rms(total) = 0.34010E-01    rms(broyden)= 0.33994E-01
  rms(prec ) = 0.46796E-01
  weight for this iteration     100.00

 eigenvalues of (default mixing * dielectric matrix)
  average eigenvalue GAMMA=   1.3287
  2.4923  1.6933  0.9486  0.7547  0.7547

 Free energy of the ion-electron system (eV)
  ---------------------------------------------------
  alpha Z        PSCENC =       127.47565095
  Ewald energy   TEWEN  =     13597.04854518
  -Hartree energ DENC   =    -18949.20670322
  -exchange      EXHF   =         0.00000000
  -V(xc)+E(xc)   XCENC  =      -328.63758306
  PAW double counting   =      6182.39190351    -5512.59566499
  entropy T*S    EENTRO =        -0.00365185
  eigenvalues    EBANDS =      -162.63816200
  atomic energy  EATOM  =      4905.68083858
  ---------------------------------------------------
  free energy    TOTEN  =      -140.48482690 eV

  energy without entropy =     -140.48117506  energy(sigma->0) =     -140.48300098


--------------------------------------------------------------------------------------------------------




----------------------------------------- Iteration    1(  11)  ---------------------------------------


    POTLOK:  cpu time    0.11: real time    0.11
    SETDIJ:  cpu time    0.11: real time    0.11
     EDDAV:  cpu time    4.50: real time    4.50
       DOS:  cpu time    0.00: real time    0.00
    CHARGE:  cpu time    0.37: real time    0.37
    MIXING:  cpu time    0.00: real time    0.00
    --------------------------------------------
      LOOP:  cpu time    5.09: real time    5.10

 eigenvalue-minimisations  :  3104
 total energy-change (2. order) : 0.1026131E-01  (-0.1979024E-02)
 number of electron      99.0000002 magnetization 
 augmentation part        6.2783218 magnetization 

 Broyden mixing:
  rms(total) = 0.21432E-01    rms(broyden)= 0.21423E-01
  rms(prec ) = 0.39325E-01
  weight for this iteration     100.00

 eigenvalues of (default mixing * dielectric matrix)
  average eigenvalue GAMMA=   1.2861
  2.5602  1.9984  0.9080  0.8260  0.7119  0.7119

 Free energy of the ion-electron system (eV)
  ---------------------------------------------------
  alpha Z        PSCENC =       127.47565095
  Ewald energy   TEWEN  =     13597.04854518
  -Hartree energ DENC   =    -18952.76009916
  -exchange      EXHF   =         0.00000000
  -V(xc)+E(xc)   XCENC  =      -328.52019885
  PAW double counting   =      6147.60414377    -5477.82705140
  entropy T*S    EENTRO =        -0.00374287
  eigenvalues    EBANDS =      -159.17265179
  atomic energy  EATOM  =      4905.68083858
  ---------------------------------------------------
  free energy    TOTEN  =      -140.47456560 eV

  energy without entropy =     -140.47082273  energy(sigma->0) =     -140.47269416


--------------------------------------------------------------------------------------------------------




----------------------------------------- Iteration    1(  12)  ---------------------------------------


    POTLOK:  cpu time    0.10: real time    0.10
    SETDIJ:  cpu time    0.10: real time    0.10
     EDDAV:  cpu time    5.05: real time    5.05
       DOS:  cpu time    0.00: real time    0.00
    CHARGE:  cpu time    0.36: real time    0.36
    MIXING:  cpu time    0.01: real time    0.01
    --------------------------------------------
      LOOP:  cpu time    5.63: real time    5.63

 eigenvalue-minimisations  :  3528
 total energy-change (2. order) : 0.5669481E-02  (-0.5658390E-03)
 number of electron      99.0000002 magnetization 
 augmentation part        6.2756167 magnetization 

 Broyden mixing:
  rms(total) = 0.17756E-01    rms(broyden)= 0.17755E-01
  rms(prec ) = 0.34068E-01
  weight for this iteration     100.00

 eigenvalues of (default mixing * dielectric matrix)
  average eigenvalue GAMMA=   1.3636
  2.5471  2.5471  1.0537  1.0537  0.8628  0.8628  0.6182

 Free energy of the ion-electron system (eV)
  ---------------------------------------------------
  alpha Z        PSCENC =       127.47565095
  Ewald energy   TEWEN  =     13597.04854518
  -Hartree energ DENC   =    -18954.27178247
  -exchange      EXHF   =         0.00000000
  -V(xc)+E(xc)   XCENC  =      -328.49920177
  PAW double counting   =      6137.31710031    -5467.54393385
  entropy T*S    EENTRO =        -0.00372256
  eigenvalues    EBANDS =      -157.67239048
  atomic energy  EATOM  =      4905.68083858
  ---------------------------------------------------
  free energy    TOTEN  =      -140.46889611 eV

  energy without entropy =     -140.46517356  energy(sigma->0) =     -140.46703484


--------------------------------------------------------------------------------------------------------




----------------------------------------- Iteration    1(  13)  ---------------------------------------


    POTLOK:  cpu time    0.10: real time    0.10
    SETDIJ:  cpu time    0.10: real time    0.10
     EDDAV:  cpu time    5.76: real time    5.76
       DOS:  cpu time    0.00: real time    0.00
    CHARGE:  cpu time    0.37: real time    0.37
    MIXING:  cpu time    0.01: real time    0.01
    --------------------------------------------
      LOOP:  cpu time    6.34: real time    6.35

 eigenvalue-minimisations  :  4024
 total energy-change (2. order) : 0.1143188E-01  (-0.1558265E-02)
 number of electron      99.0000002 magnetization 
 augmentation part        6.2806312 magnetization 

 Broyden mixing:
  rms(total) = 0.12770E-01    rms(broyden)= 0.12763E-01
  rms(prec ) = 0.27191E-01
  weight for this iteration     100.00

 eigenvalues of (default mixing * dielectric matrix)
  average eigenvalue GAMMA=   1.3149
  2.8070  2.5014  0.8035  0.8035  1.0683  0.9427  0.9427  0.6502

 Free energy of the ion-electron system (eV)
  ---------------------------------------------------
  alpha Z        PSCENC =       127.47565095
  Ewald energy   TEWEN  =     13597.04854518
  -Hartree energ DENC   =    -18956.78185231
  -exchange      EXHF   =         0.00000000
  -V(xc)+E(xc)   XCENC  =      -328.55814900
  PAW double counting   =      6116.33241584    -5446.54825763
  entropy T*S    EENTRO =        -0.00368926
  eigenvalues    EBANDS =      -155.10296658
  atomic energy  EATOM  =      4905.68083858
  ---------------------------------------------------
  free energy    TOTEN  =      -140.45746423 eV

  energy without entropy =     -140.45377497  energy(sigma->0) =     -140.45561960


--------------------------------------------------------------------------------------------------------




----------------------------------------- Iteration    1(  14)  ---------------------------------------


    POTLOK:  cpu time    0.11: real time    0.11
    SETDIJ:  cpu time    0.11: real time    0.11
     EDDAV:  cpu time    4.76: real time    4.76
       DOS:  cpu time    0.00: real time    0.00
    CHARGE:  cpu time    0.37: real time    0.37
    MIXING:  cpu time    0.01: real time    0.01
    --------------------------------------------
      LOOP:  cpu time    5.35: real time    5.36

 eigenvalue-minimisations  :  3088
 total energy-change (2. order) : 0.3122613E-02  (-0.8731947E-03)
 number of electron      99.0000002 magnetization 
 augmentation part        6.2818811 magnetization 

 Broyden mixing:
  rms(total) = 0.15983E-01    rms(broyden)= 0.15981E-01
  rms(prec ) = 0.27423E-01
  weight for this iteration     100.00

 eigenvalues of (default mixing * dielectric matrix)
  average eigenvalue GAMMA=   1.3043
  3.0709  2.5425  1.0975  1.0975  0.9411  0.8378  0.8378  0.6568  0.6568

 Free energy of the ion-electron system (eV)
  ---------------------------------------------------
  alpha Z        PSCENC =       127.47565095
  Ewald energy   TEWEN  =     13597.04854518
  -Hartree energ DENC   =    -18958.12877535
  -exchange      EXHF   =         0.00000000
  -V(xc)+E(xc)   XCENC  =      -328.56076817
  PAW double counting   =      6114.05142467    -5444.26633707
  entropy T*S    EENTRO =        -0.00368309
  eigenvalues    EBANDS =      -153.75123733
  atomic energy  EATOM  =      4905.68083858
  ---------------------------------------------------
  free energy    TOTEN  =      -140.45434162 eV

  energy without entropy =     -140.45065853  energy(sigma->0) =     -140.45250008


--------------------------------------------------------------------------------------------------------




----------------------------------------- Iteration    1(  15)  ---------------------------------------


    POTLOK:  cpu time    0.11: real time    0.11
    SETDIJ:  cpu time    0.10: real time    0.11
     EDDAV:  cpu time    5.43: real time    5.44
       DOS:  cpu time    0.00: real time    0.00
    CHARGE:  cpu time    0.37: real time    0.37
    MIXING:  cpu time    0.01: real time    0.01
    --------------------------------------------
      LOOP:  cpu time    6.02: real time    6.03

 eigenvalue-minimisations  :  3792
 total energy-change (2. order) : 0.8469999E-02  (-0.1497074E-02)
 number of electron      99.0000002 magnetization 
 augmentation part        6.2762811 magnetization 

 Broyden mixing:
  rms(total) = 0.21986E-01    rms(broyden)= 0.21981E-01
  rms(prec ) = 0.27283E-01
  weight for this iteration     100.00

 eigenvalues of (default mixing * dielectric matrix)
  average eigenvalue GAMMA=   1.5298
  4.3650  2.7417  2.2458  0.9818  0.9818  0.9073  0.9073  0.7583  0.7583  0.6503

 Free energy of the ion-electron system (eV)
  ---------------------------------------------------
  alpha Z        PSCENC =       127.47565095
  Ewald energy   TEWEN  =     13597.04854518
  -Hartree energ DENC   =    -18962.65825556
  -exchange      EXHF   =         0.00000000
  -V(xc)+E(xc)   XCENC  =      -328.53824651
  PAW double counting   =      6102.24723368    -5432.47019733
  entropy T*S    EENTRO =        -0.00365200
  eigenvalues    EBANDS =      -149.22778862
  atomic energy  EATOM  =      4905.68083858
  ---------------------------------------------------
  free energy    TOTEN  =      -140.44587162 eV

  energy without entropy =     -140.44221962  energy(sigma->0) =     -140.44404562


--------------------------------------------------------------------------------------------------------




----------------------------------------- Iteration    1(  16)  ---------------------------------------


    POTLOK:  cpu time    0.10: real time    0.11
    SETDIJ:  cpu time    0.11: real time    0.11
     EDDAV:  cpu time    5.50: real time    5.50
       DOS:  cpu time    0.00: real time    0.00
    CHARGE:  cpu time    0.37: real time    0.37
    MIXING:  cpu time    0.01: real time    0.01
    --------------------------------------------
      LOOP:  cpu time    6.09: real time    6.10

 eigenvalue-minimisations  :  3840
 total energy-change (2. order) : 0.8217649E-02  (-0.1157944E-02)
 number of electron      99.0000002 magnetization 
 augmentation part        6.2751837 magnetization 

 Broyden mixing:
  rms(total) = 0.18883E-01    rms(broyden)= 0.18881E-01
  rms(prec ) = 0.21525E-01
  weight for this iteration     100.00

 eigenvalues of (default mixing * dielectric matrix)
  average eigenvalue GAMMA=   1.7147
  5.9664  2.8935  2.4582  1.1649  1.1649  1.1437  1.0198  0.7967  0.7967  0.7464
  0.7102

 Free energy of the ion-electron system (eV)
  ---------------------------------------------------
  alpha Z        PSCENC =       127.47565095
  Ewald energy   TEWEN  =     13597.04854518
  -Hartree energ DENC   =    -18967.64810428
  -exchange      EXHF   =         0.00000000
  -V(xc)+E(xc)   XCENC  =      -328.59477681
  PAW double counting   =      6114.81627306    -5445.02716979
  entropy T*S    EENTRO =        -0.00359673
  eigenvalues    EBANDS =      -144.18531413
  atomic energy  EATOM  =      4905.68083858
  ---------------------------------------------------
  free energy    TOTEN  =      -140.43765397 eV

  energy without entropy =     -140.43405725  energy(sigma->0) =     -140.43585561


--------------------------------------------------------------------------------------------------------




----------------------------------------- Iteration    1(  17)  ---------------------------------------


    POTLOK:  cpu time    0.10: real time    0.10
    SETDIJ:  cpu time    0.10: real time    0.10
     EDDAV:  cpu time    4.98: real time    4.99
       DOS:  cpu time    0.00: real time    0.00
    CHARGE:  cpu time    0.37: real time    0.37
    MIXING:  cpu time    0.01: real time    0.01
    --------------------------------------------
      LOOP:  cpu time    5.56: real time    5.57

 eigenvalue-minimisations  :  3320
 total energy-change (2. order) : 0.2600825E-02  (-0.2027557E-02)
 number of electron      99.0000002 magnetization 
 augmentation part        6.2763097 magnetization 

 Broyden mixing:
  rms(total) = 0.92750E-02    rms(broyden)= 0.92666E-02
  rms(prec ) = 0.11805E-01
  weight for this iteration     100.00

 eigenvalues of (default mixing * dielectric matrix)
  average eigenvalue GAMMA=   1.5659
  5.7136  2.8727  2.4452  1.1648  1.1648  1.0564  1.0564  0.7955  0.7955  0.7546
  0.7051  0.2666

 Free energy of the ion-electron system (eV)
  ---------------------------------------------------
  alpha Z        PSCENC =       127.47565095
  Ewald energy   TEWEN  =     13597.04854518
  -Hartree energ DENC   =    -18970.03611420
  -exchange      EXHF   =         0.00000000
  -V(xc)+E(xc)   XCENC  =      -328.61825323
  PAW double counting   =      6125.29714168    -5455.50222937
  entropy T*S    EENTRO =        -0.00359039
  eigenvalues    EBANDS =      -141.77704235
  atomic energy  EATOM  =      4905.68083858
  ---------------------------------------------------
  free energy    TOTEN  =      -140.43505315 eV

  energy without entropy =     -140.43146276  energy(sigma->0) =     -140.43325795


--------------------------------------------------------------------------------------------------------




----------------------------------------- Iteration    1(  18)  ---------------------------------------


    POTLOK:  cpu time    0.10: real time    0.10
    SETDIJ:  cpu time    0.10: real time    0.10
     EDDAV:  cpu time    4.94: real time    4.95
       DOS:  cpu time    0.00: real time    0.00
    CHARGE:  cpu time    0.37: real time    0.37
    MIXING:  cpu time    0.01: real time    0.01
    --------------------------------------------
      LOOP:  cpu time    5.52: real time    5.53

 eigenvalue-minimisations  :  3344
 total energy-change (2. order) : 0.1731163E-02  (-0.6937100E-03)
 number of electron      99.0000002 magnetization 
 augmentation part        6.2746977 magnetization 

 Broyden mixing:
  rms(total) = 0.97589E-02    rms(broyden)= 0.97566E-02
  rms(prec ) = 0.11011E-01
  weight for this iteration     100.00

 eigenvalues of (default mixing * dielectric matrix)
  average eigenvalue GAMMA=   1.6878
  6.4923  3.0079  2.4103  1.4437  1.4437  0.9680  0.9680  1.1681  0.9713  0.7990
  0.7990  0.6968  0.7729

 Free energy of the ion-electron system (eV)
  ---------------------------------------------------
  alpha Z        PSCENC =       127.47565095
  Ewald energy   TEWEN  =     13597.04854518
  -Hartree energ DENC   =    -18971.45595936
  -exchange      EXHF   =         0.00000000
  -V(xc)+E(xc)   XCENC  =      -328.59289796
  PAW double counting   =      6130.01010621    -5460.21868639
  entropy T*S    EENTRO =        -0.00359617
  eigenvalues    EBANDS =      -140.37732302
  atomic energy  EATOM  =      4905.68083858
  ---------------------------------------------------
  free energy    TOTEN  =      -140.43332198 eV

  energy without entropy =     -140.42972582  energy(sigma->0) =     -140.43152390


--------------------------------------------------------------------------------------------------------




----------------------------------------- Iteration    1(  19)  ---------------------------------------


    POTLOK:  cpu time    0.11: real time    0.11
    SETDIJ:  cpu time    0.10: real time    0.10
     EDDAV:  cpu time    5.49: real time    5.50
       DOS:  cpu time    0.00: real time    0.00
    CHARGE:  cpu time    0.37: real time    0.37
    MIXING:  cpu time    0.01: real time    0.01
    --------------------------------------------
      LOOP:  cpu time    6.08: real time    6.09

 eigenvalue-minimisations  :  3840
 total energy-change (2. order) : 0.1062518E-02  (-0.3853559E-03)
 number of electron      99.0000002 magnetization 
 augmentation part        6.2746214 magnetization 

 Broyden mixing:
  rms(total) = 0.56722E-02    rms(broyden)= 0.56699E-02
  rms(prec ) = 0.62616E-02
  weight for this iteration     100.00

 eigenvalues of (default mixing * dielectric matrix)
  average eigenvalue GAMMA=   1.8132
  7.0165  3.7452  2.5809  2.5809  1.6738  1.0650  1.0650  1.0180  0.9583  0.7854
  0.7854  0.8158  0.6755  0.6191

 Free energy of the ion-electron system (eV)
  ---------------------------------------------------
  alpha Z        PSCENC =       127.47565095
  Ewald energy   TEWEN  =     13597.04854518
  -Hartree energ DENC   =    -18972.61246938
  -exchange      EXHF   =         0.00000000
  -V(xc)+E(xc)   XCENC  =      -328.59720398
  PAW double counting   =      6127.73153760    -5457.93928702
  entropy T*S    EENTRO =        -0.00358894
  eigenvalues    EBANDS =      -139.21628246
  atomic energy  EATOM  =      4905.68083858
  ---------------------------------------------------
  free energy    TOTEN  =      -140.43225947 eV

  energy without entropy =     -140.42867053  energy(sigma->0) =     -140.43046500


--------------------------------------------------------------------------------------------------------




----------------------------------------- Iteration    1(  20)  ---------------------------------------


    POTLOK:  cpu time    0.10: real time    0.10
    SETDIJ:  cpu time    0.10: real time    0.10
     EDDAV:  cpu time    4.72: real time    4.72
       DOS:  cpu time    0.00: real time    0.00
    CHARGE:  cpu time    0.37: real time    0.37
    MIXING:  cpu time    0.01: real time    0.01
    --------------------------------------------
      LOOP:  cpu time    5.30: real time    5.30

 eigenvalue-minimisations  :  3168
 total energy-change (2. order) : 0.1977323E-03  (-0.2983435E-03)
 number of electron      99.0000002 magnetization 
 augmentation part        6.2752425 magnetization 

 Broyden mixing:
  rms(total) = 0.27644E-02    rms(broyden)= 0.27615E-02
  rms(prec ) = 0.29316E-02
  weight for this iteration     100.00

 eigenvalues of (default mixing * dielectric matrix)
  average eigenvalue GAMMA=   2.1775
 10.5908  5.9447  2.7192  2.3840  2.0773  1.0560  1.0560  1.0207  1.0207  0.8727
  0.8727  0.8089  0.8089  0.7147  0.7147

 Free energy of the ion-electron system (eV)
  ---------------------------------------------------
  alpha Z        PSCENC =       127.47565095
  Ewald energy   TEWEN  =     13597.04854518
  -Hartree energ DENC   =    -18973.09276504
  -exchange      EXHF   =         0.00000000
  -V(xc)+E(xc)   XCENC  =      -328.59836280
  PAW double counting   =      6123.62638606    -5453.83411091
  entropy T*S    EENTRO =        -0.00358673
  eigenvalues    EBANDS =      -138.73465702
  atomic energy  EATOM  =      4905.68083858
  ---------------------------------------------------
  free energy    TOTEN  =      -140.43206173 eV

  energy without entropy =     -140.42847501  energy(sigma->0) =     -140.43026837


--------------------------------------------------------------------------------------------------------




----------------------------------------- Iteration    1(  21)  ---------------------------------------


    POTLOK:  cpu time    0.10: real time    0.10
    SETDIJ:  cpu time    0.11: real time    0.11
     EDDAV:  cpu time    4.57: real time    4.57
       DOS:  cpu time    0.00: real time    0.00
    CHARGE:  cpu time    0.37: real time    0.37
    MIXING:  cpu time    0.01: real time    0.01
    --------------------------------------------
      LOOP:  cpu time    5.15: real time    5.16

 eigenvalue-minimisations  :  2944
 total energy-change (2. order) :-0.9710373E-04  (-0.1611714E-03)
 number of electron      99.0000002 magnetization 
 augmentation part        6.2742157 magnetization 

 Broyden mixing:
  rms(total) = 0.28902E-02    rms(broyden)= 0.28882E-02
  rms(prec ) = 0.29447E-02
  weight for this iteration     100.00

 eigenvalues of (default mixing * dielectric matrix)
  average eigenvalue GAMMA=   2.3076
 13.4857  5.8015  3.1086  2.5503  2.3642  1.0502  1.0502  0.9869  0.9869  0.7970
  0.7970  0.9100  0.9100  0.8160  0.6886  0.6185

 Free energy of the ion-electron system (eV)
  ---------------------------------------------------
  alpha Z        PSCENC =       127.47565095
  Ewald energy   TEWEN  =     13597.04854518
  -Hartree energ DENC   =    -18973.38566287
  -exchange      EXHF   =         0.00000000
  -V(xc)+E(xc)   XCENC  =      -328.58975338
  PAW double counting   =      6122.09270603    -5452.30400433
  entropy T*S    EENTRO =        -0.00358976
  eigenvalues    EBANDS =      -138.44688924
  atomic energy  EATOM  =      4905.68083858
  ---------------------------------------------------
  free energy    TOTEN  =      -140.43215884 eV

  energy without entropy =     -140.42856908  energy(sigma->0) =     -140.43036396


--------------------------------------------------------------------------------------------------------




----------------------------------------- Iteration    1(  22)  ---------------------------------------


    POTLOK:  cpu time    0.10: real time    0.10
    SETDIJ:  cpu time    0.10: real time    0.10
     EDDAV:  cpu time    4.33: real time    4.34
       DOS:  cpu time    0.00: real time    0.00
    CHARGE:  cpu time    0.37: real time    0.37
    MIXING:  cpu time    0.01: real time    0.01
    --------------------------------------------
      LOOP:  cpu time    4.92: real time    4.92

 eigenvalue-minimisations  :  2816
 total energy-change (2. order) : 0.2435286E-05  (-0.2093368E-04)
 number of electron      99.0000002 magnetization 
 augmentation part        6.2746763 magnetization 

 Broyden mixing:
  rms(total) = 0.13678E-02    rms(broyden)= 0.13676E-02
  rms(prec ) = 0.14126E-02
  weight for this iteration     100.00

 eigenvalues of (default mixing * dielectric matrix)
  average eigenvalue GAMMA=   2.7196
 21.2372  5.9914  3.1349  2.6451  2.3646  1.0461  1.0461  1.0220  1.0220  1.0211
  1.0211  0.7978  0.7978  0.8342  0.8342  0.7089  0.7089

 Free energy of the ion-electron system (eV)
  ---------------------------------------------------
  alpha Z        PSCENC =       127.47565095
  Ewald energy   TEWEN  =     13597.04854518
  -Hartree energ DENC   =    -18973.38794096
  -exchange      EXHF   =         0.00000000
  -V(xc)+E(xc)   XCENC  =      -328.59247447
  PAW double counting   =      6119.50618603    -5449.71744329
  entropy T*S    EENTRO =        -0.00358912
  eigenvalues    EBANDS =      -138.44192930
  atomic energy  EATOM  =      4905.68083858
  ---------------------------------------------------
  free energy    TOTEN  =      -140.43215640 eV

  energy without entropy =     -140.42856729  energy(sigma->0) =     -140.43036185


--------------------------------------------------------------------------------------------------------




----------------------------------------- Iteration    1(  23)  ---------------------------------------


    POTLOK:  cpu time    0.10: real time    0.10
    SETDIJ:  cpu time    0.10: real time    0.10
     EDDAV:  cpu time    3.92: real time    3.92
       DOS:  cpu time    0.00: real time    0.00
    --------------------------------------------
      LOOP:  cpu time    4.13: real time    4.13

 eigenvalue-minimisations  :  2408
 total energy-change (2. order) : 0.6246364E-05  (-0.2890826E-05)
 number of electron      99.0000002 magnetization 
 augmentation part        6.2746763 magnetization 

 Free energy of the ion-electron system (eV)
  ---------------------------------------------------
  alpha Z        PSCENC =       127.47565095
  Ewald energy   TEWEN  =     13597.04854518
  -Hartree energ DENC   =    -18973.48110427
  -exchange      EXHF   =         0.00000000
  -V(xc)+E(xc)   XCENC  =      -328.59272727
  PAW double counting   =      6118.31946501    -5448.53072649
  entropy T*S    EENTRO =        -0.00358933
  eigenvalues    EBANDS =      -138.34850251
  atomic energy  EATOM  =      4905.68083858
  ---------------------------------------------------
  free energy    TOTEN  =      -140.43215016 eV

  energy without entropy =     -140.42856082  energy(sigma->0) =     -140.43035549


--------------------------------------------------------------------------------------------------------




 average (electrostatic) potential at core
  the test charge radii are     0.7215  1.0714  1.0406
  (the norm of the test charge is              1.0000)
       1 -69.8430       2 -69.1578       3 -69.1893       4 -69.1951       5 -69.1909
       6 -69.1788       7 -69.8429       8 -69.1779       9 -69.1959      10 -69.1577
      11 -34.8873      12 -34.9048      13 -34.8875      14 -34.8763      15 -34.9017
      16 -34.8986      17 -34.8972      18 -34.9031      19 -34.8762      20 -76.2327
      21 -75.8110      22 -76.3398      23 -76.3084      24 -75.8111      25 -76.3086
      26 -76.3399
 
 
 
 E-fermi :   4.6259     XC(G=0): -10.1725     alpha+bet :-12.1004


 k-point     1 :       0.0000    0.0000    0.0000
  band No.  band energies     occupation 
      1     -13.7392      2.00000
      2     -13.7391      2.00000
      3     -13.3468      2.00000
      4     -13.2422      2.00000
      5     -13.0998      2.00000
      6     -12.9315      2.00000
      7     -12.7541      2.00000
      8     -12.5878      2.00000
      9     -12.4515      2.00000
     10     -12.3714      2.00000
     11      -4.8487      2.00000
     12      -4.5496      2.00000
     13      -4.2202      2.00000
     14      -3.5142      2.00000
     15      -2.5963      2.00000
     16      -1.9584      2.00000
     17      -1.2677      2.00000
     18      -0.8084      2.00000
     19      -0.5990      2.00000
     20      -0.1118      2.00000
     21      -0.0405      2.00000
     22       0.6131      2.00000
     23       0.8305      2.00000
     24       1.5840      2.00000
     25       1.8865      2.00000
     26       2.5063      2.00000
     27       2.7389      2.00000
     28       2.9421      2.00000
     29       2.9421      2.00000
     30       2.9421      2.00000
     31       2.9421      2.00000
     32       3.1645      2.00000
     33       3.1645      2.00000
     34       3.2218      2.00000
     35       3.2249      2.00000
     36       3.2249      2.00000
     37       3.3013      2.00000
     38       3.3013      2.00000
     39       3.3888      2.00000
     40       3.3888      2.00000
     41       3.4783      2.00000
     42       3.4783      2.00000
     43       3.5595      2.00000
     44       3.5595      2.00000
     45       3.6247      2.00000
     46       3.6247      2.00000
     47       3.6553      2.00000
     48       3.6553      2.00000
     49       3.9475      2.00000
     50       5.4803      0.00000
     51       7.2086      0.00000
     52       7.8618      0.00000
     53       8.2705      0.00000
     54       8.9757      0.00000
     55       9.1563      0.00000
     56       9.8355      0.00000
     57      10.1918      0.00000
     58      10.7983      0.00000
     59      10.9677      0.00000
     60      11.2629      0.00000
     61      11.2676      0.00000
     62      12.2635      0.00000
     63      13.4482      0.00000
     64      14.6166      0.00000

 k-point     2 :       0.0769    0.0000    0.0000
  band No.  band energies     occupation 
      1     -13.6983      2.00000
      2     -13.6983      2.00000
      3     -13.2959      2.00000
      4     -13.1939      2.00000
      5     -13.0552      2.00000
      6     -12.8912      2.00000
      7     -12.7184      2.00000
      8     -12.5565      2.00000
      9     -12.4240      2.00000
[...]
 k-point    19 :       0.3077    0.2308    0.0000
  band No.  band energies     occupation 
      1     -13.0458      2.00000
      2     -13.0453      2.00000
      3     -12.2629      2.00000
      4     -12.2351      2.00000
      5     -12.2032      2.00000
      6     -12.1631      2.00000
      7     -12.1221      2.00000
      8     -12.0867      2.00000
      9     -12.0559      2.00000
     10     -12.0428      2.00000
     11      -0.5675      2.00000
     12      -0.5661      2.00000
     13      -0.2635      2.00000
     14      -0.2573      2.00000
     15      -0.1489      2.00000
     16      -0.0031      2.00000
     17       0.0489      2.00000
     18       0.1090      2.00000
     19       0.1320      2.00000
     20       0.1664      2.00000
     21       0.3127      2.00000
     22       0.4801      2.00000
     23       0.6212      2.00000
     24       0.6399      2.00000
     25       0.8775      2.00000
     26       1.0119      2.00000
     27       1.1840      2.00000
     28       1.2158      2.00000
     29       1.2301      2.00000
     30       1.3845      2.00000
     31       1.4569      2.00000
     32       1.5389      2.00000
     33       1.5940      2.00000
     34       1.7137      2.00000
     35       1.7924      2.00000
     36       1.8969      2.00000
     37       1.9724      2.00000
     38       2.1360      2.00000
     39       2.2769      2.00000
     40       2.3550      2.00000
     41       2.4385      2.00000
     42       2.5265      2.00000
     43       2.6213      2.00000
     44       2.7157      2.00000
     45       2.7227      2.00000
     46       3.3120      2.00000
     47       3.5689      2.00000
     48       3.6481      2.00000
     49       3.9375      2.00000
     50       4.5010      2.00000
     51       4.6865      1.59231
     52       4.8914      0.00000
     53       5.1548      0.00000
     54       5.4407      0.00000
     55       5.7495      0.00000
     56       6.1939      0.00000
     57       6.5154      0.00000
     58       6.9262      0.00000
     59       7.2876      0.00000
     60       7.5412      0.00000
     61       8.1057      0.00000
     62       8.3639      0.00000
     63       8.9616      0.00000
     64       9.1546      0.00000

 k-point    20 :       0.3846    0.2308    0.0000
  band No.  band energies     occupation 
      1     -13.0106      2.00000
      2     -13.0102      2.00000
      3     -12.1742      2.00000
      4     -12.1572      2.00000
      5     -12.1410      2.00000
      6     -12.1199      2.00000
      7     -12.0975      2.00000
      8     -12.0794      2.00000
      9     -12.0609      2.00000
     10     -12.0559      2.00000
     11      -0.4190      2.00000
     12      -0.4142      2.00000
     13      -0.2418      2.00000
     14      -0.2182      2.00000
     15      -0.1914      2.00000
     16      -0.0264      2.00000
     17       0.1617      2.00000
     18       0.1659      2.00000
     19       0.2137      2.00000
     20       0.2553      2.00000
     21       0.4996      2.00000
     22       0.5028      2.00000
     23       1.0460      2.00000
     24       1.0749      2.00000
     25       1.1717      2.00000
     26       1.2014      2.00000
     27       1.2042      2.00000
     28       1.2627      2.00000
     29       1.3403      2.00000
     30       1.4826      2.00000
     31       1.5571      2.00000
     32       1.6099      2.00000
     33       1.6757      2.00000
     34       1.7656      2.00000
     35       1.8978      2.00000
     36       1.9587      2.00000
     37       2.0945      2.00000
     38       2.1673      2.00000
     39       2.2040      2.00000
     40       2.2247      2.00000
     41       2.2813      2.00000
     42       2.3057      2.00000
     43       2.4457      2.00000
     44       2.5295      2.00000
     45       2.5884      2.00000
     46       2.5965      2.00000
     47       2.8429      2.00000
     48       2.9856      2.00000
     49       3.9207      2.00000
     50       4.3323      2.00000
     51       4.7713      0.11622
     52       4.8831      0.00000
     53       4.9823      0.00000
     54       5.3227      0.00000
     55       5.3310      0.00000
     56       5.7333      0.00000
     57       6.1399      0.00000
     58       6.2398      0.00000
     59       7.3144      0.00000
     60       7.7595      0.00000
     61       7.8862      0.00000
     62       8.3551      0.00000
     63       8.7876      0.00000
     64       9.0181      0.00000

 k-point    21 :       0.3077    0.3077    0.0000
  band No.  band energies     occupation 
      1     -12.9954      2.00000
      2     -12.9950      2.00000
      3     -12.1417      2.00000
      4     -12.1271      2.00000
      5     -12.1146      2.00000
      6     -12.0995      2.00000
      7     -12.0834      2.00000
      8     -12.0727      2.00000
      9     -12.0589      2.00000
     10     -12.0573      2.00000
     11      -0.2823      2.00000
     12      -0.2818      2.00000
     13      -0.0138      2.00000
     14      -0.0089      2.00000
     15       0.1046      2.00000
     16       0.1223      2.00000
     17       0.2362      2.00000
     18       0.2500      2.00000
     19       0.3370      2.00000
     20       0.4341      2.00000
     21       0.4813      2.00000
     22       0.6226      2.00000
     23       0.7151      2.00000
     24       0.7480      2.00000
     25       0.9009      2.00000
     26       0.9232      2.00000
     27       0.9309      2.00000
     28       1.1168      2.00000
     29       1.1655      2.00000
     30       1.2931      2.00000
     31       1.3626      2.00000
     32       1.4187      2.00000
     33       1.4934      2.00000
     34       1.8324      2.00000
     35       2.0617      2.00000
     36       2.1513      2.00000
     37       2.2612      2.00000
     38       2.3527      2.00000
     39       2.3712      2.00000
     40       2.4108      2.00000
     41       2.4150      2.00000
     42       2.4586      2.00000
     43       2.5545      2.00000
     44       2.7822      2.00000
     45       3.0491      2.00000
     46       3.1041      2.00000
     47       3.3135      2.00000
     48       3.3579      2.00000
     49       3.5666      2.00000
     50       3.6331      2.00000
     51       3.8896      2.00000
     52       4.2171      2.00000
     53       4.5357      2.00000
     54       5.1410      0.00000
     55       5.4066      0.00000
     56       5.6189      0.00000
     57       5.9963      0.00000
     58       6.3838      0.00000
     59       6.9080      0.00000
     60       7.0601      0.00000
     61       7.5074      0.00000
     62       7.8285      0.00000
     63       9.0049      0.00000
     64       9.2877      0.00000


--------------------------------------------------------------------------------------------------------


 soft charge-density along one line, spin component           1
         0         1         2         3         4         5         6         7         8         9
 total charge-density along one line
 
 pseudopotential strength for first ion, spin component:           1
 12.141   0.000 -14.769   0.000  -0.000   0.000   0.022   0.000   0.000   0.000   0.000   0.000  -0.028   0.000  -0.000   0.000
-14.769   0.000  17.984   0.000   0.000   0.000  -0.028   0.000  -0.000   0.000  -0.000   0.000   0.035   0.000   0.000   0.000
 -0.000   0.000   0.000   0.000  -8.248   0.000  -0.000   0.000   0.000   0.000   9.861   0.000   0.000   0.000  -0.000   0.000
  0.022   0.000  -0.028   0.000  -0.000   0.000  -8.311   0.000   0.000   0.000   0.000   0.000   9.945   0.000  -0.000   0.000
  0.000   0.000  -0.000   0.000   0.000   0.000   0.000   0.000  -8.248   0.000  -0.000   0.000  -0.000   0.000   9.861   0.000
  0.000   0.000  -0.000   0.000   9.861   0.000   0.000   0.000  -0.000   0.000 -11.625   0.000  -0.000   0.000   0.000   0.000
 -0.028   0.000   0.035   0.000   0.000   0.000   9.945   0.000  -0.000   0.000  -0.000   0.000 -11.738   0.000   0.000   0.000
 -0.000   0.000   0.000   0.000  -0.000   0.000  -0.000   0.000   9.861   0.000   0.000   0.000   0.000   0.000 -11.625   0.000
 total augmentation occupancy for first ion, spin component:           1
  2.635   0.375   0.000  -0.076  -0.000   0.000  -0.032  -0.000
  0.375   0.076   0.000  -0.071  -0.000   0.000  -0.016  -0.000
  0.000   0.000   2.120  -0.000   0.000   0.231  -0.000   0.000
 -0.076  -0.071  -0.000   2.233   0.000  -0.000   0.313   0.000
 -0.000  -0.000   0.000   0.000   2.120   0.000   0.000   0.231
  0.000   0.000   0.231  -0.000   0.000   0.028  -0.000   0.000
 -0.032  -0.016  -0.000   0.313   0.000  -0.000   0.048   0.000
 -0.000  -0.000   0.000   0.000   0.231   0.000   0.000   0.028


------------------------ aborting loop because EDIFF is reached ----------------------------------------


    CHARGE:  cpu time    0.36: real time    0.36
    FORLOC:  cpu time    0.03: real time    0.03
    FORNL :  cpu time    3.02: real time    3.02
    STRESS:  cpu time    4.04: real time    4.05
    FORCOR:  cpu time    0.13: real time    0.13
    FORHAR:  cpu time    0.06: real time    0.06
    MIXING:  cpu time    0.00: real time    0.00
    OFIELD:  cpu time    0.00: real time    0.00

  FORCE on cell =-STRESS in cart. coord.  units (eV):
  Direction    XX          YY          ZZ          XY          YZ          ZX
  --------------------------------------------------------------------------------------
  Alpha Z   127.47565   127.47565   127.47565
  Ewald   17288.76837 17288.76871-19867.09897    -0.00003    -0.00000    -0.00015
  Hartree 19119.32459 19119.32451-18158.22089    -0.00000    -0.00000     0.00004
  E(xc)    -412.62895  -412.62896  -412.52157    -0.00000     0.00000    -0.00000
  Local  -37629.27555-37629.27502 36815.26839    -0.00019    -0.00000     0.00005
  n-local   -59.13712   -73.69857   -60.80225     3.07718    -1.23864     4.73876
  augment    60.40221    60.40195    58.61850     0.00018     0.00000     0.00000
  Kinetic  1518.70315  1492.24449  1475.89044    -0.91911    -0.51661     1.58976
  Fock        0.00000     0.00000     0.00000     0.00000     0.00000     0.00000
  -------------------------------------------------------------------------------------
  Total      -6.87745    -6.87745   -21.39070     0.00000     0.00000    -0.00000
  in kB     -33.28404   -33.28402  -103.52218     0.00000     0.00000    -0.00000
  external pressure =      -56.70 kB  Pullay stress =        0.00 kB


 VOLUME and BASIS-vectors are now :
 -----------------------------------------------------------------------------
  energy-cutoff  :      520.00
  volume of cell :      331.06
      direct lattice vectors                 reciprocal lattice vectors
     2.600457673 -1.501374484  0.000000000     0.384547693  0.000000000 -0.000000000
     0.000000000  3.002748968  0.000000000     0.192273847  0.333028172 -0.000000000
     0.000000000 -0.000000000 42.396823111     0.000000000  0.000000000  0.023586673

  length of vectors
     3.002749648  3.002748968 42.396823111     0.384547693  0.384547781  0.023586673


 FORCES acting on ions
    electron-ion (+dipol)            ewald-force                    non-local-force                 convergence-correction
 -----------------------------------------------------------------------------------------------
   0.215E-05 -.424E-06 0.131E+04   0.233E-04 -.259E-04 -.130E+04   -.151E-15 0.313E-16 -.902E+01   0.239E-08 -.366E-08 0.840E-01
   0.106E-02 -.184E-02 0.102E+04   0.555E-04 -.950E-04 -.102E+04   0.198E-18 -.137E-19 0.349E-01   0.300E-07 -.518E-07 0.848E-01
   0.821E-08 -.186E-08 0.437E+03   -.543E-07 0.580E-07 -.437E+03   -.808E-19 -.119E-19 -.413E-02   0.171E-09 -.339E-09 0.469E-01
   0.107E-02 -.185E-02 0.146E+03   0.545E-04 -.943E-04 -.146E+03   -.164E-18 0.583E-19 -.104E-01   -.508E-08 0.852E-08 0.121E-01
   -.794E-08 0.185E-08 -.437E+03   0.557E-07 -.597E-07 0.437E+03   0.704E-19 0.258E-19 0.342E-02   -.198E-09 0.373E-09 -.493E-01
   0.107E-02 -.185E-02 -.727E+03   0.543E-04 -.940E-04 0.727E+03   -.332E-18 0.509E-19 -.174E-01   -.232E-08 0.399E-08 -.736E-01
   -.215E-05 0.423E-06 -.131E+04   -.233E-04 0.259E-04 0.130E+04   0.145E-15 -.244E-16 0.901E+01   -.223E-08 0.340E-08 -.818E-01
   -.107E-02 0.185E-02 0.727E+03   -.543E-04 0.940E-04 -.727E+03   0.236E-18 -.676E-19 0.168E-01   0.481E-09 -.799E-09 0.738E-01
   -.107E-02 0.185E-02 -.146E+03   -.545E-04 0.943E-04 0.146E+03   0.117E-18 -.584E-19 0.105E-01   0.550E-08 -.928E-08 -.164E-01
   -.106E-02 0.184E-02 -.102E+04   -.555E-04 0.950E-04 0.102E+04   -.218E-18 0.881E-18 -.350E-01   -.279E-07 0.483E-07 -.832E-01
   -.669E-07 0.488E-07 0.291E+03   0.142E-06 -.159E-06 -.291E+03   -.119E-18 0.114E-18 -.136E-01   -.153E-08 0.285E-08 0.260E-01
   0.284E-07 -.483E-07 -.330E-02   -.151E-08 0.169E-08 0.411E-02   0.395E-20 0.331E-20 0.205E-03   -.398E-10 0.726E-10 -.790E-03
   0.172E-07 0.363E-07 -.291E+03   -.140E-06 0.156E-06 0.291E+03   0.639E-19 0.103E-18 0.134E-01   0.156E-08 -.290E-08 -.256E-01
   0.463E-04 -.778E-04 0.391E+03   -.516E-04 0.856E-04 -.391E+03   0.672E-18 -.341E-19 0.867E-01   0.552E-08 -.999E-08 0.307E-01
   0.418E-04 -.725E-04 0.971E+02   -.469E-04 0.812E-04 -.971E+02   -.159E-18 0.342E-20 -.869E-02   -.380E-09 0.762E-09 0.102E-01
   0.418E-04 -.724E-04 -.194E+03   -.468E-04 0.810E-04 0.194E+03   0.787E-19 0.105E-18 0.891E-02   -.102E-09 0.255E-09 -.207E-01
   -.418E-04 0.724E-04 0.194E+03   0.468E-04 -.810E-04 -.194E+03   -.247E-19 0.353E-20 -.898E-02   0.675E-10 -.192E-09 0.204E-01
   -.418E-04 0.724E-04 -.971E+02   0.469E-04 -.812E-04 0.971E+02   -.433E-19 0.507E-19 0.890E-02   0.308E-09 -.630E-09 -.114E-01
   -.463E-04 0.777E-04 -.391E+03   0.516E-04 -.856E-04 0.391E+03   -.241E-18 0.344E-19 -.876E-01   -.517E-08 0.936E-08 -.299E-01
   -.908E-10 0.203E-09 0.181E-01   -.139E-10 0.132E-10 -.183E-01   0.533E-21 -.157E-22 0.399E-04   0.332E-12 -.398E-12 0.157E-03
   -.392E-06 -.317E-07 0.726E+03   0.168E-05 -.151E-05 -.720E+03   -.984E-16 0.216E-17 -.550E+01   0.318E-10 -.508E-10 0.309E-01
   0.149E-04 -.255E-04 0.499E+03   -.166E-05 0.215E-05 -.498E+03   0.980E-17 0.140E-16 -.222E+00   0.246E-10 -.457E-10 0.242E-01
   -.142E-04 0.244E-04 0.228E+03   0.119E-05 -.172E-05 -.228E+03   0.489E-17 0.339E-17 0.201E+00   -.253E-10 0.369E-10 0.120E-01
   0.392E-06 0.309E-07 -.726E+03   -.168E-05 0.151E-05 0.720E+03   0.845E-16 -.216E-17 0.549E+01   -.301E-10 0.479E-10 -.303E-01
   0.142E-04 -.244E-04 -.228E+03   -.119E-05 0.172E-05 0.228E+03   0.205E-17 0.790E-19 -.201E+00   0.253E-10 -.368E-10 -.116E-01
   -.149E-04 0.255E-04 -.499E+03   0.166E-05 -.215E-05 0.498E+03   0.256E-17 -.875E-19 0.223E+00   -.248E-10 0.463E-10 -.237E-01
 -----------------------------------------------------------------------------------------------
   -.682E-08 0.937E-08 0.891E-02   -.180E-13 -.225E-13 0.568E-12   -.147E-17 0.255E-16 -.657E-02   0.101E-08 -.175E-08 -.227E-02
 
 
 POSITION                                       TOTAL-FORCE (eV/Angst)
 -----------------------------------------------------------------------------------
      0.00000     -0.00000     11.01180         0.000000     -0.000000      0.012715
      0.86682      1.50138     13.44617         0.000000      0.000000      0.011407
      0.00000     -0.00000     18.50858         0.000000      0.000000      0.000794
      0.86682      1.50138     21.03847        -0.000000      0.000000     -0.005676
      0.00000     -0.00000     26.09599        -0.000000      0.000000     -0.001192
      0.86682      1.50138     28.62739        -0.000000     -0.000000     -0.013445
      0.00000     -0.00000     33.59279        -0.000000      0.000000     -0.010595
      1.73364     -0.00000     15.97718         0.000000      0.000000      0.013382
      1.73364     -0.00000     23.56607         0.000000     -0.000000      0.005651
      1.73364     -0.00000     31.15840        -0.000000      0.000000     -0.011115
      0.00000     -0.00000     14.71325        -0.000000      0.000000     -0.015860
      0.00000     -0.00000     22.30225         0.000000      0.000000      0.000219
      0.00000     -0.00000     29.89134         0.000000     -0.000000      0.015990
      1.73364     -0.00000     12.17898        -0.000000      0.000000     -0.000512
      1.73364     -0.00000     19.77424        -0.000000      0.000000     -0.013549
      1.73364     -0.00000     27.36085         0.000000     -0.000000      0.007602
      0.86682      1.50138     17.24372        -0.000000      0.000000     -0.007501
      0.86682      1.50138     24.83029         0.000000     -0.000000      0.013751
      0.86682      1.50138     32.42567        -0.000000      0.000000     -0.000171
      0.00000     -0.00000      1.10400        -0.000000      0.000000     -0.000002
      0.00000     -0.00000      9.27060        -0.000000      0.000000     -0.013919
      1.73364     -0.00000      6.74645         0.000000     -0.000000      0.009007
      0.86682      1.50138      3.79200         0.000000     -0.000000      0.004134
      0.00000     -0.00000     35.33409         0.000000     -0.000000      0.011936
      1.73364     -0.00000     40.81282        -0.000000      0.000000     -0.004125
      0.86682      1.50138     37.85813        -0.000000      0.000000     -0.008926
 -----------------------------------------------------------------------------------
    total drift:                               -0.000000      0.000000      0.000071


--------------------------------------------------------------------------------------------------------



  FREE ENERGIE OF THE ION-ELECTRON SYSTEM (eV)
  ---------------------------------------------------
  free  energy   TOTEN  =      -140.45984152 eV

  energy  without entropy=     -140.45612938  energy(sigma->0) =     -140.45798545
 
 d Force = 0.9471592E-04[ 0.633E-04, 0.126E-03]  d Energy = 0.7323959E-04 0.215E-04
 d Force =-0.2178881E+01[-0.218E+01,-0.218E+01]  d Ewald  =-0.2178881E+01 0.199E-07


--------------------------------------------------------------------------------------------------------


    POTLOK:  cpu time    0.20: real time    0.20


--------------------------------------------------------------------------------------------------------


 Conjugate gradient step on ions:
 trial-energy change:   -0.000073  1 .order   -0.000095   -0.000126   -0.000063
  (g-gl).g = 0.211E-03      g.g   = 0.279E-03  gl.gl    = 0.504E-03
 g(Force)  = 0.279E-03   g(Stress)= 0.000E+00 ortho     =-0.243E-05
 gamma     =   0.41969
 trial     =   0.45391
 opt step  =   0.91216  (harmonic =   0.91216) maximal distance =0.00171538
 next E    =  -140.459895   (d E  =  -0.00013)


--------------------------------------------------------------------------------------------------------


  
 reached required accuracy - stopping structural energy minimisation
     LOOP+:  cpu time   30.94: real time   30.97
    4ORBIT:  cpu time    0.00: real time    0.00

 total amount of memory used by VASP on root node   147890. kBytes
========================================================================

   base      :      30000. kBytes
   nonl-proj :      15664. kBytes
   fftplans  :      55172. kBytes
   grid      :      22118. kBytes
   one-center:         56. kBytes
   wavefun   :      24880. kBytes
 
  
  
 General timing and accounting informations for this job:
 ========================================================
  
                  Total CPU time used (sec):     2070.194
                            User time (sec):     2043.441
                          System time (sec):       26.753
                         Elapsed time (sec):     2072.646
  
                   Maximum memory used (kb):      253008.
                   Average memory used (kb):           0.
  
                          Minor page faults:       554836
                          Major page faults:            0
                 Voluntary context switches:          439
