  26  26   0   0
  0.2068449E+02  0.2928747E-09  0.2928746E-09  0.7239759E-08  0.5000000E-15
  1.000000000000000E-004
  CAR 
 unknown system                          
      9.02716130    -20.05344525  301     -0.02360279      1.00000000
    -20.053  0.0000E+00  0.0000E+00
    -19.957  0.0000E+00  0.0000E+00
    -19.860  0.0000E+00  0.0000E+00
    -19.763  0.0000E+00  0.0000E+00
    -19.666  0.0000E+00  0.0000E+00
    -19.569  0.0000E+00  0.0000E+00
    -19.472  0.0000E+00  0.0000E+00
    -19.375  0.0000E+00  0.0000E+00
    -19.278  0.0000E+00  0.0000E+00
    -19.181  0.0000E+00  0.0000E+00
    -19.084  0.0000E+00  0.0000E+00
    -18.987  0.5981E-16  0.5798E-17
    -18.890  0.8977E-09  0.8702E-10
    -18.793  0.1279E-04  0.1240E-05
    -18.696  0.8595E-03  0.8455E-04
    -18.599  0.2209E-02  0.2987E-03
    -18.502  0.2197E-02  0.5117E-03
    -18.406  0.3109E-02  0.8130E-03
    -18.309  0.2943E-02  0.1098E-02
    -18.212  0.3438E-02  0.1432E-02
    -18.115  0.5071E-02  0.1923E-02
    -18.018  0.6574E-02  0.2560E-02
    -17.921  0.1121E-01  0.3647E-02
    -17.824  0.5536E-02  0.4183E-02
    -17.727  0.2416E-02  0.4418E-02
    -17.630  0.2885E-02  0.4697E-02
    -17.533  0.4917E-02  0.5174E-02
    -17.436  0.4523E-02  0.5612E-02
    -17.339  0.8959E-02  0.6481E-02
    -17.242  0.6998E-02  0.7159E-02
    -17.145  0.1339E-01  0.8457E-02
    -17.048  0.1212E-01  0.9632E-02
    -16.952  0.1938E-01  0.1151E-01
    -16.855  0.2485E-01  0.1392E-01
    -16.758  0.2842E-01  0.1667E-01
    -16.661  0.3214E-01  0.1979E-01
    -16.564  0.3192E-01  0.2288E-01
    -16.467  0.3008E-01  0.2580E-01
    -16.370  0.2817E-01  0.2853E-01
    -16.273  0.2465E-01  0.3092E-01
    -16.176  0.2051E-01  0.3291E-01
    -16.079  0.1289E-01  0.3416E-01
    -15.982  0.1321E-01  0.3544E-01
    -15.885  0.5655E-02  0.3599E-01
    -15.788  0.1305E-03  0.3600E-01
    -15.691  0.1107E-02  0.3611E-01
    -15.594  0.3915E-02  0.3649E-01
    -15.497  0.5097E-02  0.3698E-01
    -15.401  0.7117E-02  0.3767E-01
    -15.304  0.1336E-01  0.3897E-01
    -15.207  0.1024E-01  0.3996E-01
    -15.110  0.4159E-03  0.4000E-01
    -15.013  0.9871E-07  0.4000E-01
    -14.916  0.2739E-13  0.4000E-01
    -14.819  0.0000E+00  0.4000E-01
    -14.722  0.0000E+00  0.4000E-01
    -14.625  0.0000E+00  0.4000E-01
    -14.528  0.0000E+00  0.4000E-01
    -14.431  0.0000E+00  0.4000E-01
    -14.334  0.0000E+00  0.4000E-01
    -14.237  0.0000E+00  0.4000E-01
    -14.140  0.0000E+00  0.4000E-01
    -14.043  0.0000E+00  0.4000E-01
    -13.947  0.0000E+00  0.4000E-01
    -13.850  0.0000E+00  0.4000E-01
    -13.753  0.0000E+00  0.4000E-01
    -13.656  0.0000E+00  0.4000E-01
    -13.559  0.0000E+00  0.4000E-01
    -13.462  0.0000E+00  0.4000E-01
    -13.365  0.0000E+00  0.4000E-01
    -13.268  0.0000E+00  0.4000E-01
    -13.171  0.0000E+00  0.4000E-01
    -13.074  0.0000E+00  0.4000E-01
    -12.977  0.0000E+00  0.4000E-01
    -12.880  0.0000E+00  0.4000E-01
    -12.783  0.0000E+00  0.4000E-01
    -12.686  0.0000E+00  0.4000E-01
    -12.589  0.0000E+00  0.4000E-01
    -12.492  0.0000E+00  0.4000E-01
    -12.396  0.0000E+00  0.4000E-01
    -12.299  0.0000E+00  0.4000E-01
    -12.202  0.0000E+00  0.4000E-01
    -12.105  0.0000E+00  0.4000E-01
    -12.008  0.0000E+00  0.4000E-01
    -11.911  0.0000E+00  0.4000E-01
    -11.814  0.0000E+00  0.4000E-01
    -11.717  0.0000E+00  0.4000E-01
    -11.620  0.0000E+00  0.4000E-01
    -11.523  0.0000E+00  0.4000E-01
    -11.426  0.0000E+00  0.4000E-01
    -11.329  0.0000E+00  0.4000E-01
    -11.232  0.0000E+00  0.4000E-01
    -11.135  0.0000E+00  0.4000E-01
    -11.038  0.0000E+00  0.4000E-01
    -10.942  0.0000E+00  0.4000E-01
    -10.845  0.5050E-12  0.4000E-01
    -10.748  0.2085E-06  0.4000E-01
    -10.651  0.8441E-04  0.4001E-01
    -10.554  0.3027E-03  0.4004E-01
    -10.457  0.1215E-02  0.4016E-01
    -10.360  0.1081E-03  0.4017E-01
    -10.263  0.5789E-03  0.4022E-01
    -10.166  0.1303E-02  0.4035E-01
    -10.069  0.2312E-02  0.4057E-01
     -9.972  0.4432E-03  0.4062E-01
     -9.875  0.2284E-03  0.4064E-01
     -9.778  0.1634E-02  0.4080E-01
     -9.681  0.3579E-02  0.4114E-01
     -9.584  0.4491E-03  0.4119E-01
     -9.487  0.9204E-03  0.4128E-01
     -9.391  0.2001E-02  0.4147E-01
     -9.294  0.2749E-02  0.4174E-01
     -9.197  0.6582E-03  0.4180E-01
     -9.100  0.2419E-02  0.4203E-01
     -9.003  0.3583E-02  0.4238E-01
     -8.906  0.2465E-02  0.4262E-01
     -8.809  0.6984E-04  0.4263E-01
     -8.712  0.7835E-03  0.4270E-01
     -8.615  0.4221E-02  0.4311E-01
     -8.518  0.4006E-02  0.4350E-01
     -8.421  0.1961E-02  0.4369E-01
     -8.324  0.9883E-03  0.4379E-01
     -8.227  0.2157E-02  0.4400E-01
     -8.130  0.3966E-02  0.4438E-01
     -8.033  0.2069E-02  0.4458E-01
     -7.937  0.3720E-02  0.4494E-01
     -7.840  0.3740E-02  0.4530E-01
     -7.743  0.3110E-02  0.4561E-01
     -7.646  0.1825E-02  0.4578E-01
     -7.549  0.3084E-02  0.4608E-01
     -7.452  0.3481E-02  0.4642E-01
     -7.355  0.1087E-02  0.4652E-01
     -7.258  0.1395E-02  0.4666E-01
     -7.161  0.3735E-02  0.4702E-01
     -7.064  0.6431E-02  0.4764E-01
     -6.967  0.5393E-02  0.4817E-01
     -6.870  0.3654E-02  0.4852E-01
     -6.773  0.1577E-02  0.4867E-01
     -6.676  0.5470E-02  0.4921E-01
     -6.579  0.3965E-02  0.4959E-01
     -6.482  0.1076E-02  0.4969E-01
     -6.386  0.2999E-02  0.4998E-01
     -6.289  0.4646E-02  0.5043E-01
     -6.192  0.2450E-02  0.5067E-01
     -6.095  0.6775E-02  0.5133E-01
     -5.998  0.5019E-02  0.5182E-01
     -5.901  0.6149E-02  0.5241E-01
     -5.804  0.5231E-02  0.5292E-01
     -5.707  0.5892E-02  0.5349E-01
     -5.610  0.6091E-02  0.5408E-01
     -5.513  0.7137E-02  0.5477E-01
     -5.416  0.8057E-02  0.5555E-01
     -5.319  0.9346E-02  0.5646E-01
     -5.222  0.1097E-01  0.5752E-01
     -5.125  0.1629E-01  0.5910E-01
     -5.028  0.1230E-01  0.6029E-01
     -4.932  0.1280E-01  0.6154E-01
     -4.835  0.9636E-02  0.6247E-01
     -4.738  0.1342E-01  0.6377E-01
     -4.641  0.1995E-01  0.6570E-01
     -4.544  0.2489E-01  0.6812E-01
     -4.447  0.2995E-01  0.7102E-01
     -4.350  0.3121E-01  0.7405E-01
     -4.253  0.2978E-01  0.7693E-01
     -4.156  0.2694E-01  0.7954E-01
     -4.059  0.3372E-01  0.8281E-01
     -3.962  0.2838E-01  0.8556E-01
     -3.865  0.2255E-01  0.8775E-01
     -3.768  0.2062E-01  0.8975E-01
     -3.671  0.2223E-01  0.9190E-01
     -3.574  0.2478E-01  0.9431E-01
     -3.477  0.2219E-01  0.9646E-01
     -3.381  0.1594E-01  0.9800E-01
     -3.284  0.1867E-01  0.9981E-01
     -3.187  0.2467E-01  0.1022E+00
     -3.090  0.2015E-01  0.1042E+00
     -2.993  0.1976E-01  0.1061E+00
     -2.896  0.3013E-01  0.1090E+00
     -2.799  0.3017E-01  0.1119E+00
     -2.702  0.2148E-01  0.1140E+00
     -2.605  0.2792E-01  0.1167E+00
     -2.508  0.3689E-01  0.1203E+00
     -2.411  0.2856E-01  0.1231E+00
     -2.314  0.3015E-01  0.1260E+00
     -2.217  0.4265E-01  0.1301E+00
     -2.120  0.4453E-01  0.1344E+00
     -2.023  0.3519E-01  0.1378E+00
     -1.927  0.4156E-01  0.1419E+00
     -1.830  0.4421E-01  0.1461E+00
     -1.733  0.4660E-01  0.1507E+00
     -1.636  0.4563E-01  0.1551E+00
     -1.539  0.4240E-01  0.1592E+00
     -1.442  0.4884E-01  0.1639E+00
     -1.345  0.3938E-01  0.1678E+00
     -1.248  0.3636E-01  0.1713E+00
     -1.151  0.4319E-01  0.1755E+00
     -1.054  0.3690E-01  0.1790E+00
     -0.957  0.2767E-01  0.1817E+00
     -0.860  0.2335E-01  0.1840E+00
     -0.763  0.2215E-01  0.1861E+00
     -0.666  0.1320E-01  0.1874E+00
     -0.569  0.1076E-01  0.1885E+00
     -0.473  0.1334E-01  0.1897E+00
     -0.376  0.1226E-01  0.1909E+00
     -0.279  0.1694E-01  0.1926E+00
     -0.182  0.1083E-01  0.1936E+00
     -0.085  0.2503E-01  0.1961E+00
      0.012  0.3010E-01  0.1990E+00
      0.109  0.1358E-01  0.2003E+00
      0.206  0.6004E-02  0.2009E+00
      0.303  0.4496E-02  0.2013E+00
      0.400  0.1766E-02  0.2015E+00
      0.497  0.8973E-02  0.2023E+00
      0.594  0.1169E-01  0.2035E+00
      0.691  0.6391E-02  0.2041E+00
      0.788  0.7791E-02  0.2049E+00
      0.885  0.8791E-02  0.2057E+00
      0.982  0.4676E-02  0.2062E+00
      1.078  0.7753E-02  0.2069E+00
      1.175  0.1084E-01  0.2080E+00
      1.272  0.4860E-02  0.2084E+00
      1.369  0.6254E-02  0.2090E+00
      1.466  0.8996E-03  0.2091E+00
      1.563  0.3075E-02  0.2094E+00
      1.660  0.4576E-02  0.2099E+00
      1.757  0.8760E-02  0.2107E+00
      1.854  0.1122E-01  0.2118E+00
      1.951  0.5190E-02  0.2123E+00
      2.048  0.7453E-02  0.2130E+00
      2.145  0.5221E-02  0.2135E+00
      2.242  0.4611E-02  0.2140E+00
      2.339  0.6596E-02  0.2146E+00
      2.436  0.9128E-02  0.2155E+00
      2.532  0.9878E-02  0.2165E+00
      2.629  0.7332E-02  0.2172E+00
      2.726  0.1107E-01  0.2183E+00
      2.823  0.6086E-02  0.2188E+00
      2.920  0.5483E-02  0.2194E+00
      3.017  0.6102E-02  0.2200E+00
      3.114  0.7914E-02  0.2207E+00
      3.211  0.5202E-02  0.2212E+00
      3.308  0.7650E-02  0.2220E+00
      3.405  0.5397E-02  0.2225E+00
      3.502  0.5530E-02  0.2230E+00
      3.599  0.9914E-02  0.2240E+00
      3.696  0.5086E-02  0.2245E+00
      3.793  0.6541E-02  0.2251E+00
      3.890  0.9746E-02  0.2261E+00
      3.987  0.1031E-01  0.2271E+00
      4.083  0.1225E-01  0.2283E+00
      4.180  0.1190E-01  0.2294E+00
      4.277  0.9703E-02  0.2304E+00
      4.374  0.5782E-02  0.2309E+00
      4.471  0.5072E-02  0.2314E+00
      4.568  0.6391E-02  0.2320E+00
      4.665  0.8317E-02  0.2328E+00
      4.762  0.9525E-02  0.2338E+00
      4.859  0.6955E-02  0.2344E+00
      4.956  0.1141E-01  0.2355E+00
      5.053  0.1186E-01  0.2367E+00
      5.150  0.8452E-02  0.2375E+00
      5.247  0.1036E-01  0.2385E+00
      5.344  0.9396E-02  0.2394E+00
      5.441  0.1068E-01  0.2405E+00
      5.537  0.9000E-02  0.2413E+00
      5.634  0.1316E-01  0.2426E+00
      5.731  0.8817E-02  0.2435E+00
      5.828  0.1225E-01  0.2446E+00
      5.925  0.1223E-01  0.2458E+00
      6.022  0.1620E-01  0.2474E+00
      6.119  0.1010E-01  0.2484E+00
      6.216  0.8710E-02  0.2492E+00
      6.313  0.6646E-02  0.2499E+00
      6.410  0.1298E-01  0.2511E+00
      6.507  0.1250E-01  0.2523E+00
      6.604  0.1769E-01  0.2541E+00
      6.701  0.1123E-01  0.2551E+00
      6.798  0.1268E-01  0.2564E+00
      6.895  0.1059E-01  0.2574E+00
      6.992  0.9759E-02  0.2583E+00
      7.088  0.2841E-02  0.2586E+00
      7.185  0.7486E-02  0.2593E+00
      7.282  0.4807E-02  0.2598E+00
      7.379  0.3289E-03  0.2598E+00
      7.476  0.1192E-02  0.2600E+00
      7.573  0.1989E-03  0.2600E+00
      7.670  0.3898E-04  0.2600E+00
      7.767  0.1954E-03  0.2600E+00
      7.864  0.9891E-05  0.2600E+00
      7.961  0.8840E-09  0.2600E+00
      8.058  0.5975E-16  0.2600E+00
      8.155  0.0000E+00  0.2600E+00
      8.252  0.0000E+00  0.2600E+00
      8.349  0.0000E+00  0.2600E+00
      8.446  0.0000E+00  0.2600E+00
      8.542  0.0000E+00  0.2600E+00
      8.639  0.0000E+00  0.2600E+00
      8.736  0.0000E+00  0.2600E+00
      8.833  0.0000E+00  0.2600E+00
      8.930  0.0000E+00  0.2600E+00
      9.027  0.0000E+00  0.2600E+00
