       N       E                     dE             d eps       ncg     rms          rms(c)
DAV:   1     0.712853314636E+03    0.71285E+03   -0.41137E+04  2850   0.124E+03
DAV:   2    -0.410890258309E+02   -0.75394E+03   -0.71363E+03  3650   0.278E+02
DAV:   3    -0.151770645244E+03   -0.11068E+03   -0.10987E+03  3185   0.113E+02
DAV:   4    -0.154887013819E+03   -0.31164E+01   -0.31090E+01  3300   0.217E+01
DAV:   5    -0.154987798114E+03   -0.10078E+00   -0.10074E+00  3890   0.353E+00    0.245E+01
DAV:   6    -0.151777753537E+03    0.32100E+01   -0.17328E+02  3245   0.342E+01    0.332E+01
DAV:   7    -0.142916575926E+03    0.88612E+01   -0.15634E+02  3230   0.153E+01    0.117E+01
DAV:   8    -0.139357473021E+03    0.35591E+01   -0.38942E+00  3255   0.797E+00    0.807E+00
DAV:   9    -0.137459506566E+03    0.18980E+01   -0.39972E+00  3455   0.808E+00    0.730E+00
DAV:  10    -0.134873207189E+03    0.25863E+01   -0.42446E+00  3350   0.580E+00    0.633E+00
DAV:  11    -0.134751218787E+03    0.12199E+00   -0.71678E-01  3130   0.176E+00    0.253E+00
DAV:  12    -0.137512638628E+03   -0.27614E+01   -0.19416E+01  3840   0.625E+00    0.190E+01
DAV:  13    -0.135813809632E+03    0.16988E+01   -0.54671E+01  3875   0.620E+00    0.824E+00
DAV:  14    -0.134712418542E+03    0.11014E+01   -0.55917E-01  3425   0.281E+00    0.450E+00
DAV:  15    -0.134827564323E+03   -0.11515E+00   -0.44898E+00  3425   0.233E+00    0.741E+00
DAV:  16    -0.134670916752E+03    0.15665E+00   -0.41272E-02  3060   0.747E-01    0.581E+00
DAV:  17    -0.134954030793E+03   -0.28311E+00   -0.22033E-01  3655   0.864E-01    0.881E+00
DAV:  18    -0.134609519503E+03    0.34451E+00   -0.63453E+00  4005   0.200E+00    0.489E+00
DAV:  19    -0.134460326376E+03    0.14919E+00   -0.82656E-01  3045   0.955E-01    0.139E+00
DAV:  20    -0.134447258902E+03    0.13067E-01   -0.16408E-02  3275   0.519E-01    0.134E+00
DAV:  21    -0.134441135050E+03    0.61239E-02   -0.37637E-03  3125   0.380E-01    0.134E+00
DAV:  22    -0.134432651191E+03    0.84839E-02   -0.40810E-03  3390   0.378E-01    0.751E-01
DAV:  23    -0.134434183847E+03   -0.15327E-02   -0.19338E-02  3415   0.687E-01    0.148E+00
DAV:  24    -0.134426688453E+03    0.74954E-02   -0.26470E-02  3000   0.336E-01    0.776E-01
DAV:  25    -0.134431141457E+03   -0.44530E-02   -0.97505E-04  3080   0.172E-01    0.120E+00
DAV:  26    -0.134424934251E+03    0.62072E-02   -0.21243E-03  3315   0.329E-01    0.615E-01
DAV:  27    -0.134423656294E+03    0.12780E-02   -0.13046E-03  3045   0.294E-01    0.531E-01
DAV:  28    -0.134424079268E+03   -0.42297E-03   -0.43908E-03  3485   0.254E-01    0.631E-01
DAV:  29    -0.134422186010E+03    0.18933E-02   -0.67130E-04  3025   0.236E-01    0.284E-01
DAV:  30    -0.134423838053E+03   -0.16520E-02   -0.35877E-03  3695   0.309E-01    0.802E-01
DAV:  31    -0.134422545323E+03    0.12927E-02   -0.68935E-04  3085   0.113E-01    0.593E-01
DAV:  32    -0.134421234025E+03    0.13113E-02   -0.17044E-04  3695   0.156E-01    0.332E-01
DAV:  33    -0.134420529815E+03    0.70421E-03   -0.37418E-04  3305   0.117E-01    0.668E-02
DAV:  34    -0.134420386900E+03    0.14292E-03   -0.10158E-04  2920   0.747E-02    0.881E-02
DAV:  35    -0.134420205933E+03    0.18097E-03   -0.56101E-05  2875   0.524E-02    0.678E-02
DAV:  36    -0.134420025957E+03    0.17998E-03   -0.49786E-05  2780   0.348E-02    0.512E-02
DAV:  37    -0.134420007482E+03    0.18475E-04   -0.67435E-05  2815   0.806E-02    0.175E-01
DAV:  38    -0.134419819927E+03    0.18756E-03   -0.91928E-05  3135   0.912E-02    0.110E-01
DAV:  39    -0.134419713697E+03    0.10623E-03   -0.61581E-05  3010   0.917E-02    0.109E-01
DAV:  40    -0.134419658986E+03    0.54712E-04   -0.88627E-05  3060   0.615E-02    0.125E-01
DAV:  41    -0.134419641889E+03    0.17097E-04   -0.42419E-05  2910   0.227E-02    0.907E-02
DAV:  42    -0.134420023927E+03   -0.38204E-03   -0.67514E-05  2910   0.453E-02    0.275E-01
DAV:  43    -0.134419781199E+03    0.24273E-03   -0.13699E-05  2325   0.265E-02    0.165E-01
DAV:  44    -0.134419753526E+03    0.27672E-04   -0.18241E-05  2105   0.330E-02    0.131E-01
DAV:  45    -0.134419781247E+03   -0.27721E-04   -0.17185E-05  2085   0.329E-02    0.131E-01
DAV:  46    -0.134419741842E+03    0.39405E-04   -0.11453E-05  2250   0.253E-02    0.104E-01
DAV:  47    -0.134419688262E+03    0.53580E-04   -0.80914E-06  2260   0.290E-02    0.351E-02
DAV:  48    -0.134419691702E+03   -0.34404E-05   -0.95319E-06  2250   0.172E-02
   1 F= -.13441969E+03 E0= -.13441297E+03  d E =-.134420E+03
       N       E                     dE             d eps       ncg     rms          rms(c)
DAV:   1    -0.135121815947E+03   -0.70213E+00   -0.23429E+01  2850   0.193E+01    0.465E+00
DAV:   2    -0.147161241368E+03   -0.12039E+02   -0.62254E+01  3715   0.108E+01    0.288E+01
DAV:   3    -0.135613891477E+03    0.11547E+02   -0.47142E+01  3050   0.540E+00    0.104E+01
DAV:   4    -0.134899258451E+03    0.71463E+00   -0.44368E+00  3310   0.268E+00    0.152E+00
DAV:   5    -0.134884571657E+03    0.14687E-01   -0.14856E-01  3075   0.134E+00    0.104E+00
DAV:   6    -0.134874792322E+03    0.97793E-02   -0.51330E-02  3300   0.967E-01    0.648E-01
DAV:   7    -0.134869968778E+03    0.48235E-02   -0.13383E-02  3110   0.490E-01    0.170E-01
DAV:   8    -0.134869964032E+03    0.47462E-05   -0.25363E-03  3065   0.198E-01    0.127E-01
DAV:   9    -0.134869913783E+03    0.50248E-04   -0.30728E-04  3035   0.735E-02    0.777E-02
DAV:  10    -0.134869881752E+03    0.32031E-04   -0.11546E-04  3060   0.797E-02    0.427E-02
DAV:  11    -0.134869875411E+03    0.63406E-05   -0.74975E-05  2980   0.725E-02
   2 F= -.13486988E+03 E0= -.13486067E+03  d E =-.450184E+00
       N       E                     dE             d eps       ncg     rms          rms(c)
DAV:   1    -0.137038309547E+03   -0.21684E+01   -0.21496E+02  2890   0.584E+01    0.862E+00
DAV:   2    -0.150539519099E+03   -0.13501E+02   -0.37939E+01  3520   0.202E+01    0.295E+01
DAV:   3    -0.136424060672E+03    0.14115E+02   -0.51838E+01  2955   0.835E+00    0.691E+00
DAV:   4    -0.136117950114E+03    0.30611E+00   -0.66427E+00  3580   0.626E+00    0.439E+00
DAV:   5    -0.135804286233E+03    0.31366E+00   -0.28108E+00  3500   0.551E+00    0.273E+00
DAV:   6    -0.135755851295E+03    0.48435E-01   -0.83234E-01  3320   0.318E+00    0.325E+00
DAV:   7    -0.135719106651E+03    0.36745E-01   -0.98296E-02  2975   0.117E+00    0.246E+00
DAV:   8    -0.135672600415E+03    0.46506E-01   -0.46610E-02  3545   0.120E+00    0.919E-01
DAV:   9    -0.135666441284E+03    0.61591E-02   -0.22463E-02  3030   0.619E-01    0.468E-01
DAV:  10    -0.135667566770E+03   -0.11255E-02   -0.11600E-02  3115   0.609E-01    0.909E-01
DAV:  11    -0.135667741455E+03   -0.17468E-03   -0.22327E-02  3610   0.632E-01    0.108E+00
DAV:  12    -0.135661799219E+03    0.59422E-02   -0.71442E-03  3020   0.414E-01    0.396E-01
DAV:  13    -0.135661210833E+03    0.58839E-03   -0.16856E-03  2940   0.163E-01    0.261E-01
DAV:  14    -0.135660554796E+03    0.65604E-03   -0.64553E-04  3035   0.160E-01    0.138E-01
DAV:  15    -0.135660108426E+03    0.44637E-03   -0.40029E-04  3095   0.164E-01    0.611E-02
DAV:  16    -0.135659896172E+03    0.21225E-03   -0.37853E-04  3000   0.134E-01    0.159E-01
DAV:  17    -0.135659572742E+03    0.32343E-03   -0.23963E-04  3065   0.105E-01    0.165E-01
DAV:  18    -0.135659146345E+03    0.42640E-03   -0.44004E-04  2940   0.106E-01    0.824E-02
DAV:  19    -0.135658928539E+03    0.21781E-03   -0.12179E-04  2940   0.480E-02    0.673E-02
DAV:  20    -0.135658679183E+03    0.24936E-03   -0.80032E-05  2920   0.357E-02    0.251E-02
DAV:  21    -0.135658441066E+03    0.23812E-03   -0.96404E-05  2890   0.409E-02    0.754E-02
DAV:  22    -0.135658288672E+03    0.15239E-03   -0.25405E-05  2610   0.266E-02    0.330E-02
DAV:  23    -0.135657938519E+03    0.35015E-03   -0.65785E-05  2860   0.372E-02    0.123E-02
DAV:  24    -0.135657813929E+03    0.12459E-03   -0.21128E-05  2220   0.274E-02    0.125E-02
DAV:  25    -0.135657692065E+03    0.12186E-03   -0.12936E-05  1950   0.233E-02    0.226E-02
DAV:  26    -0.135657629858E+03    0.62207E-04   -0.83017E-06  1880   0.133E-02    0.201E-02
DAV:  27    -0.135657572181E+03    0.57678E-04   -0.12220E-05  2075   0.218E-02    0.133E-02
DAV:  28    -0.135657525864E+03    0.46316E-04   -0.62117E-06  1870   0.100E-02    0.800E-03
DAV:  29    -0.135657496101E+03    0.29763E-04   -0.28152E-05  2585   0.191E-02    0.174E-02
DAV:  30    -0.135657467081E+03    0.29020E-04   -0.10425E-05  1910   0.219E-02    0.166E-02
DAV:  31    -0.135657447502E+03    0.19579E-04   -0.10849E-05  1950   0.164E-02    0.593E-03
DAV:  32    -0.135657436591E+03    0.10911E-04   -0.25040E-06  1870   0.886E-03    0.396E-03
DAV:  33    -0.135657426247E+03    0.10345E-04   -0.56427E-06  1840   0.126E-02    0.226E-02
DAV:  34    -0.135657429011E+03   -0.27649E-05   -0.87466E-06  1855   0.138E-02
   3 F= -.13565743E+03 E0= -.13564740E+03  d E =-.123774E+01
       N       E                     dE             d eps       ncg     rms          rms(c)
DAV:   1    -0.133013137133E+03    0.26443E+01   -0.84727E+02  2875   0.121E+02    0.158E+01
DAV:   2    -0.139181198580E+03   -0.61681E+01   -0.79929E+01  3190   0.271E+01    0.232E+01
DAV:   3    -0.134810644062E+03    0.43706E+01   -0.78666E+01  3470   0.113E+01    0.113E+01
DAV:   4    -0.132544736875E+03    0.22659E+01   -0.60373E+00  3170   0.111E+01    0.672E+00
DAV:   5    -0.131823311555E+03    0.72143E+00   -0.33386E+00  3275   0.692E+00    0.669E+00
DAV:   6    -0.131621796577E+03    0.20151E+00   -0.66748E+00  3590   0.453E+00    0.354E+00
DAV:   7    -0.131364643204E+03    0.25715E+00   -0.15718E+00  3150   0.323E+00    0.320E+00
DAV:   8    -0.131366491435E+03   -0.18482E-02   -0.70301E-02  2975   0.981E-01    0.317E+00
DAV:   9    -0.131366354122E+03    0.13731E-03   -0.13634E-02  3160   0.435E-01    0.364E+00
DAV:  10    -0.131517292088E+03   -0.15094E+00   -0.26222E-01  3055   0.155E+00    0.670E+00
DAV:  11    -0.131450547411E+03    0.66745E-01   -0.57008E-02  3075   0.844E-01    0.628E+00
DAV:  12    -0.131373244534E+03    0.77303E-01   -0.27385E-01  3105   0.179E+00    0.527E+00
DAV:  13    -0.131781605260E+03   -0.40836E+00   -0.28044E+00  3080   0.552E+00    0.674E+00
DAV:  14    -0.131666030590E+03    0.11557E+00   -0.23289E-01  3020   0.171E+00    0.593E+00
DAV:  15    -0.131897366609E+03   -0.23134E+00   -0.21209E-01  3100   0.181E+00    0.707E+00
DAV:  16    -0.132063779921E+03   -0.16641E+00   -0.98342E-02  3100   0.992E-01    0.833E+00
DAV:  17    -0.131827315142E+03    0.23646E+00   -0.55490E-01  3315   0.195E+00    0.639E+00
DAV:  18    -0.131903123323E+03   -0.75808E-01   -0.37191E-02  3010   0.796E-01    0.668E+00
DAV:  19    -0.131942081633E+03   -0.38958E-01   -0.15642E-02  3190   0.558E-01    0.689E+00
DAV:  20    -0.131774101842E+03    0.16798E+00   -0.58623E-02  3055   0.943E-01    0.613E+00
DAV:  21    -0.131733802035E+03    0.40300E-01   -0.74969E-03  3250   0.300E-01    0.591E+00
DAV:  22    -0.131717087799E+03    0.16714E-01   -0.20611E-03  3055   0.162E-01    0.587E+00
DAV:  23    -0.131497425757E+03    0.21966E+00   -0.15915E-01  3000   0.126E+00    0.457E+00
DAV:  24    -0.131454812714E+03    0.42613E-01   -0.11368E-02  3300   0.348E-01    0.427E+00
DAV:  25    -0.131457427453E+03   -0.26147E-02   -0.30339E-04  3125   0.611E-02    0.429E+00
DAV:  26    -0.131446352317E+03    0.11075E-01   -0.68420E-04  3070   0.135E-01    0.423E+00
DAV:  27    -0.131247728316E+03    0.19862E+00   -0.23038E-01  3060   0.169E+00    0.274E+00
DAV:  28    -0.131189178688E+03    0.58550E-01   -0.55489E-02  3180   0.815E-01    0.215E+00
DAV:  29    -0.131162337166E+03    0.26842E-01   -0.14993E-02  3030   0.411E-01    0.182E+00
DAV:  30    -0.131121293890E+03    0.41043E-01   -0.65745E-02  2980   0.828E-01    0.115E+00
DAV:  31    -0.131111814355E+03    0.94795E-02   -0.13055E-02  3190   0.370E-01    0.810E-01
DAV:  32    -0.131102770585E+03    0.90438E-02   -0.72728E-02  2900   0.852E-01    0.287E-01
DAV:  33    -0.131103175901E+03   -0.40532E-03   -0.28269E-03  3340   0.183E-01    0.330E-01
DAV:  34    -0.131104689019E+03   -0.15131E-02   -0.29926E-03  2965   0.169E-01    0.455E-01
DAV:  35    -0.131103697875E+03    0.99114E-03   -0.11215E-03  3280   0.121E-01    0.403E-01
DAV:  36    -0.131104500463E+03   -0.80259E-03   -0.11618E-03  2975   0.108E-01    0.460E-01
DAV:  37    -0.131104058280E+03    0.44218E-03   -0.16495E-04  3030   0.455E-02    0.428E-01
DAV:  38    -0.131103264853E+03    0.79343E-03   -0.45706E-04  3095   0.917E-02    0.385E-01
DAV:  39    -0.131102550183E+03    0.71467E-03   -0.11917E-03  2930   0.125E-01    0.392E-01
DAV:  40    -0.131102123335E+03    0.42685E-03   -0.29687E-04  2985   0.630E-02    0.392E-01
DAV:  41    -0.131101234737E+03    0.88860E-03   -0.18818E-03  3000   0.147E-01    0.282E-01
DAV:  42    -0.131099538206E+03    0.16965E-02   -0.43430E-03  3030   0.207E-01    0.160E-01
DAV:  43    -0.131099260834E+03    0.27737E-03   -0.78612E-04  3025   0.850E-02    0.148E-01
DAV:  44    -0.131099103952E+03    0.15688E-03   -0.11161E-03  3015   0.102E-01    0.147E-01
DAV:  45    -0.131099045163E+03    0.58789E-04   -0.48740E-04  3110   0.702E-02    0.121E-01
DAV:  46    -0.131099100916E+03   -0.55754E-04   -0.34043E-04  2900   0.592E-02    0.132E-01
DAV:  47    -0.131099090832E+03    0.10085E-04   -0.13275E-04  3030   0.377E-02    0.151E-01
DAV:  48    -0.131099048176E+03    0.42656E-04   -0.31762E-05  2195   0.265E-02    0.136E-01
DAV:  49    -0.131098935684E+03    0.11249E-03   -0.18061E-04  3015   0.437E-02    0.996E-02
DAV:  50    -0.131098855943E+03    0.79740E-04   -0.59555E-05  2970   0.256E-02    0.825E-02
DAV:  51    -0.131098775449E+03    0.80494E-04   -0.25204E-04  2975   0.546E-02    0.502E-02
DAV:  52    -0.131098730994E+03    0.44455E-04   -0.20721E-04  3060   0.453E-02    0.313E-02
DAV:  53    -0.131098727821E+03    0.31732E-05   -0.16816E-05  2100   0.167E-02
   4 F= -.13109873E+03 E0= -.13108929E+03  d E =0.332096E+01
       N       E                     dE             d eps       ncg     rms          rms(c)
DAV:   1    -0.138905711251E+03   -0.78070E+01   -0.78941E+02  2975   0.119E+02    0.197E+01
DAV:   2    -0.151325869733E+03   -0.12420E+02   -0.28146E+02  3550   0.292E+01    0.178E+01
DAV:   3    -0.142049979231E+03    0.92759E+01   -0.13933E+01  3185   0.118E+01    0.100E+01
DAV:   4    -0.137783342203E+03    0.42666E+01   -0.94929E+00  3345   0.158E+01    0.175E+01
DAV:   5    -0.138442586593E+03   -0.65924E+00   -0.77035E+01  3285   0.893E+00    0.659E+00
DAV:   6    -0.138453306628E+03   -0.10720E-01   -0.24696E+00  3380   0.439E+00    0.504E+00
DAV:   7    -0.137852841761E+03    0.60046E+00   -0.34619E-01  3175   0.210E+00    0.523E+00
DAV:   8    -0.137285450288E+03    0.56739E+00   -0.33790E-01  4090   0.229E+00    0.534E+00
DAV:   9    -0.136677126200E+03    0.60832E+00   -0.86476E-02  3970   0.206E+00    0.515E+00
DAV:  10    -0.136078069843E+03    0.59906E+00   -0.38594E-02  3920   0.216E+00    0.502E+00
DAV:  11    -0.136227929587E+03   -0.14986E+00   -0.23415E-02  3130   0.718E-01    0.497E+00
DAV:  12    -0.135765213015E+03    0.46272E+00   -0.35738E-01  4305   0.193E+00    0.346E+00
DAV:  13    -0.135621311301E+03    0.14390E+00   -0.32172E-01  3675   0.128E+00    0.195E+00
DAV:  14    -0.135612347328E+03    0.89640E-02   -0.16650E-02  3025   0.504E-01    0.176E+00
DAV:  15    -0.135592608654E+03    0.19739E-01   -0.15206E-02  3105   0.413E-01    0.156E+00
DAV:  16    -0.135566365010E+03    0.26244E-01   -0.58359E-02  3645   0.120E+00    0.165E+00
DAV:  17    -0.135547562437E+03    0.18803E-01   -0.29812E-02  3310   0.690E-01    0.119E+00
DAV:  18    -0.135543274660E+03    0.42878E-02   -0.42880E-03  2955   0.273E-01    0.883E-01
DAV:  19    -0.135562662873E+03   -0.19388E-01   -0.42373E-03  3695   0.421E-01    0.196E+00
DAV:  20    -0.135561019127E+03    0.16437E-02   -0.77063E-04  2920   0.977E-02    0.192E+00
DAV:  21    -0.135561172046E+03   -0.15292E-03   -0.24207E-05  2485   0.178E-02    0.193E+00
DAV:  22    -0.135566588863E+03   -0.54168E-02   -0.54664E-04  2995   0.678E-02    0.212E+00
DAV:  23    -0.135537627944E+03    0.28961E-01   -0.19415E-02  3285   0.479E-01    0.701E-01
DAV:  24    -0.135548760375E+03   -0.11132E-01   -0.10404E-02  3470   0.734E-01    0.151E+00
DAV:  25    -0.135539504037E+03    0.92563E-02   -0.83061E-03  3165   0.355E-01    0.597E-01
DAV:  26    -0.135538976704E+03    0.52733E-03   -0.24528E-03  2960   0.186E-01    0.462E-01
DAV:  27    -0.135538378143E+03    0.59856E-03   -0.10153E-03  3280   0.221E-01    0.789E-01
DAV:  28    -0.135537727213E+03    0.65093E-03   -0.18964E-03  3235   0.184E-01    0.521E-01
DAV:  29    -0.135534096906E+03    0.36303E-02   -0.28758E-03  2985   0.355E-01    0.396E-01
DAV:  30    -0.135540407265E+03   -0.63104E-02   -0.15454E-02  3265   0.491E-01    0.114E+00
DAV:  31    -0.135535572028E+03    0.48352E-02   -0.26754E-03  2935   0.200E-01    0.794E-01
DAV:  32    -0.135533993772E+03    0.15783E-02   -0.16530E-03  3635   0.315E-01    0.616E-01
DAV:  33    -0.135533878364E+03    0.11541E-03   -0.54127E-03  3420   0.489E-01    0.376E-01
DAV:  34    -0.135535781921E+03   -0.19036E-02   -0.71410E-03  2975   0.276E-01    0.771E-01
DAV:  35    -0.135535129223E+03    0.65270E-03   -0.59817E-04  3070   0.197E-01    0.911E-01
DAV:  36    -0.135531670184E+03    0.34590E-02   -0.19789E-03  3600   0.255E-01    0.547E-01
DAV:  37    -0.135530681349E+03    0.98884E-03   -0.23333E-03  2850   0.220E-01    0.168E-01
DAV:  38    -0.135530421414E+03    0.25994E-03   -0.46613E-04  3140   0.100E-01    0.195E-01
DAV:  39    -0.135530006319E+03    0.41509E-03   -0.80785E-04  3910   0.281E-01    0.440E-01
DAV:  40    -0.135528989155E+03    0.10172E-02   -0.27020E-03  3320   0.287E-01    0.198E-01
DAV:  41    -0.135530579562E+03   -0.15904E-02   -0.81600E-04  3015   0.134E-01    0.653E-01
DAV:  42    -0.135529015286E+03    0.15643E-02   -0.40171E-04  3035   0.772E-02    0.367E-01
DAV:  43    -0.135528368954E+03    0.64633E-03   -0.23184E-04  3035   0.624E-02    0.133E-01
DAV:  44    -0.135528832061E+03   -0.46311E-03   -0.38499E-04  3235   0.108E-01    0.361E-01
DAV:  45    -0.135528424988E+03    0.40707E-03   -0.22033E-04  3045   0.791E-02    0.224E-01
DAV:  46    -0.135528116607E+03    0.30838E-03   -0.43166E-04  3385   0.118E-01    0.111E-01
DAV:  47    -0.135528175843E+03   -0.59236E-04   -0.53788E-04  3145   0.931E-02    0.123E-01
DAV:  48    -0.135528222726E+03   -0.46883E-04   -0.18071E-04  2995   0.560E-02    0.122E-01
DAV:  49    -0.135528286545E+03   -0.63819E-04   -0.93386E-05  3030   0.374E-02    0.167E-01
DAV:  50    -0.135528255109E+03    0.31436E-04   -0.20356E-04  2855   0.722E-02    0.729E-02
DAV:  51    -0.135528346266E+03   -0.91157E-04   -0.54881E-05  2895   0.385E-02    0.484E-02
DAV:  52    -0.135528397485E+03   -0.51219E-04   -0.29422E-05  2720   0.265E-02    0.637E-02
DAV:  53    -0.135528425061E+03   -0.27576E-04   -0.33035E-05  2865   0.211E-02    0.668E-02
DAV:  54    -0.135528455013E+03   -0.29952E-04   -0.38890E-05  2795   0.256E-02    0.988E-02
DAV:  55    -0.135528437309E+03    0.17704E-04   -0.15137E-05  1975   0.216E-02    0.751E-02
DAV:  56    -0.135528483675E+03   -0.46366E-04   -0.36062E-05  2260   0.409E-02    0.111E-01
DAV:  57    -0.135528456385E+03    0.27291E-04   -0.28730E-05  2145   0.267E-02    0.577E-02
DAV:  58    -0.135528449748E+03    0.66366E-05   -0.13773E-05  2190   0.146E-02
   5 F= -.13552845E+03 E0= -.13551833E+03  d E =-.110876E+01
       N       E                     dE             d eps       ncg     rms          rms(c)
DAV:   1    -0.135860124779E+03   -0.33167E+00   -0.17267E+01  2745   0.157E+01    0.188E+00
DAV:   2    -0.138088107218E+03   -0.22280E+01   -0.13234E+01  3350   0.536E+00    0.172E+01
DAV:   3    -0.135899131876E+03    0.21890E+01   -0.99370E+00  3140   0.271E+00    0.116E+00
DAV:   4    -0.135881724732E+03    0.17407E-01   -0.91274E-02  3360   0.130E+00    0.598E-01
DAV:   5    -0.135878196989E+03    0.35277E-02   -0.41155E-02  3665   0.107E+00    0.102E+00
DAV:   6    -0.135872118039E+03    0.60789E-02   -0.16626E-02  3260   0.516E-01    0.233E-01
DAV:   7    -0.135871505433E+03    0.61261E-03   -0.65302E-03  3050   0.357E-01    0.142E-01
DAV:   8    -0.135871247303E+03    0.25813E-03   -0.16709E-03  3420   0.182E-01    0.118E-01
DAV:   9    -0.135871199768E+03    0.47534E-04   -0.38661E-04  3015   0.792E-02    0.474E-02
DAV:  10    -0.135871188417E+03    0.11352E-04   -0.12366E-04  3000   0.464E-02    0.293E-02
DAV:  11    -0.135871186323E+03    0.20943E-05   -0.21997E-05  2045   0.278E-02
   6 F= -.13587119E+03 E0= -.13586181E+03  d E =-.342737E+00
       N       E                     dE             d eps       ncg     rms          rms(c)
DAV:   1    -0.136117523205E+03   -0.24633E+00   -0.15874E+02  2745   0.479E+01    0.529E+00
DAV:   2    -0.146487830016E+03   -0.10370E+02   -0.58085E+01  3305   0.173E+01    0.280E+01
DAV:   3    -0.136740836754E+03    0.97470E+01   -0.50978E+01  3070   0.590E+00    0.378E+00
DAV:   4    -0.136534580144E+03    0.20626E+00   -0.63351E-01  3135   0.333E+00    0.232E+00
DAV:   5    -0.136473953550E+03    0.60627E-01   -0.15991E-01  3145   0.167E+00    0.129E+00
DAV:   6    -0.136444226103E+03    0.29727E-01   -0.97076E-02  3310   0.126E+00    0.901E-01
DAV:   7    -0.136438507285E+03    0.57188E-02   -0.93971E-02  3630   0.124E+00    0.868E-01
DAV:   8    -0.136432442605E+03    0.60647E-02   -0.19700E-02  3130   0.506E-01    0.379E-01
DAV:   9    -0.136431067913E+03    0.13747E-02   -0.11147E-02  3250   0.405E-01    0.355E-01
DAV:  10    -0.136429810685E+03    0.12572E-02   -0.28687E-03  3125   0.278E-01    0.194E-01
DAV:  11    -0.136429090257E+03    0.72043E-03   -0.13453E-03  3430   0.229E-01    0.835E-02
DAV:  12    -0.136428364144E+03    0.72611E-03   -0.96054E-04  3405   0.309E-01    0.112E-01
DAV:  13    -0.136428149227E+03    0.21492E-03   -0.68595E-04  3115   0.136E-01    0.286E-02
DAV:  14    -0.136427974954E+03    0.17427E-03   -0.25427E-04  4090   0.149E-01    0.284E-02
DAV:  15    -0.136427847810E+03    0.12714E-03   -0.30332E-04  3430   0.155E-01    0.181E-02
DAV:  16    -0.136427819048E+03    0.28762E-04   -0.25016E-04  3165   0.120E-01    0.144E-02
DAV:  17    -0.136427827960E+03   -0.89125E-05   -0.15935E-04  3060   0.455E-02    0.180E-02
DAV:  18    -0.136427824946E+03    0.30148E-05   -0.68526E-06  1880   0.107E-02
   7 F= -.13642782E+03 E0= -.13641993E+03  d E =-.899375E+00
       N       E                     dE             d eps       ncg     rms          rms(c)
DAV:   1    -0.136425074354E+03    0.27536E-02   -0.14876E+01  2745   0.137E+01    0.195E+00
DAV:   2    -0.137596071284E+03   -0.11710E+01   -0.12488E+01  3475   0.504E+00    0.618E+00
DAV:   3    -0.136506204160E+03    0.10899E+01   -0.30126E-01  3730   0.438E+00    0.328E+00
DAV:   4    -0.136444958943E+03    0.61245E-01   -0.32254E-01  3115   0.143E+00    0.109E+00
DAV:   5    -0.136431782548E+03    0.13176E-01   -0.35814E-02  3305   0.886E-01    0.492E-01
DAV:   6    -0.136433980411E+03   -0.21979E-02   -0.30797E-02  3145   0.607E-01    0.130E+00
DAV:   7    -0.136428327029E+03    0.56534E-02   -0.43484E-02  3205   0.492E-01    0.428E-01
DAV:   8    -0.136425707269E+03    0.26198E-02   -0.36611E-03  3230   0.257E-01    0.159E-01
DAV:   9    -0.136425252040E+03    0.45523E-03   -0.67383E-04  3185   0.129E-01    0.503E-02
DAV:  10    -0.136425419159E+03   -0.16712E-03   -0.36702E-04  3220   0.112E-01    0.215E-01
DAV:  11    -0.136425118559E+03    0.30060E-03   -0.38403E-04  3015   0.886E-02    0.424E-02
DAV:  12    -0.136425122595E+03   -0.40360E-05   -0.91741E-05  2995   0.405E-02
   8 F= -.13642512E+03 E0= -.13641703E+03  d E =-.896673E+00
       N       E                     dE             d eps       ncg     rms          rms(c)
DAV:   1    -0.136454429098E+03   -0.29311E-01   -0.31136E+00  2735   0.655E+00    0.754E-01
DAV:   2    -0.136805016368E+03   -0.35059E+00   -0.21108E+00  3285   0.216E+00    0.796E+00
DAV:   3    -0.136450133042E+03    0.35488E+00   -0.23778E+00  3190   0.113E+00    0.486E-01
DAV:   4    -0.136457030590E+03   -0.68975E-02   -0.15517E-02  3155   0.455E-01    0.254E-01
DAV:   5    -0.136456655636E+03    0.37495E-03   -0.37487E-03  3345   0.300E-01    0.187E-01
DAV:   6    -0.136456143015E+03    0.51262E-03   -0.19550E-03  3455   0.197E-01    0.691E-02
DAV:   7    -0.136456089673E+03    0.53342E-04   -0.58582E-04  3035   0.100E-01    0.307E-02
DAV:   8    -0.136456055026E+03    0.34647E-04   -0.87638E-05  3145   0.450E-02    0.241E-02
DAV:   9    -0.136456041972E+03    0.13054E-04   -0.20889E-05  2550   0.270E-02    0.147E-02
DAV:  10    -0.136456031961E+03    0.10011E-04   -0.16878E-05  2115   0.273E-02    0.553E-03
DAV:  11    -0.136456031281E+03    0.68088E-06   -0.10170E-05  1785   0.184E-02
   9 F= -.13645603E+03 E0= -.13644824E+03  d E =-.927582E+00
       N       E                     dE             d eps       ncg     rms          rms(c)
DAV:   1    -0.136730464736E+03   -0.27443E+00   -0.15880E+01  2845   0.163E+01    0.141E+00
DAV:   2    -0.136876019599E+03   -0.14555E+00   -0.10714E+00  3050   0.255E+00    0.393E+00
DAV:   3    -0.136763202464E+03    0.11282E+00   -0.15170E+00  3515   0.171E+00    0.209E+00
DAV:   4    -0.136740397871E+03    0.22805E-01   -0.13424E-01  3205   0.916E-01    0.771E-01
DAV:   5    -0.136732672364E+03    0.77255E-02   -0.24391E-02  3480   0.662E-01    0.363E-01
DAV:   6    -0.136730661319E+03    0.20110E-02   -0.80841E-03  3235   0.417E-01    0.251E-01
DAV:   7    -0.136729139894E+03    0.15214E-02   -0.23995E-03  3275   0.338E-01    0.836E-02
DAV:   8    -0.136728747454E+03    0.39244E-03   -0.12978E-03  3125   0.223E-01    0.634E-02
DAV:   9    -0.136728460334E+03    0.28712E-03   -0.42202E-04  3310   0.159E-01    0.484E-02
DAV:  10    -0.136728214020E+03    0.24631E-03   -0.13956E-04  4360   0.135E-01    0.272E-02
DAV:  11    -0.136727927128E+03    0.28689E-03   -0.25292E-04  3485   0.200E-01    0.214E-02
DAV:  12    -0.136727830865E+03    0.96263E-04   -0.23064E-04  3420   0.137E-01    0.211E-02
DAV:  13    -0.136727801656E+03    0.29209E-04   -0.20293E-04  3425   0.113E-01    0.166E-02
DAV:  14    -0.136727782326E+03    0.19330E-04   -0.40170E-05  2940   0.859E-02    0.133E-02
DAV:  15    -0.136727777040E+03    0.52861E-05   -0.48956E-05  2995   0.888E-02
  10 F= -.13672778E+03 E0= -.13672051E+03  d E =-.271746E+00
       N       E                     dE             d eps       ncg     rms          rms(c)
DAV:   1    -0.136924618694E+03   -0.19684E+00   -0.35937E+01  2825   0.249E+01    0.227E+00
DAV:   2    -0.137469554779E+03   -0.54494E+00   -0.35511E+00  3090   0.432E+00    0.544E+00
DAV:   3    -0.136987251123E+03    0.48230E+00   -0.22553E+00  3630   0.333E+00    0.224E+00
DAV:   4    -0.136955370881E+03    0.31880E-01   -0.28428E-01  3090   0.124E+00    0.175E+00
DAV:   5    -0.136927589658E+03    0.27781E-01   -0.82759E-02  3450   0.917E-01    0.535E-01
DAV:   6    -0.136920739581E+03    0.68501E-02   -0.97532E-03  3170   0.723E-01    0.441E-01
DAV:   7    -0.136915670920E+03    0.50687E-02   -0.66357E-03  3385   0.707E-01    0.348E-01
DAV:   8    -0.136913004769E+03    0.26662E-02   -0.91136E-03  3250   0.545E-01    0.189E-01
DAV:   9    -0.136912035297E+03    0.96947E-03   -0.19342E-03  3095   0.275E-01    0.172E-01
DAV:  10    -0.136910645160E+03    0.13901E-02   -0.61843E-04  3800   0.230E-01    0.563E-02
DAV:  11    -0.136907165738E+03    0.34794E-02   -0.40115E-03  3625   0.858E-01    0.105E-01
DAV:  12    -0.136907053331E+03    0.11241E-03   -0.24217E-03  3115   0.191E-01    0.795E-02
DAV:  13    -0.136906831594E+03    0.22174E-03   -0.56758E-04  3690   0.156E-01    0.470E-02
DAV:  14    -0.136906352102E+03    0.47949E-03   -0.48184E-04  4305   0.295E-01    0.459E-02
DAV:  15    -0.136906009104E+03    0.34300E-03   -0.65100E-04  3385   0.300E-01    0.454E-02
DAV:  16    -0.136905916898E+03    0.92206E-04   -0.59805E-04  3115   0.185E-01    0.149E-02
DAV:  17    -0.136905968463E+03   -0.51565E-04   -0.28987E-04  2985   0.847E-02    0.138E-02
DAV:  18    -0.136905959809E+03    0.86544E-05   -0.51568E-05  2945   0.692E-02
  11 F= -.13690596E+03 E0= -.13689804E+03  d E =-.449929E+00
       N       E                     dE             d eps       ncg     rms          rms(c)
DAV:   1    -0.137154175523E+03   -0.24821E+00   -0.17587E+01  2865   0.179E+01    0.264E+00
DAV:   2    -0.138548945717E+03   -0.13948E+01   -0.11262E+01  3505   0.514E+00    0.630E+00
DAV:   3    -0.137167767143E+03    0.13812E+01   -0.48009E-01  3880   0.490E+00    0.268E+00
DAV:   4    -0.137266238023E+03   -0.98471E-01   -0.16061E+00  3245   0.220E+00    0.470E+00
DAV:   5    -0.137124311683E+03    0.14193E+00   -0.87427E-01  3395   0.134E+00    0.104E+00
DAV:   6    -0.137131141187E+03   -0.68295E-02   -0.23543E-02  3070   0.685E-01    0.151E+00
DAV:   7    -0.137122174405E+03    0.89668E-02   -0.81079E-02  3325   0.573E-01    0.118E+00
DAV:   8    -0.137118044483E+03    0.41299E-02   -0.45329E-02  3050   0.385E-01    0.940E-01
DAV:   9    -0.137113399630E+03    0.46449E-02   -0.16659E-03  3040   0.152E-01    0.447E-01
DAV:  10    -0.137112832561E+03    0.56707E-03   -0.51571E-04  3125   0.769E-02    0.292E-01
DAV:  11    -0.137112625797E+03    0.20676E-03   -0.10077E-03  3660   0.117E-01    0.228E-01
DAV:  12    -0.137112404312E+03    0.22148E-03   -0.14050E-04  2965   0.765E-02    0.103E-01
DAV:  13    -0.137112319964E+03    0.84347E-04   -0.82805E-05  3070   0.524E-02    0.274E-02
DAV:  14    -0.137112328566E+03   -0.86011E-05   -0.24667E-05  2305   0.341E-02
  12 F= -.13711233E+03 E0= -.13710369E+03  d E =-.206369E+00
       N       E                     dE             d eps       ncg     rms          rms(c)
DAV:   1    -0.137230376564E+03   -0.11806E+00   -0.25528E+01  2840   0.216E+01    0.308E+00
DAV:   2    -0.138886911941E+03   -0.16565E+01   -0.14365E+01  3485   0.601E+00    0.659E+00
DAV:   3    -0.137247603022E+03    0.16393E+01   -0.49329E-01  3620   0.554E+00    0.331E+00
DAV:   4    -0.137862442649E+03   -0.61484E+00   -0.63055E+00  3380   0.319E+00    0.114E+01
DAV:   5    -0.137178995989E+03    0.68345E+00   -0.69204E+00  3260   0.188E+00    0.116E+00
DAV:   6    -0.137477454795E+03   -0.29846E+00   -0.57614E-01  3530   0.161E+00    0.488E+00
DAV:   7    -0.137185564880E+03    0.29189E+00   -0.33679E-01  3190   0.126E+00    0.130E+00
DAV:   8    -0.137208626397E+03   -0.23062E-01   -0.83189E-03  2950   0.394E-01    0.220E+00
DAV:   9    -0.137190650276E+03    0.17976E-01   -0.35411E-03  3290   0.213E-01    0.156E+00
DAV:  10    -0.137174672732E+03    0.15978E-01   -0.36601E-02  3660   0.304E-01    0.484E-01
DAV:  11    -0.137174145256E+03    0.52748E-03   -0.14491E-03  3080   0.127E-01    0.280E-01
DAV:  12    -0.137173795917E+03    0.34934E-03   -0.48730E-04  3465   0.891E-02    0.181E-01
DAV:  13    -0.137173590128E+03    0.20579E-03   -0.61751E-04  3620   0.130E-01    0.158E-01
DAV:  14    -0.137173412086E+03    0.17804E-03   -0.47517E-04  3215   0.848E-02    0.439E-02
DAV:  15    -0.137173470623E+03   -0.58537E-04   -0.17620E-04  2905   0.520E-02    0.617E-02
DAV:  16    -0.137173481988E+03   -0.11365E-04   -0.37008E-05  2150   0.288E-02    0.882E-02
DAV:  17    -0.137173470753E+03    0.11235E-04   -0.27751E-05  2195   0.249E-02    0.793E-02
DAV:  18    -0.137173410994E+03    0.59759E-04   -0.29210E-05  2470   0.563E-02    0.501E-02
DAV:  19    -0.137173391495E+03    0.19499E-04   -0.26487E-05  2415   0.337E-02    0.290E-02
DAV:  20    -0.137173396014E+03   -0.45188E-05   -0.20722E-05  2175   0.319E-02
  13 F= -.13717340E+03 E0= -.13716553E+03  d E =-.267436E+00
       N       E                     dE             d eps       ncg     rms          rms(c)
DAV:   1    -0.137178637871E+03   -0.52464E-02   -0.88774E-01  2855   0.407E+00    0.470E-01
DAV:   2    -0.137243887299E+03   -0.65249E-01   -0.29581E-01  3160   0.947E-01    0.350E+00
DAV:   3    -0.137175193468E+03    0.68694E-01   -0.30991E-01  3245   0.644E-01    0.371E-01
DAV:   4    -0.137177054343E+03   -0.18609E-02   -0.27496E-03  2970   0.240E-01    0.951E-02
DAV:   5    -0.137177022126E+03    0.32218E-04   -0.15256E-03  3135   0.167E-01    0.712E-02
DAV:   6    -0.137176980228E+03    0.41898E-04   -0.77204E-04  3345   0.940E-02    0.389E-02
DAV:   7    -0.137176965976E+03    0.14252E-04   -0.10424E-04  3025   0.390E-02    0.245E-02
DAV:   8    -0.137176973600E+03   -0.76241E-05   -0.12804E-05  1935   0.208E-02
  14 F= -.13717697E+03 E0= -.13716923E+03  d E =-.271014E+00
       N       E                     dE             d eps       ncg     rms          rms(c)
DAV:   1    -0.137247034869E+03   -0.70069E-01   -0.57477E+00  2810   0.988E+00    0.112E+00
DAV:   2    -0.137801670994E+03   -0.55464E+00   -0.24264E+00  3405   0.263E+00    0.556E+00
DAV:   3    -0.137253700047E+03    0.54797E+00   -0.76959E-01  3540   0.227E+00    0.107E+00
DAV:   4    -0.137246877941E+03    0.68221E-02   -0.89007E-02  3140   0.776E-01    0.322E-01
DAV:   5    -0.137246095866E+03    0.78207E-03   -0.80196E-03  3030   0.346E-01    0.239E-01
DAV:   6    -0.137245429063E+03    0.66680E-03   -0.24102E-03  3290   0.198E-01    0.791E-02
DAV:   7    -0.137245231598E+03    0.19746E-03   -0.10149E-03  3265   0.168E-01    0.105E-01
DAV:   8    -0.137245117009E+03    0.11459E-03   -0.41087E-04  3020   0.900E-02    0.305E-02
DAV:   9    -0.137245084684E+03    0.32325E-04   -0.47145E-05  2885   0.382E-02    0.232E-02
DAV:  10    -0.137244990082E+03    0.94603E-04   -0.68975E-05  3275   0.913E-02    0.249E-02
DAV:  11    -0.137244949261E+03    0.40821E-04   -0.45178E-05  2795   0.561E-02    0.160E-02
DAV:  12    -0.137244908244E+03    0.41017E-04   -0.50295E-05  3095   0.830E-02    0.108E-02
DAV:  13    -0.137244879717E+03    0.28527E-04   -0.48904E-05  3055   0.858E-02    0.889E-03
DAV:  14    -0.137244859581E+03    0.20136E-04   -0.58114E-05  3055   0.112E-01    0.113E-02
DAV:  15    -0.137244864857E+03   -0.52765E-05   -0.95713E-05  2775   0.552E-02
  15 F= -.13724486E+03 E0= -.13723671E+03  d E =-.678913E-01
       N       E                     dE             d eps       ncg     rms          rms(c)
DAV:   1    -0.137335158505E+03   -0.90299E-01   -0.25942E+01  2785   0.210E+01    0.285E+00
DAV:   2    -0.139541142043E+03   -0.22060E+01   -0.20118E+01  3605   0.658E+00    0.726E+00
DAV:   3    -0.137625273287E+03    0.19159E+01   -0.63282E-01  3630   0.618E+00    0.554E+00
DAV:   4    -0.137336952278E+03    0.28832E+00   -0.15452E+00  3145   0.237E+00    0.104E+00
DAV:   5    -0.137375573505E+03   -0.38621E-01   -0.21423E-01  3270   0.102E+00    0.291E+00
DAV:   6    -0.137341564492E+03    0.34009E-01   -0.48272E-02  3300   0.508E-01    0.149E+00
DAV:   7    -0.137331069542E+03    0.10495E-01   -0.11925E-01  3415   0.686E-01    0.122E+00
DAV:   8    -0.137328243971E+03    0.28256E-02   -0.53217E-03  2955   0.315E-01    0.113E+00
DAV:   9    -0.137318835684E+03    0.94083E-02   -0.14075E-02  3355   0.409E-01    0.290E-01
DAV:  10    -0.137324503026E+03   -0.56673E-02   -0.81823E-03  3465   0.341E-01    0.992E-01
DAV:  11    -0.137318061574E+03    0.64415E-02   -0.62767E-03  3095   0.213E-01    0.130E-01
DAV:  12    -0.137318536315E+03   -0.47474E-03   -0.46789E-04  2960   0.106E-01    0.268E-01
DAV:  13    -0.137317950219E+03    0.58610E-03   -0.33050E-04  3410   0.151E-01    0.143E-01
DAV:  14    -0.137317614491E+03    0.33573E-03   -0.35876E-04  3695   0.187E-01    0.114E-01
DAV:  15    -0.137317394911E+03    0.21958E-03   -0.25451E-04  3785   0.196E-01    0.137E-01
DAV:  16    -0.137317250548E+03    0.14436E-03   -0.43205E-04  3735   0.188E-01    0.141E-01
DAV:  17    -0.137317106349E+03    0.14420E-03   -0.20098E-04  3380   0.160E-01    0.136E-02
DAV:  18    -0.137317217348E+03   -0.11100E-03   -0.18007E-04  3635   0.146E-01    0.158E-01
DAV:  19    -0.137317079618E+03    0.13773E-03   -0.21412E-04  2995   0.709E-02    0.209E-02
DAV:  20    -0.137317110340E+03   -0.30722E-04   -0.26628E-05  2455   0.236E-02    0.258E-02
DAV:  21    -0.137317105450E+03    0.48895E-05   -0.96708E-06  1775   0.190E-02
  16 F= -.13731711E+03 E0= -.13730741E+03  d E =-.140132E+00
       N       E                     dE             d eps       ncg     rms          rms(c)
DAV:   1    -0.137323012719E+03   -0.59024E-02   -0.21709E+00  2830   0.603E+00    0.913E-01
DAV:   2    -0.137871224568E+03   -0.54821E+00   -0.23789E+00  3575   0.224E+00    0.580E+00
DAV:   3    -0.137322764723E+03    0.54846E+00   -0.74328E-01  3725   0.215E+00    0.938E-01
DAV:   4    -0.137321396135E+03    0.13686E-02   -0.20014E-02  3275   0.447E-01    0.305E-01
DAV:   5    -0.137321119456E+03    0.27668E-03   -0.18789E-03  3150   0.192E-01    0.107E-01
DAV:   6    -0.137321131001E+03   -0.11546E-04   -0.10049E-03  3215   0.162E-01    0.723E-02
DAV:   7    -0.137321092330E+03    0.38671E-04   -0.55229E-04  3245   0.110E-01    0.275E-02
DAV:   8    -0.137321067370E+03    0.24961E-04   -0.96034E-05  3125   0.527E-02    0.401E-02
DAV:   9    -0.137321036536E+03    0.30834E-04   -0.15124E-05  2020   0.335E-02    0.168E-02
DAV:  10    -0.137320999229E+03    0.37307E-04   -0.22909E-05  2405   0.596E-02    0.885E-03
DAV:  11    -0.137320977751E+03    0.21479E-04   -0.25750E-05  2615   0.551E-02    0.130E-02
DAV:  12    -0.137320952403E+03    0.25347E-04   -0.24175E-05  2535   0.792E-02    0.560E-03
DAV:  13    -0.137320944722E+03    0.76811E-05   -0.42787E-05  2880   0.629E-02
  17 F= -.13732094E+03 E0= -.13731137E+03  d E =-.143971E+00
       N       E                     dE             d eps       ncg     rms          rms(c)
DAV:   1    -0.137364985277E+03   -0.44033E-01   -0.50589E+00  2830   0.910E+00    0.954E-01
DAV:   2    -0.137559359110E+03   -0.19437E+00   -0.78625E-01  3115   0.178E+00    0.461E+00
DAV:   3    -0.137373827273E+03    0.18553E+00   -0.90986E-01  3315   0.130E+00    0.965E-01
DAV:   4    -0.137367784996E+03    0.60423E-02   -0.57350E-02  3385   0.602E-01    0.577E-01
DAV:   5    -0.137365642172E+03    0.21428E-02   -0.38507E-03  2975   0.307E-01    0.149E-01
DAV:   6    -0.137365271058E+03    0.37111E-03   -0.21843E-03  3405   0.246E-01    0.101E-01
DAV:   7    -0.137364842008E+03    0.42905E-03   -0.96105E-04  3595   0.222E-01    0.896E-02
DAV:   8    -0.137364664492E+03    0.17752E-03   -0.39719E-04  3250   0.148E-01    0.244E-02
DAV:   9    -0.137364590534E+03    0.73958E-04   -0.12748E-04  3310   0.927E-02    0.287E-02
DAV:  10    -0.137364426551E+03    0.16398E-03   -0.10847E-04  3810   0.165E-01    0.292E-02
DAV:  11    -0.137364328707E+03    0.97845E-04   -0.15280E-04  3315   0.141E-01    0.268E-02
DAV:  12    -0.137364333123E+03   -0.44165E-05   -0.14436E-04  2895   0.468E-02    0.215E-02
DAV:  13    -0.137364307169E+03    0.25954E-04   -0.14120E-05  2210   0.660E-02    0.164E-02
DAV:  14    -0.137364264514E+03    0.42655E-04   -0.15990E-04  3730   0.186E-01    0.852E-03
DAV:  15    -0.137364265226E+03   -0.71190E-06   -0.10499E-04  2815   0.618E-02    0.644E-03
DAV:  16    -0.137364263927E+03    0.12991E-05   -0.33994E-05  2660   0.324E-02
  18 F= -.13736426E+03 E0= -.13735505E+03  d E =-.433192E-01
       N       E                     dE             d eps       ncg     rms          rms(c)
DAV:   1    -0.137384394288E+03   -0.20129E-01   -0.65898E+00  2865   0.104E+01    0.121E+00
DAV:   2    -0.137686534911E+03   -0.30214E+00   -0.13151E+00  3130   0.213E+00    0.542E+00
DAV:   3    -0.137399320506E+03    0.28721E+00   -0.14812E+00  3385   0.173E+00    0.123E+00
DAV:   4    -0.137387027308E+03    0.12293E-01   -0.76496E-02  3390   0.709E-01    0.662E-01
DAV:   5    -0.137384959619E+03    0.20677E-02   -0.99405E-03  3075   0.349E-01    0.250E-01
DAV:   6    -0.137384313512E+03    0.64611E-03   -0.39865E-03  3465   0.255E-01    0.152E-01
DAV:   7    -0.137383602231E+03    0.71128E-03   -0.11779E-03  3610   0.238E-01    0.845E-02
DAV:   8    -0.137383322023E+03    0.28021E-03   -0.53413E-04  3210   0.172E-01    0.256E-02
DAV:   9    -0.137383231561E+03    0.90462E-04   -0.27424E-04  3200   0.999E-02    0.302E-02
DAV:  10    -0.137383110063E+03    0.12150E-03   -0.36538E-05  2880   0.782E-02    0.338E-02
DAV:  11    -0.137382796371E+03    0.31369E-03   -0.39590E-04  3705   0.254E-01    0.400E-02
DAV:  12    -0.137382797999E+03   -0.16280E-05   -0.25106E-04  3020   0.547E-02    0.304E-02
DAV:  13    -0.137382766604E+03    0.31395E-04   -0.17813E-05  2315   0.469E-02    0.277E-02
DAV:  14    -0.137382663869E+03    0.10273E-03   -0.38488E-04  4245   0.253E-01    0.270E-02
DAV:  15    -0.137382652231E+03    0.11638E-04   -0.22873E-04  3115   0.746E-02    0.211E-02
DAV:  16    -0.137382638956E+03    0.13275E-04   -0.11779E-04  2890   0.556E-02    0.163E-02
DAV:  17    -0.137382632113E+03    0.68428E-05   -0.11111E-05  2060   0.352E-02
  19 F= -.13738263E+03 E0= -.13737343E+03  d E =-.616874E-01
       N       E                     dE             d eps       ncg     rms          rms(c)
DAV:   1    -0.137407806990E+03   -0.25168E-01   -0.40395E+00  2890   0.857E+00    0.552E-01
DAV:   2    -0.137423212259E+03   -0.15405E-01   -0.13446E-01  2950   0.131E+00    0.120E+00
DAV:   3    -0.137427039024E+03   -0.38268E-02   -0.13963E-01  3295   0.444E-01    0.128E+00
DAV:   4    -0.137412804501E+03    0.14235E-01   -0.13262E-02  3185   0.365E-01    0.196E-01
DAV:   5    -0.137413071089E+03   -0.26659E-03   -0.24264E-03  3190   0.216E-01    0.185E-01
DAV:   6    -0.137412931300E+03    0.13979E-03   -0.17162E-03  3210   0.143E-01    0.144E-01
DAV:   7    -0.137412823063E+03    0.10824E-03   -0.89408E-04  3015   0.961E-02    0.870E-02
DAV:   8    -0.137412769055E+03    0.54008E-04   -0.57724E-05  3000   0.480E-02    0.117E-02
DAV:   9    -0.137412758539E+03    0.10516E-04   -0.12393E-05  1990   0.323E-02    0.672E-03
DAV:  10    -0.137412750199E+03    0.83395E-05   -0.99424E-06  1965   0.341E-02
  20 F= -.13741275E+03 E0= -.13740355E+03  d E =-.301181E-01
       N       E                     dE             d eps       ncg     rms          rms(c)
DAV:   1    -0.137399829682E+03    0.12929E-01   -0.19668E+01  2890   0.189E+01    0.130E+00
DAV:   2    -0.137487846852E+03   -0.88017E-01   -0.80741E-01  2955   0.298E+00    0.260E+00
DAV:   3    -0.137548295696E+03   -0.60449E-01   -0.12007E+00  3510   0.130E+00    0.469E+00
DAV:   4    -0.137423048812E+03    0.12525E+00   -0.50070E-01  3205   0.893E-01    0.533E-01
DAV:   5    -0.137427044563E+03   -0.39958E-02   -0.88134E-03  3030   0.454E-01    0.414E-01
DAV:   6    -0.137425478476E+03    0.15661E-02   -0.52596E-03  3165   0.360E-01    0.114E-01
DAV:   7    -0.137425135961E+03    0.34251E-03   -0.29973E-03  3180   0.227E-01    0.520E-02
DAV:   8    -0.137425028152E+03    0.10781E-03   -0.31194E-04  3030   0.923E-02    0.466E-02
DAV:   9    -0.137424962416E+03    0.65737E-04   -0.86180E-05  3190   0.696E-02    0.211E-02
DAV:  10    -0.137424929546E+03    0.32869E-04   -0.43172E-05  2705   0.548E-02    0.128E-02
DAV:  11    -0.137424889903E+03    0.39643E-04   -0.48193E-05  3145   0.845E-02    0.136E-02
DAV:  12    -0.137424871049E+03    0.18855E-04   -0.48477E-05  2870   0.577E-02    0.124E-02
DAV:  13    -0.137424862779E+03    0.82700E-05   -0.25733E-05  2465   0.450E-02
  21 F= -.13742486E+03 E0= -.13741646E+03  d E =-.422307E-01
       N       E                     dE             d eps       ncg     rms          rms(c)
DAV:   1    -0.137426050972E+03   -0.11799E-02   -0.20180E+00  2900   0.610E+00    0.366E-01
DAV:   2    -0.137434264500E+03   -0.82135E-02   -0.66473E-02  2960   0.936E-01    0.843E-01
DAV:   3    -0.137435592462E+03   -0.13280E-02   -0.46299E-02  3230   0.305E-01    0.100E+00
DAV:   4    -0.137428931095E+03    0.66614E-02   -0.65802E-03  3385   0.313E-01    0.179E-01
DAV:   5    -0.137428983037E+03   -0.51943E-04   -0.13471E-03  2970   0.149E-01    0.916E-02
DAV:   6    -0.137428872093E+03    0.11094E-03   -0.39580E-04  3075   0.988E-02    0.616E-02
DAV:   7    -0.137428816734E+03    0.55359E-04   -0.14187E-04  3165   0.787E-02    0.183E-02
DAV:   8    -0.137428811766E+03    0.49687E-05   -0.87130E-05  3020   0.447E-02
  22 F= -.13742881E+03 E0= -.13742013E+03  d E =-.461797E-01
       N       E                     dE             d eps       ncg     rms          rms(c)
DAV:   1    -0.137454613143E+03   -0.25796E-01   -0.37912E+00  2745   0.821E+00    0.632E-01
DAV:   2    -0.137745886655E+03   -0.29127E+00   -0.18969E+00  3095   0.184E+00    0.617E+00
DAV:   3    -0.137450701600E+03    0.29519E+00   -0.89316E-01  3095   0.106E+00    0.291E-01
DAV:   4    -0.137458016319E+03   -0.73147E-02   -0.96623E-03  3015   0.395E-01    0.215E-01
DAV:   5    -0.137458313594E+03   -0.29728E-03   -0.30844E-03  3285   0.223E-01    0.162E-01
DAV:   6    -0.137458001893E+03    0.31170E-03   -0.11322E-03  3320   0.159E-01    0.117E-01
DAV:   7    -0.137457818552E+03    0.18334E-03   -0.55921E-04  3340   0.124E-01    0.341E-02
DAV:   8    -0.137457803297E+03    0.15254E-04   -0.12632E-04  3045   0.602E-02    0.544E-02
DAV:   9    -0.137457765347E+03    0.37950E-04   -0.20257E-05  2205   0.329E-02    0.125E-02
DAV:  10    -0.137457740093E+03    0.25254E-04   -0.28267E-05  2415   0.490E-02    0.765E-03
DAV:  11    -0.137457734230E+03    0.58627E-05   -0.20255E-05  2350   0.299E-02
  23 F= -.13745773E+03 E0= -.13744938E+03  d E =-.289225E-01
       N       E                     dE             d eps       ncg     rms          rms(c)
DAV:   1    -0.137465176315E+03   -0.74362E-02   -0.19479E+01  2760   0.186E+01    0.128E+00
DAV:   2    -0.138459309653E+03   -0.99413E+00   -0.65388E+00  3095   0.380E+00    0.133E+01
DAV:   3    -0.137468117012E+03    0.99119E+00   -0.72960E+00  3105   0.188E+00    0.692E-01
DAV:   4    -0.137485723381E+03   -0.17606E-01   -0.37682E-02  3040   0.786E-01    0.446E-01
DAV:   5    -0.137485424715E+03    0.29867E-03   -0.13770E-02  3280   0.491E-01    0.325E-01
DAV:   6    -0.137483442238E+03    0.19825E-02   -0.51746E-03  3600   0.404E-01    0.169E-01
DAV:   7    -0.137483066776E+03    0.37546E-03   -0.23806E-03  3275   0.278E-01    0.123E-01
DAV:   8    -0.137482961638E+03    0.10514E-03   -0.65704E-04  3225   0.131E-01    0.126E-01
DAV:   9    -0.137482785555E+03    0.17608E-03   -0.86452E-05  3130   0.767E-02    0.547E-02
DAV:  10    -0.137482619600E+03    0.16596E-03   -0.25357E-04  3340   0.137E-01    0.219E-02
DAV:  11    -0.137482597779E+03    0.21821E-04   -0.11924E-04  3045   0.584E-02    0.154E-02
DAV:  12    -0.137482563045E+03    0.34733E-04   -0.70261E-05  3655   0.880E-02    0.152E-02
DAV:  13    -0.137482517178E+03    0.45868E-04   -0.65298E-05  3100   0.117E-01    0.113E-02
DAV:  14    -0.137482505818E+03    0.11360E-04   -0.87248E-05  2930   0.589E-02    0.991E-03
DAV:  15    -0.137482495872E+03    0.99458E-05   -0.23044E-05  2370   0.608E-02
  24 F= -.13748250E+03 E0= -.13747408E+03  d E =-.536841E-01
       N       E                     dE             d eps       ncg     rms          rms(c)
DAV:   1    -0.137511389477E+03   -0.28884E-01   -0.81929E+00  2740   0.121E+01    0.943E-01
DAV:   2    -0.138242516518E+03   -0.73113E+00   -0.48089E+00  3260   0.291E+00    0.121E+01
DAV:   3    -0.137500827994E+03    0.74169E+00   -0.57820E+00  3090   0.150E+00    0.908E-01
DAV:   4    -0.137519127219E+03   -0.18299E-01   -0.27180E-02  3145   0.498E-01    0.244E-01
DAV:   5    -0.137520965504E+03   -0.18383E-02   -0.45018E-03  3295   0.263E-01    0.134E-01
DAV:   6    -0.137520580877E+03    0.38463E-03   -0.12250E-03  3380   0.166E-01    0.780E-02
DAV:   7    -0.137520404431E+03    0.17645E-03   -0.41166E-04  3485   0.148E-01    0.432E-02
DAV:   8    -0.137520327702E+03    0.76729E-04   -0.30799E-04  3440   0.119E-01    0.309E-02
DAV:   9    -0.137520301863E+03    0.25839E-04   -0.12769E-04  2935   0.640E-02    0.221E-02
DAV:  10    -0.137520273024E+03    0.28840E-04   -0.15535E-05  1930   0.390E-02    0.131E-02
DAV:  11    -0.137520222798E+03    0.50226E-04   -0.37825E-05  2825   0.828E-02    0.103E-02
DAV:  12    -0.137520213044E+03    0.97538E-05   -0.32463E-05  2610   0.367E-02
  25 F= -.13752021E+03 E0= -.13751145E+03  d E =-.377172E-01
       N       E                     dE             d eps       ncg     rms          rms(c)
DAV:   1    -0.137499427200E+03    0.20796E-01   -0.37584E+01  2750   0.261E+01    0.187E+00
DAV:   2    -0.139678309298E+03   -0.21789E+01   -0.14060E+01  3250   0.586E+00    0.173E+01
DAV:   3    -0.137536650532E+03    0.21417E+01   -0.10787E+01  3135   0.248E+00    0.878E-01
DAV:   4    -0.137552904482E+03   -0.16254E-01   -0.83339E-02  3345   0.983E-01    0.561E-01
DAV:   5    -0.137549677209E+03    0.32273E-02   -0.16238E-02  3440   0.423E-01    0.269E-01
DAV:   6    -0.137548000473E+03    0.16767E-02   -0.38770E-03  3055   0.355E-01    0.202E-01
DAV:   7    -0.137547151237E+03    0.84924E-03   -0.37077E-03  3355   0.370E-01    0.131E-01
DAV:   8    -0.137546825287E+03    0.32595E-03   -0.18021E-03  3075   0.223E-01    0.845E-02
DAV:   9    -0.137546763585E+03    0.61702E-04   -0.37363E-04  3030   0.833E-02    0.586E-02
DAV:  10    -0.137546671887E+03    0.91698E-04   -0.63794E-05  3085   0.445E-02    0.539E-02
DAV:  11    -0.137546250618E+03    0.42127E-03   -0.56522E-04  3325   0.223E-01    0.453E-02
DAV:  12    -0.137546194931E+03    0.55687E-04   -0.21306E-04  3075   0.712E-02    0.384E-02
DAV:  13    -0.137546147681E+03    0.47249E-04   -0.14430E-04  2930   0.643E-02    0.168E-02
DAV:  14    -0.137546016821E+03    0.13086E-03   -0.75568E-05  3620   0.133E-01    0.128E-02
DAV:  15    -0.137545892596E+03    0.12423E-03   -0.18886E-04  3750   0.186E-01    0.130E-02
DAV:  16    -0.137545853168E+03    0.39428E-04   -0.20982E-04  3455   0.152E-01    0.172E-02
DAV:  17    -0.137545864595E+03   -0.11426E-04   -0.16648E-04  3030   0.634E-02    0.163E-02
DAV:  18    -0.137545867062E+03   -0.24674E-05   -0.40747E-05  2650   0.343E-02
  26 F= -.13754587E+03 E0= -.13753639E+03  d E =-.633712E-01
       N       E                     dE             d eps       ncg     rms          rms(c)
DAV:   1    -0.137559154864E+03   -0.13290E-01   -0.70014E+00  2795   0.111E+01    0.659E-01
DAV:   2    -0.137610893469E+03   -0.51739E-01   -0.39039E-01  3095   0.177E+00    0.269E+00
DAV:   3    -0.137570762274E+03    0.40131E-01   -0.20945E-01  3140   0.498E-01    0.657E-01
DAV:   4    -0.137569175977E+03    0.15863E-02   -0.19945E-02  3260   0.453E-01    0.260E-01
DAV:   5    -0.137568303082E+03    0.87290E-03   -0.54476E-03  3430   0.264E-01    0.157E-01
DAV:   6    -0.137567784702E+03    0.51838E-03   -0.19073E-03  3110   0.227E-01    0.779E-02
DAV:   7    -0.137567659188E+03    0.12551E-03   -0.12101E-03  3055   0.151E-01    0.810E-02
DAV:   8    -0.137567564468E+03    0.94720E-04   -0.14247E-04  3055   0.674E-02    0.342E-02
DAV:   9    -0.137567505628E+03    0.58840E-04   -0.29310E-05  2805   0.573E-02    0.287E-02
DAV:  10    -0.137567450727E+03    0.54901E-04   -0.33763E-05  2685   0.647E-02    0.150E-02
DAV:  11    -0.137567428254E+03    0.22474E-04   -0.44713E-05  2895   0.519E-02    0.164E-02
DAV:  12    -0.137567406522E+03    0.21732E-04   -0.81492E-06  1975   0.497E-02    0.775E-03
DAV:  13    -0.137567386271E+03    0.20250E-04   -0.47008E-05  3115   0.911E-02    0.626E-03
DAV:  14    -0.137567390630E+03   -0.43587E-05   -0.54629E-05  2675   0.384E-02
  27 F= -.13756739E+03 E0= -.13755792E+03  d E =-.215236E-01
       N       E                     dE             d eps       ncg     rms          rms(c)
DAV:   1    -0.137567789160E+03   -0.40289E-03   -0.47772E-01  2810   0.291E+00    0.171E-01
DAV:   2    -0.137570614347E+03   -0.28252E-02   -0.16417E-02  3080   0.458E-01    0.610E-01
DAV:   3    -0.137568846031E+03    0.17683E-02   -0.19582E-03  3160   0.142E-01    0.274E-01
DAV:   4    -0.137568424485E+03    0.42155E-03   -0.96213E-04  3160   0.118E-01    0.705E-02
DAV:   5    -0.137568410277E+03    0.14208E-04   -0.33998E-04  3335   0.676E-02    0.376E-02
DAV:   6    -0.137568377310E+03    0.32967E-04   -0.12624E-04  3110   0.577E-02    0.158E-02
DAV:   7    -0.137568366951E+03    0.10359E-04   -0.73625E-05  3010   0.368E-02    0.190E-02
DAV:   8    -0.137568360416E+03    0.65348E-05   -0.82850E-06  1765   0.193E-02
  28 F= -.13756836E+03 E0= -.13755888E+03  d E =-.224934E-01
       N       E                     dE             d eps       ncg     rms          rms(c)
DAV:   1    -0.137581447683E+03   -0.13081E-01   -0.19941E+00  2940   0.614E+00    0.303E-01
DAV:   2    -0.137620933098E+03   -0.39485E-01   -0.91160E-02  3090   0.106E+00    0.216E+00
DAV:   3    -0.137584361435E+03    0.36572E-01   -0.18639E-02  3025   0.486E-01    0.211E-01
DAV:   4    -0.137584445772E+03   -0.84336E-04   -0.42593E-03  3110   0.220E-01    0.138E-01
DAV:   5    -0.137584170284E+03    0.27549E-03   -0.56212E-04  3095   0.104E-01    0.830E-02
DAV:   6    -0.137583913897E+03    0.25639E-03   -0.39547E-04  3065   0.148E-01    0.661E-02
DAV:   7    -0.137583775676E+03    0.13822E-03   -0.40842E-04  3275   0.143E-01    0.189E-02
DAV:   8    -0.137583768384E+03    0.72924E-05   -0.22020E-04  2930   0.703E-02    0.218E-02
DAV:   9    -0.137583756555E+03    0.11829E-04   -0.19658E-05  2240   0.208E-02    0.150E-02
DAV:  10    -0.137583724910E+03    0.31645E-04   -0.41916E-05  2740   0.399E-02    0.111E-02
DAV:  11    -0.137583696325E+03    0.28585E-04   -0.45100E-05  2915   0.671E-02    0.161E-02
DAV:  12    -0.137583690490E+03    0.58350E-05   -0.40077E-05  2615   0.308E-02
  29 F= -.13758369E+03 E0= -.13757441E+03  d E =-.153301E-01
       N       E                     dE             d eps       ncg     rms          rms(c)
DAV:   1    -0.137581632110E+03    0.20642E-02   -0.96148E+00  2940   0.135E+01    0.624E-01
DAV:   2    -0.137724537370E+03   -0.14291E+00   -0.52516E-01  3090   0.228E+00    0.404E+00
DAV:   3    -0.137598024825E+03    0.12651E+00   -0.60842E-01  3220   0.104E+00    0.457E-01
DAV:   4    -0.137596355059E+03    0.16698E-02   -0.14543E-02  3215   0.451E-01    0.291E-01
DAV:   5    -0.137595304478E+03    0.10506E-02   -0.20852E-03  3035   0.203E-01    0.190E-01
DAV:   6    -0.137593790434E+03    0.15140E-02   -0.19697E-03  3085   0.334E-01    0.118E-01
DAV:   7    -0.137593159975E+03    0.63046E-03   -0.20032E-03  3225   0.308E-01    0.512E-02
DAV:   8    -0.137593067311E+03    0.92664E-04   -0.10305E-03  3195   0.163E-01    0.397E-02
DAV:   9    -0.137593004231E+03    0.63080E-04   -0.12266E-04  2995   0.572E-02    0.292E-02
DAV:  10    -0.137592854176E+03    0.15006E-03   -0.15006E-04  2930   0.885E-02    0.307E-02
DAV:  11    -0.137592720375E+03    0.13380E-03   -0.16943E-04  3510   0.137E-01    0.246E-02
DAV:  12    -0.137592687773E+03    0.32602E-04   -0.14618E-04  3015   0.755E-02    0.151E-02
DAV:  13    -0.137592662755E+03    0.25017E-04   -0.76657E-05  3525   0.733E-02    0.139E-02
DAV:  14    -0.137592624117E+03    0.38638E-04   -0.23442E-05  2485   0.780E-02    0.115E-02
DAV:  15    -0.137592593940E+03    0.30177E-04   -0.51509E-05  3145   0.930E-02    0.709E-03
DAV:  16    -0.137592579637E+03    0.14304E-04   -0.51658E-05  3000   0.823E-02    0.619E-03
DAV:  17    -0.137592583005E+03   -0.33687E-05   -0.70775E-05  2785   0.343E-02
  30 F= -.13759258E+03 E0= -.13758368E+03  d E =-.242226E-01
       N       E                     dE             d eps       ncg     rms          rms(c)
DAV:   1    -0.137592962484E+03   -0.38285E-03   -0.53159E-01  2950   0.317E+00    0.156E-01
DAV:   2    -0.137605390316E+03   -0.12428E-01   -0.50397E-02  3085   0.545E-01    0.145E+00
DAV:   3    -0.137593154257E+03    0.12236E-01   -0.22553E-02  3010   0.221E-01    0.142E-01
DAV:   4    -0.137593680115E+03   -0.52586E-03   -0.13537E-03  3025   0.112E-01    0.571E-02
DAV:   5    -0.137593650193E+03    0.29922E-04   -0.17232E-04  3080   0.594E-02    0.379E-02
DAV:   6    -0.137593578253E+03    0.71940E-04   -0.12514E-04  3075   0.847E-02    0.308E-02
DAV:   7    -0.137593555161E+03    0.23092E-04   -0.10822E-04  2990   0.609E-02    0.899E-03
DAV:   8    -0.137593549867E+03    0.52937E-05   -0.29306E-05  2550   0.277E-02
  31 F= -.13759355E+03 E0= -.13758456E+03  d E =-.251895E-01
       N       E                     dE             d eps       ncg     rms          rms(c)
DAV:   1    -0.137604365019E+03   -0.10810E-01   -0.31549E+00  2820   0.753E+00    0.491E-01
DAV:   2    -0.137734594522E+03   -0.13023E+00   -0.34375E-01  3095   0.147E+00    0.406E+00
DAV:   3    -0.137608018804E+03    0.12658E+00   -0.55700E-01  3135   0.953E-01    0.241E-01
DAV:   4    -0.137608827836E+03   -0.80903E-03   -0.98737E-03  3210   0.333E-01    0.190E-01
DAV:   5    -0.137608571701E+03    0.25613E-03   -0.91100E-04  3110   0.122E-01    0.123E-01
DAV:   6    -0.137608345514E+03    0.22619E-03   -0.54489E-04  3105   0.117E-01    0.465E-02
DAV:   7    -0.137608284203E+03    0.61311E-04   -0.27938E-04  3235   0.108E-01    0.290E-02
DAV:   8    -0.137608267134E+03    0.17069E-04   -0.13360E-04  3340   0.706E-02    0.294E-02
DAV:   9    -0.137608256601E+03    0.10533E-04   -0.38941E-05  2605   0.298E-02    0.129E-02
DAV:  10    -0.137608251084E+03    0.55166E-05   -0.37958E-06  1740   0.146E-02
  32 F= -.13760825E+03 E0= -.13759956E+03  d E =-.147012E-01
       N       E                     dE             d eps       ncg     rms          rms(c)
DAV:   1    -0.137577947977E+03    0.30309E-01   -0.28370E+01  2820   0.226E+01    0.150E+00
DAV:   2    -0.138442149735E+03   -0.86420E+00   -0.41183E+00  3185   0.442E+00    0.616E+00
DAV:   3    -0.137623210687E+03    0.81894E+00   -0.83804E-01  3400   0.329E+00    0.848E-01
DAV:   4    -0.137621504219E+03    0.17065E-02   -0.79110E-02  3220   0.957E-01    0.429E-01
DAV:   5    -0.137619355158E+03    0.21491E-02   -0.64074E-03  3160   0.376E-01    0.236E-01
DAV:   6    -0.137619434906E+03   -0.79747E-04   -0.27622E-03  3040   0.221E-01    0.329E-01
DAV:   7    -0.137617700388E+03    0.17345E-02   -0.26196E-03  3105   0.286E-01    0.153E-01
DAV:   8    -0.137617589626E+03    0.11076E-03   -0.13055E-03  3175   0.193E-01    0.134E-01
DAV:   9    -0.137617379852E+03    0.20977E-03   -0.34714E-04  3055   0.107E-01    0.401E-02
DAV:  10    -0.137617307422E+03    0.72430E-04   -0.58985E-05  2920   0.760E-02    0.190E-02
DAV:  11    -0.137617214905E+03    0.92517E-04   -0.91038E-05  3610   0.117E-01    0.201E-02
DAV:  12    -0.137617182135E+03    0.32770E-04   -0.97704E-05  2955   0.611E-02    0.126E-02
DAV:  13    -0.137617135336E+03    0.46800E-04   -0.28364E-05  2610   0.788E-02    0.109E-02
DAV:  14    -0.137617049785E+03    0.85550E-04   -0.22789E-04  3965   0.202E-01    0.272E-02
DAV:  15    -0.137617060843E+03   -0.11057E-04   -0.16319E-04  2880   0.401E-02    0.280E-02
DAV:  16    -0.137617055819E+03    0.50239E-05   -0.50228E-06  1835   0.117E-02
  33 F= -.13761706E+03 E0= -.13760912E+03  d E =-.235060E-01
       N       E                     dE             d eps       ncg     rms          rms(c)
DAV:   1    -0.137615697581E+03    0.13633E-02   -0.31957E+00  2830   0.760E+00    0.445E-01
DAV:   2    -0.137710860421E+03   -0.95163E-01   -0.58545E-01  3065   0.136E+00    0.370E+00
DAV:   3    -0.137617523243E+03    0.93337E-01   -0.32789E-01  3075   0.590E-01    0.334E-01
DAV:   4    -0.137620226378E+03   -0.27031E-02   -0.65082E-03  3030   0.262E-01    0.130E-01
DAV:   5    -0.137620212886E+03    0.13492E-04   -0.75020E-04  3205   0.122E-01    0.796E-02
DAV:   6    -0.137620080910E+03    0.13198E-03   -0.42747E-04  3105   0.114E-01    0.365E-02
DAV:   7    -0.137620055007E+03    0.25903E-04   -0.23311E-04  3135   0.858E-02    0.225E-02
DAV:   8    -0.137620047185E+03    0.78220E-05   -0.67071E-05  2945   0.398E-02
  34 F= -.13762005E+03 E0= -.13761185E+03  d E =-.264973E-01
       N       E                     dE             d eps       ncg     rms          rms(c)
DAV:   1    -0.137626154202E+03   -0.60992E-02   -0.13697E+00  2855   0.502E+00    0.173E-01
DAV:   2    -0.137630917651E+03   -0.47634E-02   -0.33266E-02  3035   0.746E-01    0.621E-01
DAV:   3    -0.137628669228E+03    0.22484E-02   -0.21466E-03  3225   0.176E-01    0.197E-01
DAV:   4    -0.137628381330E+03    0.28790E-03   -0.36076E-04  2975   0.108E-01    0.782E-02
DAV:   5    -0.137628243099E+03    0.13823E-03   -0.61676E-04  3070   0.135E-01    0.704E-02
DAV:   6    -0.137628175121E+03    0.67978E-04   -0.29235E-04  3400   0.915E-02    0.450E-02
DAV:   7    -0.137628133178E+03    0.41942E-04   -0.80576E-05  3155   0.624E-02    0.167E-02
DAV:   8    -0.137628102996E+03    0.30182E-04   -0.30381E-05  2260   0.532E-02    0.958E-03
DAV:   9    -0.137628085172E+03    0.17824E-04   -0.28239E-05  2425   0.408E-02    0.742E-03
DAV:  10    -0.137628049893E+03    0.35279E-04   -0.16409E-05  2330   0.674E-02    0.760E-03
DAV:  11    -0.137628026290E+03    0.23603E-04   -0.30608E-05  2730   0.600E-02    0.678E-03
DAV:  12    -0.137628021940E+03    0.43499E-05   -0.28643E-05  2555   0.287E-02
  35 F= -.13762802E+03 E0= -.13761980E+03  d E =-.797476E-02
       N       E                     dE             d eps       ncg     rms          rms(c)
DAV:   1    -0.137617777533E+03    0.10249E-01   -0.66351E+00  2855   0.111E+01    0.395E-01
DAV:   2    -0.137647383678E+03   -0.29606E-01   -0.21854E-01  3015   0.166E+00    0.183E+00
DAV:   3    -0.137629155075E+03    0.18229E-01   -0.53483E-02  3255   0.392E-01    0.338E-01
DAV:   4    -0.137628836670E+03    0.31840E-03   -0.24385E-03  2990   0.244E-01    0.185E-01
DAV:   5    -0.137628300583E+03    0.53609E-03   -0.22711E-03  3165   0.215E-01    0.134E-01
DAV:   6    -0.137627872146E+03    0.42844E-03   -0.10175E-03  3330   0.196E-01    0.816E-02
DAV:   7    -0.137627705972E+03    0.16617E-03   -0.46438E-04  3280   0.167E-01    0.604E-02
DAV:   8    -0.137627612249E+03    0.93723E-04   -0.26653E-04  3315   0.105E-01    0.305E-02
DAV:   9    -0.137627584690E+03    0.27559E-04   -0.77083E-05  2905   0.419E-02    0.225E-02
DAV:  10    -0.137627496120E+03    0.88570E-04   -0.53887E-05  2950   0.691E-02    0.121E-02
DAV:  11    -0.137627407008E+03    0.89112E-04   -0.64060E-05  3205   0.992E-02    0.220E-02
DAV:  12    -0.137627358066E+03    0.48942E-04   -0.89062E-05  3230   0.831E-02    0.104E-02
DAV:  13    -0.137627303618E+03    0.54448E-04   -0.95063E-05  4040   0.131E-01    0.176E-02
DAV:  14    -0.137627255345E+03    0.48274E-04   -0.77463E-05  3320   0.128E-01    0.142E-02
DAV:  15    -0.137627238508E+03    0.16837E-04   -0.93949E-05  2810   0.729E-02    0.600E-03
DAV:  16    -0.137627238703E+03   -0.19555E-06   -0.41290E-05  2610   0.273E-02
  36 F= -.13762724E+03 E0= -.13761880E+03  d E =-.719152E-02
       N       E                     dE             d eps       ncg     rms          rms(c)
DAV:   1    -0.137628178027E+03   -0.93952E-03   -0.18138E+00  2855   0.578E+00    0.205E-01
DAV:   2    -0.137634958030E+03   -0.67800E-02   -0.44059E-02  3025   0.861E-01    0.612E-01
DAV:   3    -0.137631739478E+03    0.32186E-02   -0.38661E-03  3205   0.243E-01    0.291E-01
DAV:   4    -0.137631104405E+03    0.63507E-03   -0.54710E-04  3075   0.126E-01    0.945E-02
DAV:   5    -0.137631018166E+03    0.86239E-04   -0.42185E-04  3015   0.988E-02    0.682E-02
DAV:   6    -0.137630890224E+03    0.12794E-03   -0.24408E-04  3300   0.107E-01    0.311E-02
DAV:   7    -0.137630852086E+03    0.38138E-04   -0.19585E-04  3115   0.917E-02    0.214E-02
DAV:   8    -0.137630833909E+03    0.18177E-04   -0.71586E-05  2920   0.564E-02    0.154E-02
DAV:   9    -0.137630827509E+03    0.64003E-05   -0.23272E-05  2390   0.233E-02
  37 F= -.13763083E+03 E0= -.13762254E+03  d E =-.107803E-01
       N       E                     dE             d eps       ncg     rms          rms(c)
DAV:   1    -0.137635184316E+03   -0.43504E-02   -0.10931E+00  2740   0.411E+00    0.257E-01
DAV:   2    -0.137676099781E+03   -0.40915E-01   -0.23362E-01  3005   0.819E-01    0.271E+00
DAV:   3    -0.137634191507E+03    0.41908E-01   -0.19255E-01  3120   0.428E-01    0.142E-01
DAV:   4    -0.137636656651E+03   -0.24651E-02   -0.14735E-03  3140   0.154E-01    0.124E-01
DAV:   5    -0.137636595521E+03    0.61130E-04   -0.48078E-04  3270   0.956E-02    0.613E-02
DAV:   6    -0.137636436418E+03    0.15910E-03   -0.22398E-04  3215   0.129E-01    0.321E-02
DAV:   7    -0.137636387940E+03    0.48478E-04   -0.15331E-04  3140   0.760E-02    0.151E-02
DAV:   8    -0.137636346152E+03    0.41789E-04   -0.22811E-05  2310   0.561E-02    0.108E-02
DAV:   9    -0.137636279476E+03    0.66675E-04   -0.36233E-05  2870   0.874E-02    0.778E-03
DAV:  10    -0.137636238658E+03    0.40818E-04   -0.42420E-05  2955   0.686E-02    0.673E-03
DAV:  11    -0.137636197465E+03    0.41193E-04   -0.27992E-05  2720   0.831E-02    0.562E-03
DAV:  12    -0.137636157805E+03    0.39660E-04   -0.63241E-05  3515   0.121E-01    0.442E-03
DAV:  13    -0.137636152311E+03    0.54935E-05   -0.84946E-05  2835   0.698E-02
  38 F= -.13763615E+03 E0= -.13762783E+03  d E =-.532480E-02
       N       E                     dE             d eps       ncg     rms          rms(c)
DAV:   1    -0.137636773555E+03   -0.61575E-03   -0.67582E-01  2750   0.325E+00    0.203E-01
DAV:   2    -0.137662585822E+03   -0.25812E-01   -0.11914E-01  3005   0.636E-01    0.220E+00
DAV:   3    -0.137635906801E+03    0.26679E-01   -0.78172E-02  3155   0.333E-01    0.113E-01
DAV:   4    -0.137637715823E+03   -0.18090E-02   -0.10200E-03  3130   0.119E-01    0.981E-02
DAV:   5    -0.137637713922E+03    0.19006E-05   -0.33664E-04  3250   0.683E-02    0.482E-02
DAV:   6    -0.137637639887E+03    0.74036E-04   -0.13114E-04  3165   0.810E-02    0.236E-02
DAV:   7    -0.137637618847E+03    0.21040E-04   -0.80054E-05  3030   0.495E-02    0.120E-02
DAV:   8    -0.137637602763E+03    0.16084E-04   -0.11845E-05  1860   0.341E-02    0.989E-03
DAV:   9    -0.137637579977E+03    0.22786E-04   -0.91088E-06  1940   0.443E-02    0.513E-03
DAV:  10    -0.137637559861E+03    0.20116E-04   -0.17969E-05  2420   0.491E-02    0.419E-03
DAV:  11    -0.137637545856E+03    0.14005E-04   -0.14566E-05  2175   0.461E-02    0.537E-03
DAV:  12    -0.137637531131E+03    0.14725E-04   -0.14513E-05  2345   0.655E-02    0.280E-03
DAV:  13    -0.137637523458E+03    0.76728E-05   -0.32837E-05  2685   0.732E-02
  39 F= -.13763752E+03 E0= -.13762915E+03  d E =-.669595E-02
       N       E                     dE             d eps       ncg     rms          rms(c)
DAV:   1    -0.137642022666E+03   -0.44915E-02   -0.75666E-01  2950   0.350E+00    0.190E-01
DAV:   2    -0.137660596014E+03   -0.18573E-01   -0.76156E-02  3080   0.614E-01    0.182E+00
DAV:   3    -0.137641849933E+03    0.18746E-01   -0.35809E-02  3160   0.298E-01    0.128E-01
DAV:   4    -0.137643037236E+03   -0.11873E-02   -0.74834E-04  2995   0.118E-01    0.105E-01
DAV:   5    -0.137643012336E+03    0.24900E-04   -0.40636E-04  3130   0.883E-02    0.497E-02
DAV:   6    -0.137642969226E+03    0.43109E-04   -0.18957E-04  3100   0.573E-02    0.220E-02
DAV:   7    -0.137642966624E+03    0.26023E-05   -0.66735E-05  2635   0.324E-02
  40 F= -.13764297E+03 E0= -.13763455E+03  d E =-.544317E-02
       N       E                     dE             d eps       ncg     rms          rms(c)
DAV:   1    -0.137643295361E+03   -0.32613E-03   -0.21141E-01  2960   0.185E+00    0.975E-02
DAV:   2    -0.137648056365E+03   -0.47610E-02   -0.73682E-03  3035   0.320E-01    0.902E-01
DAV:   3    -0.137643298801E+03    0.47576E-02   -0.20298E-03  3080   0.157E-01    0.681E-02
DAV:   4    -0.137643581775E+03   -0.28297E-03   -0.18887E-04  3000   0.611E-02    0.516E-02
DAV:   5    -0.137643565568E+03    0.16206E-04   -0.11179E-04  3100   0.513E-02    0.212E-02
DAV:   6    -0.137643555587E+03    0.99814E-05   -0.42882E-05  2340   0.331E-02
  41 F= -.13764356E+03 E0= -.13763506E+03  d E =-.603213E-02
       N       E                     dE             d eps       ncg     rms          rms(c)
DAV:   1    -0.137645462700E+03   -0.18971E-02   -0.12844E+00  2830   0.486E+00    0.230E-01
DAV:   2    -0.137659156694E+03   -0.13694E-01   -0.62137E-02  3000   0.739E-01    0.148E+00
DAV:   3    -0.137647468837E+03    0.11688E-01   -0.28015E-02  3185   0.282E-01    0.304E-01
DAV:   4    -0.137647686603E+03   -0.21777E-03   -0.13768E-03  3115   0.133E-01    0.113E-01
DAV:   5    -0.137647653929E+03    0.32674E-04   -0.59430E-04  3165   0.809E-02    0.126E-01
DAV:   6    -0.137647511740E+03    0.14219E-03   -0.21121E-04  3045   0.630E-02    0.218E-02
DAV:   7    -0.137647523832E+03   -0.12092E-04   -0.76067E-05  2985   0.405E-02    0.111E-02
DAV:   8    -0.137647522154E+03    0.16785E-05   -0.13807E-05  1820   0.181E-02
  42 F= -.13764752E+03 E0= -.13763879E+03  d E =-.396657E-02
       N       E                     dE             d eps       ncg     rms          rms(c)
DAV:   1    -0.137644947559E+03    0.25763E-02   -0.31438E+00  2820   0.761E+00    0.396E-01
DAV:   2    -0.137707722109E+03   -0.62775E-01   -0.39615E-01  3015   0.124E+00    0.280E+00
DAV:   3    -0.137648727360E+03    0.58995E-01   -0.26797E-01  3095   0.550E-01    0.431E-01
DAV:   4    -0.137650181543E+03   -0.14542E-02   -0.47743E-03  3110   0.232E-01    0.143E-01
DAV:   5    -0.137650199056E+03   -0.17513E-04   -0.13002E-03  3270   0.123E-01    0.201E-01
DAV:   6    -0.137649881325E+03    0.31773E-03   -0.32961E-04  3065   0.998E-02    0.709E-02
DAV:   7    -0.137649842781E+03    0.38544E-04   -0.38154E-04  3110   0.888E-02    0.359E-02
DAV:   8    -0.137649825052E+03    0.17729E-04   -0.65888E-05  2930   0.445E-02    0.135E-02
DAV:   9    -0.137649818204E+03    0.68475E-05   -0.10609E-05  1810   0.284E-02
  43 F= -.13764982E+03 E0= -.13764058E+03  d E =-.626262E-02
       N       E                     dE             d eps       ncg     rms          rms(c)
DAV:   1    -0.137650752529E+03   -0.92748E-03   -0.17566E+00  2910   0.560E+00    0.207E-01
DAV:   2    -0.137668157974E+03   -0.17405E-01   -0.45046E-02  3050   0.857E-01    0.149E+00
DAV:   3    -0.137653627137E+03    0.14531E-01   -0.64410E-03  3010   0.306E-01    0.194E-01
DAV:   4    -0.137653774800E+03   -0.14766E-03   -0.61678E-04  3035   0.130E-01    0.110E-01
DAV:   5    -0.137653666867E+03    0.10793E-03   -0.35500E-04  3400   0.687E-02    0.841E-02
DAV:   6    -0.137653539958E+03    0.12691E-03   -0.33663E-04  3015   0.114E-01    0.788E-02
DAV:   7    -0.137653505200E+03    0.34758E-04   -0.15988E-04  3090   0.572E-02    0.365E-02
DAV:   8    -0.137653478105E+03    0.27095E-04   -0.21369E-05  2170   0.507E-02    0.142E-02
DAV:   9    -0.137653461583E+03    0.16522E-04   -0.27847E-05  2505   0.520E-02    0.208E-02
DAV:  10    -0.137653451426E+03    0.10158E-04   -0.20896E-05  2295   0.312E-02    0.607E-03
DAV:  11    -0.137653442208E+03    0.92174E-05   -0.42913E-06  1880   0.299E-02
  44 F= -.13765344E+03 E0= -.13764375E+03  d E =-.362400E-02
       N       E                     dE             d eps       ncg     rms          rms(c)
DAV:   1    -0.137653162972E+03    0.28845E-03   -0.39105E-01  2920   0.264E+00    0.101E-01
DAV:   2    -0.137658184587E+03   -0.50216E-02   -0.10329E-02  3040   0.419E-01    0.883E-01
DAV:   3    -0.137653596327E+03    0.45883E-02   -0.16710E-03  2960   0.160E-01    0.838E-02
DAV:   4    -0.137653817393E+03   -0.22107E-03   -0.17310E-04  2930   0.637E-02    0.487E-02
DAV:   5    -0.137653797416E+03    0.19978E-04   -0.95300E-05  3245   0.358E-02    0.406E-02
DAV:   6    -0.137653765227E+03    0.32189E-04   -0.79579E-05  2830   0.559E-02    0.354E-02
DAV:   7    -0.137653751983E+03    0.13244E-04   -0.36053E-05  2785   0.366E-02    0.749E-03
DAV:   8    -0.137653746767E+03    0.52160E-05   -0.80285E-06  1760   0.266E-02
  45 F= -.13765375E+03 E0= -.13764387E+03  d E =-.392856E-02
       N       E                     dE             d eps       ncg     rms          rms(c)
DAV:   1    -0.137653986043E+03   -0.23406E-03   -0.15851E+00  2810   0.544E+00    0.214E-01
DAV:   2    -0.137675305827E+03   -0.21320E-01   -0.45431E-02  3005   0.839E-01    0.167E+00
DAV:   3    -0.137656609207E+03    0.18697E-01   -0.66494E-03  3035   0.314E-01    0.140E-01
DAV:   4    -0.137657006118E+03   -0.39691E-03   -0.92435E-04  3025   0.128E-01    0.106E-01
DAV:   5    -0.137656924205E+03    0.81913E-04   -0.33439E-04  3360   0.658E-02    0.780E-02
DAV:   6    -0.137656876743E+03    0.47462E-04   -0.19928E-04  2910   0.766E-02    0.863E-02
DAV:   7    -0.137656851003E+03    0.25740E-04   -0.97022E-05  3070   0.417E-02    0.340E-02
DAV:   8    -0.137656841378E+03    0.96250E-05   -0.19881E-05  1885   0.228E-02
  46 F= -.13765684E+03 E0= -.13764676E+03  d E =-.309461E-02
       N       E                     dE             d eps       ncg     rms          rms(c)
DAV:   1    -0.137650364896E+03    0.64861E-02   -0.46145E+00  2810   0.929E+00    0.358E-01
DAV:   2    -0.137701488090E+03   -0.51123E-01   -0.14846E-01  3000   0.141E+00    0.238E+00
DAV:   3    -0.137659176140E+03    0.42312E-01   -0.19611E-02  3035   0.508E-01    0.315E-01
DAV:   4    -0.137659238226E+03   -0.62087E-04   -0.20646E-03  3020   0.209E-01    0.214E-01
DAV:   5    -0.137658938461E+03    0.29976E-03   -0.74951E-04  3070   0.105E-01    0.152E-01
DAV:   6    -0.137658700763E+03    0.23770E-03   -0.56786E-04  3035   0.149E-01    0.178E-01
DAV:   7    -0.137658604252E+03    0.96510E-04   -0.42552E-04  3120   0.889E-02    0.971E-02
DAV:   8    -0.137658524344E+03    0.79908E-04   -0.95734E-05  3015   0.531E-02    0.424E-02
DAV:   9    -0.137658488608E+03    0.35736E-04   -0.26536E-05  2580   0.568E-02    0.507E-02
DAV:  10    -0.137658454752E+03    0.33856E-04   -0.23637E-05  2225   0.404E-02    0.166E-02
DAV:  11    -0.137658402332E+03    0.52420E-04   -0.25959E-05  2405   0.756E-02    0.146E-02
DAV:  12    -0.137658360629E+03    0.41704E-04   -0.44662E-05  2765   0.734E-02    0.126E-02
DAV:  13    -0.137658342890E+03    0.17739E-04   -0.35970E-05  2550   0.505E-02    0.887E-03
DAV:  14    -0.137658311752E+03    0.31138E-04   -0.41427E-05  2860   0.106E-01    0.887E-03
DAV:  15    -0.137658297609E+03    0.14143E-04   -0.87060E-05  3405   0.108E-01    0.636E-03
DAV:  16    -0.137658305517E+03   -0.79082E-05   -0.82978E-05  2660   0.339E-02
  47 F= -.13765831E+03 E0= -.13764791E+03  d E =-.455875E-02
       N       E                     dE             d eps       ncg     rms          rms(c)
DAV:   1    -0.137659498268E+03   -0.12007E-02   -0.39521E-01  2830   0.270E+00    0.117E-01
DAV:   2    -0.137668282154E+03   -0.87839E-02   -0.12381E-02  3030   0.426E-01    0.121E+00
DAV:   3    -0.137659761904E+03    0.85202E-02   -0.21234E-03  2935   0.179E-01    0.619E-02
DAV:   4    -0.137660190924E+03   -0.42902E-03   -0.48927E-04  2990   0.765E-02    0.617E-02
DAV:   5    -0.137660186506E+03    0.44181E-05   -0.10848E-04  3160   0.361E-02    0.537E-02
DAV:   6    -0.137660176686E+03    0.98204E-05   -0.34939E-05  2710   0.313E-02
  48 F= -.13766018E+03 E0= -.13764974E+03  d E =-.187117E-02
       N       E                     dE             d eps       ncg     rms          rms(c)
DAV:   1    -0.137658755099E+03    0.14314E-02   -0.35502E+00  2830   0.810E+00    0.357E-01
DAV:   2    -0.137728329831E+03   -0.69575E-01   -0.14782E-01  3020   0.128E+00    0.276E+00
DAV:   3    -0.137664432815E+03    0.63897E-01   -0.50087E-02  3095   0.578E-01    0.178E-01
DAV:   4    -0.137665282910E+03   -0.85009E-03   -0.31491E-03  3165   0.218E-01    0.246E-01
DAV:   5    -0.137664993629E+03    0.28928E-03   -0.59232E-04  3335   0.901E-02    0.161E-01
DAV:   6    -0.137664901492E+03    0.92137E-04   -0.32782E-04  3095   0.994E-02    0.149E-01
DAV:   7    -0.137664844002E+03    0.57490E-04   -0.17897E-04  2980   0.598E-02    0.317E-02
DAV:   8    -0.137664823661E+03    0.20341E-04   -0.78043E-05  2870   0.427E-02    0.118E-02
DAV:   9    -0.137664824454E+03   -0.79308E-06   -0.12003E-05  1865   0.254E-02
  49 F= -.13766482E+03 E0= -.13765459E+03  d E =-.651894E-02
       N       E                     dE             d eps       ncg     rms          rms(c)
DAV:   1    -0.137644361082E+03    0.20463E-01   -0.14214E+01  2860   0.162E+01    0.723E-01
DAV:   2    -0.137878238648E+03   -0.23388E+00   -0.74608E-01  3030   0.259E+00    0.473E+00
DAV:   3    -0.137670755726E+03    0.20748E+00   -0.80015E-01  3235   0.124E+00    0.433E-01
DAV:   4    -0.137671648623E+03   -0.89290E-03   -0.13778E-02  3230   0.436E-01    0.584E-01
DAV:   5    -0.137670118040E+03    0.15306E-02   -0.17424E-03  3020   0.160E-01    0.381E-01
DAV:   6    -0.137669268744E+03    0.84930E-03   -0.26616E-03  3170   0.201E-01    0.179E-01
DAV:   7    -0.137669327352E+03   -0.58608E-04   -0.87113E-04  3110   0.149E-01    0.141E-01
DAV:   8    -0.137669179119E+03    0.14823E-03   -0.45673E-04  3270   0.957E-02    0.578E-02
DAV:   9    -0.137669170340E+03    0.87785E-05   -0.91173E-05  2955   0.440E-02
  50 F= -.13766917E+03 E0= -.13765926E+03  d E =-.108648E-01
       N       E                     dE             d eps       ncg     rms          rms(c)
DAV:   1    -0.137674084179E+03   -0.49051E-02   -0.28891E-01  2800   0.236E+00    0.183E-01
DAV:   2    -0.137706115827E+03   -0.32032E-01   -0.91537E-02  3180   0.508E-01    0.239E+00
DAV:   3    -0.137672012074E+03    0.34104E-01   -0.79460E-02  3095   0.346E-01    0.125E-01
DAV:   4    -0.137674208792E+03   -0.21967E-02   -0.92539E-04  2925   0.111E-01    0.456E-02
DAV:   5    -0.137674344771E+03   -0.13598E-03   -0.20488E-04  3235   0.479E-02    0.855E-02
DAV:   6    -0.137674313803E+03    0.30969E-04   -0.50022E-05  2755   0.351E-02    0.205E-02
DAV:   7    -0.137674315242E+03   -0.14389E-05   -0.46060E-05  2255   0.288E-02
  51 F= -.13767432E+03 E0= -.13766441E+03  d E =-.514490E-02
       N       E                     dE             d eps       ncg     rms          rms(c)
DAV:   1    -0.137679800865E+03   -0.54871E-02   -0.26043E+00  2780   0.708E+00    0.524E-01
DAV:   2    -0.137849127418E+03   -0.16933E+00   -0.84231E-01  3135   0.147E+00    0.456E+00
DAV:   3    -0.137676348402E+03    0.17278E+00   -0.60790E-01  3125   0.896E-01    0.260E-01
DAV:   4    -0.137681310080E+03   -0.49617E-02   -0.87296E-03  3005   0.328E-01    0.153E-01
DAV:   5    -0.137681545458E+03   -0.23538E-03   -0.18493E-03  3275   0.154E-01    0.234E-01
DAV:   6    -0.137681280602E+03    0.26486E-03   -0.41737E-04  3235   0.145E-01    0.209E-01
DAV:   7    -0.137680882139E+03    0.39846E-03   -0.47137E-04  3485   0.163E-01    0.114E-01
DAV:   8    -0.137680713814E+03    0.16833E-03   -0.16743E-04  3185   0.101E-01    0.219E-02
DAV:   9    -0.137680594322E+03    0.11949E-03   -0.61112E-05  2925   0.985E-02    0.327E-02
DAV:  10    -0.137680379955E+03    0.21437E-03   -0.19004E-04  3830   0.184E-01    0.428E-02
DAV:  11    -0.137680285446E+03    0.94509E-04   -0.16698E-04  3000   0.115E-01    0.180E-02
DAV:  12    -0.137680202143E+03    0.83303E-04   -0.99612E-05  3225   0.139E-01    0.108E-02
DAV:  13    -0.137680152138E+03    0.50005E-04   -0.11246E-04  3165   0.133E-01    0.462E-03
DAV:  14    -0.137680151935E+03    0.20303E-06   -0.15030E-04  2945   0.729E-02    0.101E-02
DAV:  15    -0.137680155383E+03   -0.34484E-05   -0.43432E-05  2720   0.226E-02
  52 F= -.13768016E+03 E0= -.13767057E+03  d E =-.109850E-01
       N       E                     dE             d eps       ncg     rms          rms(c)
DAV:   1    -0.137683318638E+03   -0.31667E-02   -0.12457E+00  2735   0.486E+00    0.412E-01
DAV:   2    -0.137807251027E+03   -0.12393E+00   -0.53386E-01  3260   0.119E+00    0.398E+00
DAV:   3    -0.137681607014E+03    0.12564E+00   -0.30215E-01  3160   0.680E-01    0.466E-01
DAV:   4    -0.137684532195E+03   -0.29252E-02   -0.43236E-03  3275   0.210E-01    0.200E-01
DAV:   5    -0.137684855982E+03   -0.32379E-03   -0.52086E-04  3140   0.125E-01    0.115E-01
DAV:   6    -0.137684716560E+03    0.13942E-03   -0.47172E-04  3350   0.881E-02    0.480E-02
DAV:   7    -0.137684700683E+03    0.15877E-04   -0.17431E-04  3235   0.608E-02    0.138E-02
DAV:   8    -0.137684703746E+03   -0.30626E-05   -0.43354E-05  2895   0.307E-02
  53 F= -.13768470E+03 E0= -.13767518E+03  d E =-.454836E-02
       N       E                     dE             d eps       ncg     rms          rms(c)
DAV:   1    -0.137685355690E+03   -0.65501E-03   -0.69313E-01  2755   0.362E+00    0.292E-01
DAV:   2    -0.137747832273E+03   -0.62477E-01   -0.22759E-01  3225   0.844E-01    0.265E+00
DAV:   3    -0.137684588917E+03    0.63243E-01   -0.83134E-02  3180   0.470E-01    0.322E-01
DAV:   4    -0.137686089334E+03   -0.15004E-02   -0.29743E-03  3270   0.156E-01    0.105E-01
DAV:   5    -0.137686205352E+03   -0.11602E-03   -0.26478E-04  2985   0.784E-02    0.534E-02
DAV:   6    -0.137686218881E+03   -0.13529E-04   -0.11063E-04  3145   0.590E-02    0.866E-02
DAV:   7    -0.137686158202E+03    0.60679E-04   -0.96273E-05  3185   0.543E-02    0.192E-02
DAV:   8    -0.137686161178E+03   -0.29764E-05   -0.22160E-05  2020   0.239E-02
  54 F= -.13768616E+03 E0= -.13767673E+03  d E =-.600580E-02
       N       E                     dE             d eps       ncg     rms          rms(c)
DAV:   1    -0.137688956178E+03   -0.27980E-02   -0.12822E+00  2910   0.481E+00    0.353E-01
DAV:   2    -0.137691891454E+03   -0.29353E-02   -0.49929E-02  3050   0.787E-01    0.414E-01
DAV:   3    -0.137701480551E+03   -0.95891E-02   -0.28891E-02  3550   0.344E-01    0.121E+00
DAV:   4    -0.137689785745E+03    0.11695E-01   -0.23200E-02  3200   0.280E-01    0.116E-01
DAV:   5    -0.137689935168E+03   -0.14942E-03   -0.82515E-04  3010   0.121E-01    0.635E-02
DAV:   6    -0.137689827934E+03    0.10723E-03   -0.34249E-04  3190   0.138E-01    0.144E-01
DAV:   7    -0.137689634889E+03    0.19304E-03   -0.27339E-04  3015   0.114E-01    0.645E-02
DAV:   8    -0.137689586335E+03    0.48554E-04   -0.13035E-04  2985   0.663E-02    0.194E-02
DAV:   9    -0.137689564776E+03    0.21560E-04   -0.19327E-05  2275   0.375E-02    0.176E-02
DAV:  10    -0.137689484533E+03    0.80243E-04   -0.78934E-05  3140   0.107E-01    0.173E-02
DAV:  11    -0.137689465790E+03    0.18743E-04   -0.42873E-05  2755   0.457E-02    0.189E-02
DAV:  12    -0.137689444269E+03    0.21521E-04   -0.20096E-05  2225   0.551E-02    0.110E-02
DAV:  13    -0.137689410445E+03    0.33824E-04   -0.51238E-05  3025   0.103E-01    0.108E-02
DAV:  14    -0.137689403843E+03    0.66025E-05   -0.60470E-05  2705   0.473E-02
  55 F= -.13768940E+03 E0= -.13767991E+03  d E =-.324266E-02
       N       E                     dE             d eps       ncg     rms          rms(c)
DAV:   1    -0.137689416978E+03   -0.65330E-05   -0.90583E-03  3150   0.406E-01    0.289E-02
DAV:   2    -0.137689439188E+03   -0.22210E-04   -0.36338E-04  2995   0.720E-02    0.331E-02
DAV:   3    -0.137689475276E+03   -0.36088E-04   -0.25262E-05  2365   0.280E-02    0.904E-02
DAV:   4    -0.137689423880E+03    0.51396E-04   -0.23985E-05  1960   0.165E-02    0.103E-02
DAV:   5    -0.137689426990E+03   -0.31096E-05   -0.58322E-06  1660   0.117E-02    0.891E-03
DAV:   6    -0.137689425378E+03    0.16118E-05   -0.35597E-06  1785   0.179E-02
  56 F= -.13768943E+03 E0= -.13767993E+03  d E =-.326420E-02
       N       E                     dE             d eps       ncg     rms          rms(c)
DAV:   1    -0.137689944599E+03   -0.51761E-03   -0.63830E-01  2735   0.343E+00    0.196E-01
DAV:   2    -0.137691146063E+03   -0.12015E-02   -0.18627E-02  2935   0.516E-01    0.169E-01
DAV:   3    -0.137691489036E+03   -0.34297E-03   -0.41006E-03  3455   0.160E-01    0.342E-01
DAV:   4    -0.137690844485E+03    0.64455E-03   -0.45342E-04  3155   0.803E-02    0.122E-01
DAV:   5    -0.137690720894E+03    0.12359E-03   -0.18969E-04  3020   0.580E-02    0.372E-02
DAV:   6    -0.137690670718E+03    0.50176E-04   -0.18743E-04  3035   0.734E-02    0.386E-02
DAV:   7    -0.137690658700E+03    0.12018E-04   -0.66943E-05  2920   0.386E-02    0.179E-02
DAV:   8    -0.137690652736E+03    0.59637E-05   -0.15930E-05  1765   0.246E-02
  57 F= -.13769065E+03 E0= -.13768110E+03  d E =-.122736E-02
       N       E                     dE             d eps       ncg     rms          rms(c)
DAV:   1    -0.137690645163E+03    0.13537E-04   -0.66919E-03  2860   0.353E-01    0.197E-02
DAV:   2    -0.137690657740E+03   -0.12577E-04   -0.20942E-04  3020   0.556E-02    0.343E-02
DAV:   3    -0.137690688810E+03   -0.31070E-04   -0.42852E-05  2285   0.195E-02    0.836E-02
DAV:   4    -0.137690640608E+03    0.48202E-04   -0.66470E-06  1945   0.186E-02    0.886E-03
DAV:   5    -0.137690644337E+03   -0.37285E-05   -0.42636E-06  1675   0.985E-03    0.566E-03
DAV:   6    -0.137690638161E+03    0.61762E-05   -0.31505E-06  1805   0.197E-02
  58 F= -.13769064E+03 E0= -.13768105E+03  d E =-.121278E-02
       N       E                     dE             d eps       ncg     rms          rms(c)
DAV:   1    -0.137691236003E+03   -0.59167E-03   -0.31984E-02  2785   0.778E-01    0.107E-01
DAV:   2    -0.137700447009E+03   -0.92110E-02   -0.12324E-02  3395   0.263E-01    0.109E+00
DAV:   3    -0.137690913789E+03    0.95332E-02   -0.16793E-02  3335   0.208E-01    0.600E-02
DAV:   4    -0.137691180403E+03   -0.26661E-03   -0.36865E-04  3175   0.601E-02    0.335E-02
DAV:   5    -0.137691189131E+03   -0.87275E-05   -0.59849E-05  2680   0.284E-02    0.136E-02
DAV:   6    -0.137691190342E+03   -0.12115E-05   -0.96304E-06  1835   0.218E-02
  59 F= -.13769119E+03 E0= -.13768162E+03  d E =-.552182E-03
       N       E                     dE             d eps       ncg     rms          rms(c)
DAV:   1    -0.137691353772E+03   -0.16464E-03   -0.31233E-02  2775   0.771E-01    0.914E-02
DAV:   2    -0.137697270631E+03   -0.59169E-02   -0.81569E-03  3335   0.228E-01    0.885E-01
DAV:   3    -0.137691128627E+03    0.61420E-02   -0.83313E-03  3305   0.165E-01    0.595E-02
DAV:   4    -0.137691301932E+03   -0.17330E-03   -0.30179E-04  3115   0.567E-02    0.349E-02
DAV:   5    -0.137691293813E+03    0.81184E-05   -0.55396E-05  2640   0.328E-02    0.154E-02
DAV:   6    -0.137691278380E+03    0.15433E-04   -0.10804E-05  1845   0.368E-02    0.143E-02
DAV:   7    -0.137691263893E+03    0.14487E-04   -0.14350E-05  2040   0.377E-02    0.180E-02
DAV:   8    -0.137691251791E+03    0.12103E-04   -0.98119E-06  1780   0.288E-02    0.404E-03
DAV:   9    -0.137691244859E+03    0.69319E-05   -0.55067E-06  1745   0.230E-02
  60 F= -.13769124E+03 E0= -.13768176E+03  d E =-.606698E-03
       N       E                     dE             d eps       ncg     rms          rms(c)
DAV:   1    -0.137691242682E+03    0.91082E-05   -0.20146E-03  2930   0.212E-01    0.327E-02
DAV:   2    -0.137692363859E+03   -0.11212E-02   -0.31539E-03  3115   0.907E-02    0.463E-01
DAV:   3    -0.137691126519E+03    0.12373E-02   -0.24924E-03  2980   0.666E-02    0.222E-02
DAV:   4    -0.137691242505E+03   -0.11599E-03   -0.40551E-05  2420   0.220E-02    0.987E-03
DAV:   5    -0.137691249983E+03   -0.74782E-05   -0.75137E-06  1740   0.102E-02    0.641E-03
DAV:   6    -0.137691250761E+03   -0.77765E-06   -0.43882E-06  1750   0.882E-03
  61 F= -.13769125E+03 E0= -.13768177E+03  d E =-.612600E-03
       N       E                     dE             d eps       ncg     rms          rms(c)
DAV:   1    -0.137691254498E+03   -0.45146E-05   -0.26609E-03  2785   0.225E-01    0.272E-02
DAV:   2    -0.137691893968E+03   -0.63947E-03   -0.87083E-04  3175   0.675E-02    0.349E-01
DAV:   3    -0.137691174897E+03    0.71907E-03   -0.58478E-04  2480   0.490E-02    0.218E-02
DAV:   4    -0.137691248329E+03   -0.73432E-04   -0.33961E-05  2380   0.178E-02    0.862E-03
DAV:   5    -0.137691253586E+03   -0.52570E-05   -0.52784E-06  1760   0.944E-03    0.550E-03
DAV:   6    -0.137691254542E+03   -0.95566E-06   -0.14546E-06  1795   0.813E-03
  62 F= -.13769125E+03 E0= -.13768175E+03  d E =-.616381E-03
       N       E                     dE             d eps       ncg     rms          rms(c)
DAV:   1    -0.137691441990E+03   -0.18840E-03   -0.22037E-02  2855   0.628E-01    0.597E-02
DAV:   2    -0.137693443380E+03   -0.20014E-02   -0.22311E-03  3195   0.154E-01    0.547E-01
DAV:   3    -0.137691383229E+03    0.20602E-02   -0.69768E-04  3140   0.934E-02    0.469E-02
DAV:   4    -0.137691450184E+03   -0.66955E-04   -0.19450E-04  2895   0.406E-02    0.229E-02
DAV:   5    -0.137691445751E+03    0.44329E-05   -0.17383E-05  1935   0.177E-02    0.101E-02
DAV:   6    -0.137691444747E+03    0.10045E-05   -0.69643E-06  1815   0.174E-02
  63 F= -.13769144E+03 E0= -.13768199E+03  d E =-.190205E-03
       N       E                     dE             d eps       ncg     rms          rms(c)
DAV:   1    -0.137691470199E+03   -0.24447E-04   -0.11176E-02  2930   0.448E-01    0.421E-02
DAV:   2    -0.137692310690E+03   -0.84049E-03   -0.10594E-03  3215   0.108E-01    0.367E-01
DAV:   3    -0.137691435803E+03    0.87489E-03   -0.28934E-04  2930   0.608E-02    0.353E-02
DAV:   4    -0.137691472008E+03   -0.36205E-04   -0.10022E-04  2760   0.293E-02    0.180E-02
DAV:   5    -0.137691468713E+03    0.32950E-05   -0.94908E-06  1810   0.132E-02    0.926E-03
DAV:   6    -0.137691466456E+03    0.22575E-05   -0.41657E-06  1790   0.156E-02
  64 F= -.13769147E+03 E0= -.13768204E+03  d E =-.211914E-03
       N       E                     dE             d eps       ncg     rms          rms(c)
DAV:   1    -0.137691588642E+03   -0.11993E-03   -0.17716E-02  2985   0.566E-01    0.611E-02
DAV:   2    -0.137695524902E+03   -0.39363E-02   -0.34413E-03  3320   0.177E-01    0.734E-01
DAV:   3    -0.137691420579E+03    0.41043E-02   -0.32754E-03  3275   0.134E-01    0.353E-02
DAV:   4    -0.137691572610E+03   -0.15203E-03   -0.10176E-04  3080   0.343E-02    0.135E-02
DAV:   5    -0.137691587488E+03   -0.14878E-04   -0.88551E-06  1765   0.136E-02    0.693E-03
DAV:   6    -0.137691588304E+03   -0.81636E-06   -0.37576E-06  1770   0.144E-02
  65 F= -.13769159E+03 E0= -.13768219E+03  d E =-.121848E-03
       N       E                     dE             d eps       ncg     rms          rms(c)
DAV:   1    -0.137691607197E+03   -0.19710E-04   -0.15801E-02  2965   0.535E-01    0.539E-02
DAV:   2    -0.137694648275E+03   -0.30411E-02   -0.19422E-03  3310   0.158E-01    0.655E-01
DAV:   3    -0.137691467845E+03    0.31804E-02   -0.12610E-03  3235   0.117E-01    0.336E-02
DAV:   4    -0.137691596062E+03   -0.12822E-03   -0.90378E-05  3050   0.315E-02    0.133E-02
DAV:   5    -0.137691607133E+03   -0.11071E-04   -0.81280E-06  1760   0.130E-02    0.659E-03
DAV:   6    -0.137691607204E+03   -0.70590E-07   -0.38127E-06  1750   0.149E-02
  66 F= -.13769161E+03 E0= -.13768223E+03  d E =-.140748E-03
       N       E                     dE             d eps       ncg     rms          rms(c)
DAV:   1    -0.137691686569E+03   -0.79436E-04   -0.39706E-03  2795   0.263E-01    0.204E-02
DAV:   2    -0.137692099833E+03   -0.41326E-03   -0.26226E-04  3065   0.654E-02    0.259E-01
DAV:   3    -0.137691653475E+03    0.44636E-03   -0.12774E-04  2430   0.434E-02    0.119E-02
DAV:   4    -0.137691687890E+03   -0.34415E-04   -0.12699E-05  2105   0.141E-02    0.557E-03
DAV:   5    -0.137691689853E+03   -0.19629E-05   -0.26734E-06  1720   0.796E-03    0.371E-03
DAV:   6    -0.137691689176E+03    0.67716E-06   -0.17833E-06  1700   0.902E-03
  67 F= -.13769169E+03 E0= -.13768231E+03  d E =-.819724E-04
       N       E                     dE             d eps       ncg     rms          rms(c)
DAV:   1    -0.137691761059E+03   -0.71206E-04   -0.31017E-02  2745   0.737E-01    0.641E-02
DAV:   2    -0.137695612167E+03   -0.38511E-02   -0.32145E-03  3150   0.197E-01    0.721E-01
DAV:   3    -0.137691620351E+03    0.39918E-02   -0.26689E-03  3265   0.137E-01    0.280E-02
DAV:   4    -0.137691771373E+03   -0.15102E-03   -0.86606E-05  3155   0.370E-02    0.140E-02
DAV:   5    -0.137691783170E+03   -0.11797E-04   -0.14752E-05  1855   0.205E-02    0.103E-02
DAV:   6    -0.137691780522E+03    0.26481E-05   -0.10667E-05  1760   0.180E-02
  68 F= -.13769178E+03 E0= -.13768241E+03  d E =-.173319E-03
       N       E                     dE             d eps       ncg     rms          rms(c)
DAV:   1    -0.137691871632E+03   -0.88462E-04   -0.48838E-03  2865   0.305E-01    0.208E-02
DAV:   2    -0.137691969341E+03   -0.97708E-04   -0.14064E-04  3005   0.507E-02    0.125E-01
DAV:   3    -0.137691863146E+03    0.10619E-03   -0.39726E-05  2285   0.253E-02    0.251E-02
DAV:   4    -0.137691874954E+03   -0.11808E-04   -0.52470E-06  1740   0.113E-02    0.666E-03
DAV:   5    -0.137691874697E+03    0.25623E-06   -0.50098E-06  1840   0.126E-02    0.288E-03
DAV:   6    -0.137691874967E+03   -0.27004E-06   -0.16495E-06  1795   0.657E-03
  69 F= -.13769187E+03 E0= -.13768252E+03  d E =-.944452E-04
       N       E                     dE             d eps       ncg     rms          rms(c)
DAV:   1    -0.137692013947E+03   -0.13925E-03   -0.43864E-02  2770   0.913E-01    0.752E-02
DAV:   2    -0.137694455508E+03   -0.24416E-02   -0.17107E-03  3070   0.180E-01    0.591E-01
DAV:   3    -0.137691906961E+03    0.25485E-02   -0.93389E-04  3115   0.117E-01    0.592E-02
DAV:   4    -0.137692019162E+03   -0.11220E-03   -0.80636E-05  2735   0.379E-02    0.260E-02
DAV:   5    -0.137692015962E+03    0.32006E-05   -0.34798E-05  2655   0.315E-02    0.253E-02
DAV:   6    -0.137692011962E+03    0.39999E-05   -0.13256E-05  1830   0.168E-02
  70 F= -.13769201E+03 E0= -.13768266E+03  d E =-.231440E-03
       N       E                     dE             d eps       ncg     rms          rms(c)
DAV:   1    -0.137692072777E+03   -0.56815E-04   -0.67326E-03  3080   0.337E-01    0.303E-02
DAV:   2    -0.137693013159E+03   -0.94038E-03   -0.27866E-03  3180   0.851E-02    0.418E-01
DAV:   3    -0.137691967507E+03    0.10457E-02   -0.21563E-03  2770   0.611E-02    0.213E-02
DAV:   4    -0.137692065900E+03   -0.98393E-04   -0.43331E-05  2555   0.209E-02    0.839E-03
DAV:   5    -0.137692071964E+03   -0.60642E-05   -0.41718E-06  1710   0.101E-02    0.439E-03
DAV:   6    -0.137692070761E+03    0.12028E-05   -0.29360E-06  1745   0.127E-02
  71 F= -.13769207E+03 E0= -.13768274E+03  d E =-.587991E-04
