       N       E                     dE             d eps       ncg     rms          rms(c)
DAV:   1     0.565495979670E+03    0.56550E+03   -0.37286E+04475360   0.118E+03
DAV:   2    -0.394933919459E+02   -0.60499E+03   -0.56460E+03634510   0.234E+02
DAV:   3    -0.130368820919E+03   -0.90875E+02   -0.90035E+02557860   0.944E+01
DAV:   4    -0.133042368302E+03   -0.26735E+01   -0.26665E+01570965   0.184E+01
DAV:   5    -0.133121167157E+03   -0.78799E-01   -0.78754E-01668905   0.296E+00
DAV:   6    -0.133123441286E+03   -0.22741E-02   -0.22726E-02631105   0.459E-01
DAV:   7    -0.133123555953E+03   -0.11467E-03   -0.11461E-03696105   0.907E-02
DAV:   8    -0.133123559200E+03   -0.32478E-05   -0.32454E-05509055   0.146E-02
   1 F= -.13312356E+03 E0= -.13312356E+03  d E =0.000000E+00
