  21  21   0   0
  0.1471516E+02  0.3004406E-09  0.3004406E-09  0.3953087E-08  0.5000000E-15
  1.000000000000000E-004
  CAR 
 Al110                                   
     11.97711823    -19.04156995  301      3.05388481      1.00000000
    -19.042  0.0000E+00  0.0000E+00
    -18.938  0.0000E+00  0.0000E+00
    -18.835  0.0000E+00  0.0000E+00
    -18.731  0.0000E+00  0.0000E+00
    -18.628  0.0000E+00  0.0000E+00
    -18.525  0.0000E+00  0.0000E+00
    -18.421  0.0000E+00  0.0000E+00
    -18.318  0.0000E+00  0.0000E+00
    -18.214  0.0000E+00  0.0000E+00
    -18.111  0.0000E+00  0.0000E+00
    -18.008  0.0000E+00  0.0000E+00
    -17.904  0.7583E-17  0.7841E-18
    -17.801  0.1031E-08  0.1066E-09
    -17.697  0.3836E-04  0.3967E-05
    -17.594  0.1602E-02  0.1697E-03
    -17.491  0.3416E-02  0.5229E-03
    -17.387  0.5764E-02  0.1119E-02
    -17.284  0.7481E-02  0.1892E-02
    -17.180  0.8838E-02  0.2806E-02
    -17.077  0.9169E-02  0.3754E-02
    -16.974  0.1561E-01  0.5368E-02
    -16.870  0.1546E-01  0.6966E-02
    -16.767  0.1836E-01  0.8864E-02
    -16.663  0.2370E-01  0.1131E-01
    -16.560  0.3424E-01  0.1485E-01
    -16.457  0.4680E-01  0.1969E-01
    -16.353  0.6706E-01  0.2663E-01
    -16.250  0.7466E-01  0.3435E-01
    -16.146  0.5243E-01  0.3977E-01
    -16.043  0.2249E-02  0.4000E-01
    -15.940  0.2791E-06  0.4000E-01
    -15.836  0.1702E-13  0.4000E-01
    -15.733  0.0000E+00  0.4000E-01
    -15.630  0.0000E+00  0.4000E-01
    -15.526  0.0000E+00  0.4000E-01
    -15.423  0.0000E+00  0.4000E-01
    -15.319  0.0000E+00  0.4000E-01
    -15.216  0.0000E+00  0.4000E-01
    -15.113  0.0000E+00  0.4000E-01
    -15.009  0.0000E+00  0.4000E-01
    -14.906  0.0000E+00  0.4000E-01
    -14.802  0.0000E+00  0.4000E-01
    -14.699  0.0000E+00  0.4000E-01
    -14.596  0.0000E+00  0.4000E-01
    -14.492  0.0000E+00  0.4000E-01
    -14.389  0.0000E+00  0.4000E-01
    -14.285  0.0000E+00  0.4000E-01
    -14.182  0.0000E+00  0.4000E-01
    -14.079  0.0000E+00  0.4000E-01
    -13.975  0.0000E+00  0.4000E-01
    -13.872  0.0000E+00  0.4000E-01
    -13.768  0.0000E+00  0.4000E-01
    -13.665  0.0000E+00  0.4000E-01
    -13.562  0.0000E+00  0.4000E-01
    -13.458  0.0000E+00  0.4000E-01
    -13.355  0.0000E+00  0.4000E-01
    -13.251  0.0000E+00  0.4000E-01
    -13.148  0.0000E+00  0.4000E-01
    -13.045  0.0000E+00  0.4000E-01
    -12.941  0.0000E+00  0.4000E-01
    -12.838  0.0000E+00  0.4000E-01
    -12.734  0.0000E+00  0.4000E-01
    -12.631  0.0000E+00  0.4000E-01
    -12.528  0.0000E+00  0.4000E-01
    -12.424  0.0000E+00  0.4000E-01
    -12.321  0.0000E+00  0.4000E-01
    -12.217  0.0000E+00  0.4000E-01
    -12.114  0.0000E+00  0.4000E-01
    -12.011  0.0000E+00  0.4000E-01
    -11.907  0.0000E+00  0.4000E-01
    -11.804  0.0000E+00  0.4000E-01
    -11.700  0.0000E+00  0.4000E-01
    -11.597  0.0000E+00  0.4000E-01
    -11.494  0.0000E+00  0.4000E-01
    -11.390  0.0000E+00  0.4000E-01
    -11.287  0.0000E+00  0.4000E-01
    -11.184  0.0000E+00  0.4000E-01
    -11.080  0.0000E+00  0.4000E-01
    -10.977  0.0000E+00  0.4000E-01
    -10.873  0.0000E+00  0.4000E-01
    -10.770  0.0000E+00  0.4000E-01
    -10.667  0.0000E+00  0.4000E-01
    -10.563  0.0000E+00  0.4000E-01
    -10.460  0.0000E+00  0.4000E-01
    -10.356  0.0000E+00  0.4000E-01
    -10.253  0.0000E+00  0.4000E-01
    -10.150  0.0000E+00  0.4000E-01
    -10.046  0.0000E+00  0.4000E-01
     -9.943  0.0000E+00  0.4000E-01
     -9.839  0.0000E+00  0.4000E-01
     -9.736  0.0000E+00  0.4000E-01
     -9.633  0.0000E+00  0.4000E-01
     -9.529  0.0000E+00  0.4000E-01
     -9.426  0.0000E+00  0.4000E-01
     -9.322  0.0000E+00  0.4000E-01
     -9.219  0.0000E+00  0.4000E-01
     -9.116  0.0000E+00  0.4000E-01
     -9.012  0.0000E+00  0.4000E-01
     -8.909  0.0000E+00  0.4000E-01
     -8.805  0.0000E+00  0.4000E-01
     -8.702  0.0000E+00  0.4000E-01
     -8.599  0.0000E+00  0.4000E-01
     -8.495  0.0000E+00  0.4000E-01
     -8.392  0.0000E+00  0.4000E-01
     -8.288  0.0000E+00  0.4000E-01
     -8.185  0.0000E+00  0.4000E-01
     -8.082  0.0000E+00  0.4000E-01
     -7.978  0.0000E+00  0.4000E-01
     -7.875  0.0000E+00  0.4000E-01
     -7.771  0.0000E+00  0.4000E-01
     -7.668  0.0000E+00  0.4000E-01
     -7.565  0.0000E+00  0.4000E-01
     -7.461  0.0000E+00  0.4000E-01
     -7.358  0.0000E+00  0.4000E-01
     -7.254  0.0000E+00  0.4000E-01
     -7.151  0.0000E+00  0.4000E-01
     -7.048  0.0000E+00  0.4000E-01
     -6.944  0.0000E+00  0.4000E-01
     -6.841  0.0000E+00  0.4000E-01
     -6.737  0.0000E+00  0.4000E-01
     -6.634  0.0000E+00  0.4000E-01
     -6.531  0.0000E+00  0.4000E-01
     -6.427  0.0000E+00  0.4000E-01
     -6.324  0.0000E+00  0.4000E-01
     -6.221  0.0000E+00  0.4000E-01
     -6.117  0.0000E+00  0.4000E-01
     -6.014  0.0000E+00  0.4000E-01
     -5.910  0.0000E+00  0.4000E-01
     -5.807  0.0000E+00  0.4000E-01
     -5.704  0.0000E+00  0.4000E-01
     -5.600  0.0000E+00  0.4000E-01
     -5.497  0.0000E+00  0.4000E-01
     -5.393  0.0000E+00  0.4000E-01
     -5.290  0.0000E+00  0.4000E-01
     -5.187  0.1740E-12  0.4000E-01
     -5.083  0.6766E-06  0.4000E-01
     -4.980  0.9933E-03  0.4010E-01
     -4.876  0.5402E-02  0.4066E-01
     -4.773  0.6874E-02  0.4137E-01
     -4.670  0.9035E-02  0.4231E-01
     -4.566  0.9591E-02  0.4330E-01
     -4.463  0.1786E-01  0.4514E-01
     -4.359  0.2374E-01  0.4760E-01
     -4.256  0.3111E-01  0.5082E-01
     -4.153  0.4333E-01  0.5530E-01
     -4.049  0.5330E-01  0.6081E-01
     -3.946  0.4542E-01  0.6550E-01
     -3.842  0.2631E-01  0.6822E-01
     -3.739  0.2271E-01  0.7057E-01
     -3.636  0.1977E-01  0.7262E-01
     -3.532  0.1101E-01  0.7376E-01
     -3.429  0.1256E-01  0.7505E-01
     -3.325  0.1316E-01  0.7641E-01
     -3.222  0.1415E-01  0.7788E-01
     -3.119  0.1824E-01  0.7976E-01
     -3.015  0.1698E-01  0.8152E-01
     -2.912  0.1416E-01  0.8298E-01
     -2.808  0.1840E-01  0.8489E-01
     -2.705  0.2197E-01  0.8716E-01
     -2.602  0.2254E-01  0.8949E-01
     -2.498  0.2200E-01  0.9176E-01
     -2.395  0.2021E-01  0.9385E-01
     -2.291  0.2022E-01  0.9594E-01
     -2.188  0.2183E-01  0.9820E-01
     -2.085  0.2992E-01  0.1013E+00
     -1.981  0.4146E-01  0.1056E+00
     -1.878  0.4504E-01  0.1102E+00
     -1.775  0.4690E-01  0.1151E+00
     -1.671  0.4783E-01  0.1200E+00
     -1.568  0.5369E-01  0.1256E+00
     -1.464  0.5082E-01  0.1308E+00
     -1.361  0.5462E-01  0.1365E+00
     -1.258  0.5936E-01  0.1426E+00
     -1.154  0.5292E-01  0.1481E+00
     -1.051  0.3686E-01  0.1519E+00
     -0.947  0.2740E-01  0.1547E+00
     -0.844  0.2179E-01  0.1570E+00
     -0.741  0.1692E-01  0.1587E+00
     -0.637  0.9209E-02  0.1597E+00
     -0.534  0.2902E-02  0.1600E+00
     -0.430  0.6262E-04  0.1600E+00
     -0.327  0.2664E-08  0.1600E+00
     -0.224  0.3409E-16  0.1600E+00
     -0.120  0.0000E+00  0.1600E+00
     -0.017  0.0000E+00  0.1600E+00
      0.087  0.0000E+00  0.1600E+00
      0.190  0.0000E+00  0.1600E+00
      0.293  0.0000E+00  0.1600E+00
      0.397  0.0000E+00  0.1600E+00
      0.500  0.2792E-16  0.1600E+00
      0.604  0.3015E-08  0.1600E+00
      0.707  0.8975E-04  0.1600E+00
      0.810  0.2023E-02  0.1602E+00
      0.914  0.1432E-02  0.1604E+00
      1.017  0.1285E-02  0.1605E+00
      1.121  0.3081E-03  0.1605E+00
      1.224  0.4186E-02  0.1610E+00
      1.327  0.2311E-02  0.1612E+00
      1.431  0.4580E-03  0.1613E+00
      1.534  0.2001E-02  0.1615E+00
      1.638  0.2814E-02  0.1617E+00
      1.741  0.1634E-04  0.1618E+00
      1.844  0.1108E-03  0.1618E+00
      1.948  0.3917E-02  0.1622E+00
      2.051  0.4307E-02  0.1626E+00
      2.155  0.1336E-02  0.1628E+00
      2.258  0.8710E-03  0.1628E+00
      2.361  0.1659E-02  0.1630E+00
      2.465  0.2069E-02  0.1632E+00
      2.568  0.2969E-03  0.1633E+00
      2.672  0.3584E-02  0.1636E+00
      2.775  0.1190E-02  0.1637E+00
      2.878  0.7395E-06  0.1638E+00
      2.982  0.9894E-04  0.1638E+00
      3.085  0.3892E-02  0.1642E+00
      3.188  0.4583E-02  0.1646E+00
      3.292  0.1124E-02  0.1648E+00
      3.395  0.3136E-02  0.1651E+00
      3.499  0.1670E-02  0.1652E+00
      3.602  0.4301E-05  0.1653E+00
      3.705  0.1025E-02  0.1654E+00
      3.809  0.4077E-02  0.1658E+00
      3.912  0.2145E-02  0.1660E+00
      4.016  0.9675E-05  0.1660E+00
      4.119  0.2049E-02  0.1662E+00
      4.222  0.2782E-02  0.1665E+00
      4.326  0.9101E-03  0.1666E+00
      4.429  0.6059E-03  0.1667E+00
      4.533  0.5671E-02  0.1672E+00
      4.636  0.6891E-02  0.1680E+00
      4.739  0.1478E-02  0.1681E+00
      4.843  0.1601E-03  0.1681E+00
      4.946  0.2366E-03  0.1681E+00
      5.050  0.1843E-02  0.1683E+00
      5.153  0.8746E-03  0.1684E+00
      5.256  0.1871E-02  0.1686E+00
      5.360  0.2509E-02  0.1689E+00
      5.463  0.1951E-02  0.1691E+00
      5.567  0.1822E-02  0.1693E+00
      5.670  0.2595E-02  0.1695E+00
      5.773  0.7378E-02  0.1703E+00
      5.877  0.3874E-02  0.1707E+00
      5.980  0.1663E-02  0.1709E+00
      6.084  0.3581E-02  0.1712E+00
      6.187  0.6460E-02  0.1719E+00
      6.290  0.6896E-02  0.1726E+00
      6.394  0.1722E-02  0.1728E+00
      6.497  0.1993E-02  0.1730E+00
      6.601  0.6457E-02  0.1737E+00
      6.704  0.6369E-02  0.1743E+00
      6.807  0.8367E-02  0.1752E+00
      6.911  0.9530E-02  0.1762E+00
      7.014  0.7296E-02  0.1769E+00
      7.118  0.1330E-01  0.1783E+00
      7.221  0.9085E-02  0.1793E+00
      7.324  0.1024E-01  0.1803E+00
      7.428  0.1323E-01  0.1817E+00
      7.531  0.1052E-01  0.1828E+00
      7.635  0.8078E-02  0.1836E+00
      7.738  0.1180E-01  0.1848E+00
      7.841  0.1545E-01  0.1864E+00
      7.945  0.1064E-01  0.1875E+00
      8.048  0.7855E-02  0.1883E+00
      8.151  0.8524E-02  0.1892E+00
      8.255  0.1328E-01  0.1906E+00
      8.358  0.1727E-01  0.1924E+00
      8.462  0.1322E-01  0.1937E+00
      8.565  0.1362E-01  0.1952E+00
      8.668  0.7988E-02  0.1960E+00
      8.772  0.1585E-01  0.1976E+00
      8.875  0.1352E-01  0.1990E+00
      8.979  0.2164E-01  0.2013E+00
      9.082  0.2240E-01  0.2036E+00
      9.185  0.2321E-01  0.2060E+00
      9.289  0.2080E-01  0.2081E+00
      9.392  0.2622E-01  0.2108E+00
      9.496  0.1562E-01  0.2124E+00
      9.599  0.1932E-01  0.2144E+00
      9.702  0.1201E-01  0.2157E+00
      9.806  0.1026E-01  0.2167E+00
      9.909  0.4971E-02  0.2173E+00
     10.013  0.6035E-02  0.2179E+00
     10.116  0.3965E-02  0.2183E+00
     10.219  0.9154E-02  0.2192E+00
     10.323  0.3681E-02  0.2196E+00
     10.426  0.6794E-03  0.2197E+00
     10.530  0.1915E-02  0.2199E+00
     10.633  0.1022E-02  0.2200E+00
     10.736  0.3792E-04  0.2200E+00
     10.840  0.1031E-08  0.2200E+00
     10.943  0.7516E-17  0.2200E+00
     11.047  0.0000E+00  0.2200E+00
     11.150  0.0000E+00  0.2200E+00
     11.253  0.0000E+00  0.2200E+00
     11.357  0.0000E+00  0.2200E+00
     11.460  0.0000E+00  0.2200E+00
     11.564  0.0000E+00  0.2200E+00
     11.667  0.0000E+00  0.2200E+00
     11.770  0.0000E+00  0.2200E+00
     11.874  0.0000E+00  0.2200E+00
     11.977  0.0000E+00  0.2200E+00
