       N       E                     dE             d eps       ncg     rms          rms(c)
DAV:   1     0.580423916339E+03    0.58042E+03   -0.37827E+04  2200   0.129E+03
DAV:   2    -0.659160405788E+02   -0.64634E+03   -0.61947E+03  2930   0.293E+02
DAV:   3    -0.134018362262E+03   -0.68102E+02   -0.67597E+02  2700   0.101E+02
DAV:   4    -0.135424753948E+03   -0.14064E+01   -0.14022E+01  2740   0.165E+01
DAV:   5    -0.135454415820E+03   -0.29662E-01   -0.29644E-01  2720   0.226E+00
DAV:   6    -0.135455338009E+03   -0.92219E-03   -0.92195E-03  2760   0.399E-01
DAV:   7    -0.135455374523E+03   -0.36514E-04   -0.36508E-04  2710   0.719E-02
DAV:   8    -0.135455376053E+03   -0.15305E-05   -0.15304E-05  2140   0.149E-02    0.233E+01
RMM:   9    -0.119282334367E+03    0.16173E+02   -0.77937E+01  2200   0.302E+01    0.743E+00
RMM:  10    -0.118982562911E+03    0.29977E+00   -0.70950E-01  2205   0.313E+00    0.484E+00
RMM:  11    -0.118885865381E+03    0.96698E-01   -0.67189E-01  2200   0.462E+00    0.107E+00
RMM:  12    -0.118857327862E+03    0.28538E-01   -0.79982E-02  2204   0.966E-01    0.412E-01
RMM:  13    -0.118862502561E+03   -0.51747E-02   -0.95835E-02  2200   0.105E+00    0.492E-01
RMM:  14    -0.118856462818E+03    0.60397E-02   -0.28024E-02  2203   0.598E-01    0.374E-02
RMM:  15    -0.118856451675E+03    0.11142E-04   -0.39931E-04  2069   0.700E-02    0.201E-02
RMM:  16    -0.118856456433E+03   -0.47573E-05   -0.87946E-05  2020   0.328E-02
   1 F= -.11885646E+03 E0= -.11885467E+03  d E =-.118856E+03
       N       E                     dE             d eps       ncg     rms          rms(c)
DAV:   1    -0.118877337484E+03   -0.20886E-01   -0.48258E+00  2625   0.100E+01
DAV:   2    -0.118888111957E+03   -0.10774E-01   -0.10774E-01  2585   0.133E+00
DAV:   3    -0.118888161556E+03   -0.49598E-04   -0.49597E-04  2725   0.951E-02
DAV:   4    -0.118888162288E+03   -0.73265E-06   -0.73271E-06  1910   0.115E-02
DAV:   5    -0.118888162388E+03   -0.10000E-06   -0.10027E-06  1800   0.388E-03
DAV:   6    -0.118888162418E+03   -0.30159E-07   -0.29984E-07  1630   0.191E-03
DAV:   7    -0.118888162429E+03   -0.10419E-07   -0.10144E-07  1415   0.108E-03
DAV:   8    -0.118888162432E+03   -0.29249E-08   -0.35568E-08  1385   0.595E-04    0.229E-01
RMM:   9    -0.118881343096E+03    0.68193E-02   -0.75904E-03  2199   0.225E-01    0.115E-01
RMM:  10    -0.118878982225E+03    0.23609E-02   -0.55347E-03  2186   0.189E-01    0.355E-02
RMM:  11    -0.118878773187E+03    0.20904E-03   -0.49417E-04  2015   0.532E-02    0.229E-02
RMM:  12    -0.118878722298E+03    0.50890E-04   -0.10946E-04  1936   0.256E-02    0.806E-03
RMM:  13    -0.118878725604E+03   -0.33069E-05   -0.24900E-05  1498   0.144E-02
   2 F= -.11887873E+03 E0= -.11887695E+03  d E =-.222692E-01
       N       E                     dE             d eps       ncg     rms          rms(c)
DAV:   1    -0.118878811975E+03   -0.89678E-04   -0.23583E-02  2515   0.699E-01
DAV:   2    -0.118878867509E+03   -0.55533E-04   -0.55533E-04  2605   0.935E-02
DAV:   3    -0.118878867701E+03   -0.19202E-06   -0.19231E-06  1880   0.642E-03
DAV:   4    -0.118878867728E+03   -0.27700E-07   -0.27281E-07  1555   0.223E-03
DAV:   5    -0.118878867734E+03   -0.59736E-08   -0.64545E-08  1445   0.102E-03
DAV:   6    -0.118878867737E+03   -0.22119E-08   -0.17795E-08  1385   0.514E-04
DAV:   7    -0.118878867737E+03   -0.35652E-09   -0.53241E-09  1325   0.265E-04
DAV:   8    -0.118878867737E+03    0.13824E-09   -0.16986E-09  1325   0.145E-04    0.163E-02
RMM:   9    -0.118878833066E+03    0.34671E-04   -0.37659E-05  1673   0.157E-02    0.825E-03
RMM:  10    -0.118878820758E+03    0.12308E-04   -0.36893E-05  1692   0.160E-02    0.247E-03
RMM:  11    -0.118878820600E+03    0.15806E-06   -0.18781E-06  1114   0.415E-03
   3 F= -.11887882E+03 E0= -.11887704E+03  d E =-.223642E-01
       N       E                     dE             d eps       ncg     rms          rms(c)
DAV:   1    -0.118880078045E+03   -0.12573E-02   -0.22227E-01  2200   0.223E+00
DAV:   2    -0.118880615998E+03   -0.53795E-03   -0.53795E-03  2595   0.308E-01
DAV:   3    -0.118880617665E+03   -0.16672E-05   -0.16671E-05  2055   0.189E-02
DAV:   4    -0.118880617816E+03   -0.15072E-06   -0.15103E-06  1665   0.535E-03
DAV:   5    -0.118880617849E+03   -0.33237E-07   -0.33188E-07  1325   0.226E-03
DAV:   6    -0.118880617858E+03   -0.88185E-08   -0.87820E-08  1325   0.109E-03
DAV:   7    -0.118880617861E+03   -0.27794E-08   -0.25432E-08  1310   0.560E-04
DAV:   8    -0.118880617862E+03   -0.10332E-08   -0.78931E-09  1310   0.300E-04    0.467E-02
RMM:   9    -0.118880439941E+03    0.17792E-03   -0.23625E-04  2058   0.436E-02    0.220E-02
RMM:  10    -0.118880375358E+03    0.64583E-04   -0.16059E-04  1954   0.329E-02    0.938E-03
RMM:  11    -0.118880366870E+03    0.84882E-05   -0.21544E-05  1472   0.130E-02
   4 F= -.11888037E+03 E0= -.11887859E+03  d E =-.154627E-02
       N       E                     dE             d eps       ncg     rms          rms(c)
DAV:   1    -0.118880398320E+03   -0.22962E-04   -0.25465E-02  2525   0.764E-01
DAV:   2    -0.118880468651E+03   -0.70331E-04   -0.70331E-04  2675   0.112E-01
DAV:   3    -0.118880468864E+03   -0.21260E-06   -0.21245E-06  1830   0.701E-03
DAV:   4    -0.118880468895E+03   -0.31017E-07   -0.30894E-07  1450   0.228E-03
DAV:   5    -0.118880468902E+03   -0.71232E-08   -0.73944E-08  1325   0.102E-03
DAV:   6    -0.118880468905E+03   -0.23647E-08   -0.20397E-08  1325   0.505E-04
DAV:   7    -0.118880468905E+03   -0.58208E-09   -0.61075E-09  1310   0.261E-04
DAV:   8    -0.118880468905E+03    0.29104E-09   -0.19450E-09  1295   0.142E-04    0.162E-02
RMM:   9    -0.118880447149E+03    0.21755E-04   -0.26859E-05  1573   0.149E-02    0.783E-03
RMM:  10    -0.118880438926E+03    0.82232E-05   -0.21070E-05  1466   0.126E-02
   5 F= -.11888044E+03 E0= -.11887866E+03  d E =-.161833E-02
       N       E                     dE             d eps       ncg     rms          rms(c)
DAV:   1    -0.118880733031E+03   -0.28588E-03   -0.18380E-01  2330   0.205E+00
DAV:   2    -0.118881100029E+03   -0.36700E-03   -0.36700E-03  2670   0.269E-01
DAV:   3    -0.118881101304E+03   -0.12759E-05   -0.12764E-05  2105   0.161E-02
DAV:   4    -0.118881101403E+03   -0.98582E-07   -0.98443E-07  1465   0.439E-03
DAV:   5    -0.118881101424E+03   -0.21166E-07   -0.21278E-07  1325   0.179E-03
DAV:   6    -0.118881101430E+03   -0.57335E-08   -0.57117E-08  1310   0.870E-04
DAV:   7    -0.118881101432E+03   -0.20227E-08   -0.16675E-08  1300   0.449E-04
DAV:   8    -0.118881101432E+03   -0.40745E-09   -0.52085E-09  1265   0.241E-04    0.378E-02
RMM:   9    -0.118881006432E+03    0.95000E-04   -0.15008E-04  2002   0.353E-02    0.179E-02
RMM:  10    -0.118880980755E+03    0.25677E-04   -0.10272E-04  1996   0.285E-02    0.505E-03
RMM:  11    -0.118880979922E+03    0.83264E-06   -0.58189E-06  1337   0.730E-03
   6 F= -.11888098E+03 E0= -.11887920E+03  d E =-.540996E-03
       N       E                     dE             d eps       ncg     rms          rms(c)
DAV:   1    -0.118880984390E+03   -0.36356E-05   -0.30177E-02  2525   0.832E-01
DAV:   2    -0.118881045266E+03   -0.60876E-04   -0.60876E-04  2720   0.109E-01
DAV:   3    -0.118881045452E+03   -0.18558E-06   -0.18604E-06  1825   0.649E-03
DAV:   4    -0.118881045481E+03   -0.29038E-07   -0.28880E-07  1355   0.212E-03
DAV:   5    -0.118881045488E+03   -0.71741E-08   -0.73817E-08  1310   0.963E-04
DAV:   6    -0.118881045491E+03   -0.23210E-08   -0.21046E-08  1280   0.489E-04
DAV:   7    -0.118881045491E+03   -0.67666E-09   -0.63662E-09  1280   0.253E-04
DAV:   8    -0.118881045491E+03   -0.21737E-09   -0.20237E-09  1255   0.140E-04    0.157E-02
RMM:   9    -0.118881028387E+03    0.17105E-04   -0.24928E-05  1522   0.146E-02    0.752E-03
RMM:  10    -0.118881023518E+03    0.48691E-05   -0.19954E-05  1404   0.131E-02
   7 F= -.11888102E+03 E0= -.11887924E+03  d E =-.584592E-03
       N       E                     dE             d eps       ncg     rms          rms(c)
DAV:   1    -0.118881143589E+03   -0.11520E-03   -0.33333E-02  2325   0.864E-01
DAV:   2    -0.118881204004E+03   -0.60415E-04   -0.60415E-04  2730   0.110E-01
DAV:   3    -0.118881204261E+03   -0.25768E-06   -0.25749E-06  1610   0.734E-03
DAV:   4    -0.118881204303E+03   -0.41873E-07   -0.41789E-07  1325   0.236E-03
DAV:   5    -0.118881204314E+03   -0.10987E-07   -0.11175E-07  1295   0.108E-03
DAV:   6    -0.118881204317E+03   -0.29395E-08   -0.32451E-08  1250   0.545E-04
DAV:   7    -0.118881204318E+03   -0.11205E-08   -0.98369E-09  1240   0.280E-04
DAV:   8    -0.118881204319E+03   -0.30559E-09   -0.30807E-09  1235   0.153E-04    0.167E-02
RMM:   9    -0.118881185768E+03    0.18550E-04   -0.25151E-05  1515   0.147E-02    0.873E-03
RMM:  10    -0.118881180374E+03    0.53941E-05   -0.25460E-05  1523   0.151E-02
   8 F= -.11888118E+03 E0= -.11887940E+03  d E =-.156857E-03
       N       E                     dE             d eps       ncg     rms          rms(c)
DAV:   1    -0.118881176944E+03    0.88248E-05   -0.31160E-02  2405   0.837E-01
DAV:   2    -0.118881234001E+03   -0.57057E-04   -0.57057E-04  2720   0.107E-01
DAV:   3    -0.118881234234E+03   -0.23338E-06   -0.23321E-06  1795   0.703E-03
DAV:   4    -0.118881234272E+03   -0.37727E-07   -0.37877E-07  1335   0.226E-03
DAV:   5    -0.118881234282E+03   -0.99608E-08   -0.10073E-07  1325   0.103E-03
DAV:   6    -0.118881234285E+03   -0.32805E-08   -0.29124E-08  1285   0.520E-04
DAV:   7    -0.118881234286E+03   -0.34288E-09   -0.88002E-09  1275   0.267E-04
DAV:   8    -0.118881234286E+03   -0.19645E-09   -0.27471E-09  1230   0.146E-04    0.156E-02
RMM:   9    -0.118881218130E+03    0.16155E-04   -0.21061E-05  1429   0.136E-02    0.817E-03
RMM:  10    -0.118881213477E+03    0.46533E-05   -0.22000E-05  1448   0.143E-02
   9 F= -.11888121E+03 E0= -.11887943E+03  d E =-.189959E-03
       N       E                     dE             d eps       ncg     rms          rms(c)
DAV:   1    -0.118881199551E+03    0.18579E-04   -0.58757E-02  2360   0.117E+00
DAV:   2    -0.118881322037E+03   -0.12249E-03   -0.12249E-03  2665   0.156E-01
DAV:   3    -0.118881322473E+03   -0.43656E-06   -0.43640E-06  1845   0.982E-03
DAV:   4    -0.118881322539E+03   -0.66059E-07   -0.66463E-07  1355   0.322E-03
DAV:   5    -0.118881322557E+03   -0.17368E-07   -0.16928E-07  1315   0.147E-03
DAV:   6    -0.118881322561E+03   -0.42346E-08   -0.48088E-08  1260   0.745E-04
DAV:   7    -0.118881322563E+03   -0.18481E-08   -0.14464E-08  1230   0.382E-04
DAV:   8    -0.118881322563E+03   -0.65484E-09   -0.45976E-09  1205   0.210E-04    0.207E-02
RMM:   9    -0.118881294800E+03    0.27763E-04   -0.35432E-05  1785   0.180E-02    0.101E-02
RMM:  10    -0.118881284972E+03    0.98288E-05   -0.34277E-05  1765   0.171E-02
  10 F= -.11888128E+03 E0= -.11887951E+03  d E =-.714946E-04
       N       E                     dE             d eps       ncg     rms          rms(c)
DAV:   1    -0.118881280778E+03    0.14023E-04   -0.16380E-03  2800   0.197E-01
DAV:   2    -0.118881284060E+03   -0.32826E-05   -0.32826E-05  2220   0.260E-02
DAV:   3    -0.118881284116E+03   -0.56003E-07   -0.56377E-07  1475   0.292E-03
DAV:   4    -0.118881284126E+03   -0.98735E-08   -0.95465E-08  1305   0.102E-03
DAV:   5    -0.118881284128E+03   -0.21464E-08   -0.21729E-08  1250   0.462E-04
DAV:   6    -0.118881284129E+03   -0.72032E-09   -0.56049E-09  1220   0.218E-04
DAV:   7    -0.118881284129E+03   -0.65484E-10   -0.15852E-09  1215   0.113E-04
DAV:   8    -0.118881284129E+03    0.43656E-10   -0.47937E-10  1180   0.589E-05    0.370E-03
RMM:   9    -0.118881282986E+03    0.11431E-05   -0.92292E-07   814   0.320E-03
  11 F= -.11888128E+03 E0= -.11887950E+03  d E =-.695088E-04
       N       E                     dE             d eps       ncg     rms          rms(c)
DAV:   1    -0.118881290439E+03   -0.63102E-05   -0.32262E-02  2230   0.864E-01
DAV:   2    -0.118881350182E+03   -0.59743E-04   -0.59743E-04  2725   0.109E-01
DAV:   3    -0.118881350403E+03   -0.22089E-06   -0.22038E-06  1550   0.687E-03
DAV:   4    -0.118881350438E+03   -0.34801E-07   -0.34632E-07  1315   0.222E-03
DAV:   5    -0.118881350446E+03   -0.87239E-08   -0.90096E-08  1250   0.996E-04
DAV:   6    -0.118881350449E+03   -0.24957E-08   -0.25782E-08  1190   0.505E-04
DAV:   7    -0.118881350450E+03   -0.67666E-09   -0.77328E-09  1175   0.258E-04
DAV:   8    -0.118881350450E+03   -0.40745E-09   -0.24079E-09  1165   0.141E-04    0.149E-02
RMM:   9    -0.118881338610E+03    0.11840E-04   -0.16684E-05  1304   0.126E-02    0.771E-03
RMM:  10    -0.118881335732E+03    0.28781E-05   -0.15918E-05  1341   0.127E-02
  12 F= -.11888134E+03 E0= -.11887956E+03  d E =-.527460E-04
