 vasp.5.4.4.18Apr17-6-g9f103f2a35 (build Nov 15 2019 10:10:58) complex          
  
 executed on             LinuxIFC date 2024.07.29  10:44:27
 running on   20 total cores
 distrk:  each k-point on   20 cores,    1 groups
 distr:  one band on NCORES_PER_BAND=   4 cores,    5 groups


--------------------------------------------------------------------------------------------------------


 INCAR:
 POTCAR:    PAW_PBE O 08Apr2002                   
 POTCAR:    PAW_PBE Mg 13Apr2007                  
 POTCAR:    PAW_PBE O 08Apr2002                   
   VRHFIN =O: s2p4                                                              
   LEXCH  = PE                                                                  
   EATOM  =   432.3788 eV,   31.7789 Ry                                         
                                                                                
   TITEL  = PAW_PBE O 08Apr2002                                                 
   LULTRA =        F    use ultrasoft PP ?                                      
   IUNSCR =        1    unscreen: 0-lin 1-nonlin 2-no                           
   RPACOR =    1.200    partial core radius                                     
   POMASS =   16.000; ZVAL   =    6.000    mass and valenz                      
   RCORE  =    1.520    outmost cutoff radius                                   
   RWIGS  =    1.550; RWIGS  =    0.820    wigner-seitz radius (au A)           
   ENMAX  =  400.000; ENMIN  =  300.000 eV                                      
   ICORE  =        2    local potential                                         
   LCOR   =        T    correct aug charges                                     
   LPAW   =        T    paw PP                                                  
   EAUG   =  605.392                                                            
   DEXC   =    0.000                                                            
   RMAX   =    1.553    core radius for proj-oper                               
   RAUG   =    1.300    factor for augmentation sphere                          
   RDEP   =    1.550    radius for radial grids                                 
   RDEPT  =    1.329    core radius for aug-charge                              
                                                                                
   Atomic configuration                                                         
    4 entries                                                                   
     n  l   j            E        occ.                                          
     1  0  0.50      -514.6923   2.0000                                         
     2  0  0.50       -23.9615   2.0000                                         
     2  1  0.50        -9.0305   4.0000                                         
     3  2  1.50        -9.5241   0.0000                                         
   Description                                                                  
     l       E           TYP  RCUT    TYP  RCUT                                 
     0    -23.9615318     23  1.200                                             
     0     -9.5240782     23  1.200                                             
     1     -9.0304911     23  1.520                                             
     1      8.1634956     23  1.520                                             
     2     -9.5240782      7  1.500                                             
  local pseudopotential read in
  partial core-charges read in
  partial kinetic energy density read in
  kinetic energy density of atom read in
  atomic valenz-charges read in
  non local Contribution for L=           0  read in
    real space projection operators read in
  non local Contribution for L=           0  read in
    real space projection operators read in
  non local Contribution for L=           1  read in
    real space projection operators read in
  non local Contribution for L=           1  read in
    real space projection operators read in
    PAW grid and wavefunctions read in
 
   number of l-projection  operators is LMAX  =           4
   number of lm-projection operators is LMMAX =           8
 
 POTCAR:    PAW_PBE Mg 13Apr2007                  
   VRHFIN =Mg: s2p0                                                             
   LEXCH  = PE                                                                  
   EATOM  =    23.0369 eV,    1.6932 Ry                                         
                                                                                
   TITEL  = PAW_PBE Mg 13Apr2007                                                
   LULTRA =        F    use ultrasoft PP ?                                      
   IUNSCR =        1    unscreen: 0-lin 1-nonlin 2-no                           
   RPACOR =    1.500    partial core radius                                     
   POMASS =   24.305; ZVAL   =    2.000    mass and valenz                      
   RCORE  =    2.000    outmost cutoff radius                                   
   RWIGS  =    2.880; RWIGS  =    1.524    wigner-seitz radius (au A)           
   ENMAX  =  200.000; ENMIN  =  100.000 eV                                      
   RCLOC  =    1.506    cutoff for local pot                                    
   LCOR   =        T    correct aug charges                                     
   LPAW   =        T    paw PP                                                  
   EAUG   =  454.734                                                            
   DEXC   =    0.000                                                            
   RMAX   =    2.045    core radius for proj-oper                               
   RAUG   =    1.300    factor for augmentation sphere                          
   RDEP   =    2.025    radius for radial grids                                 
   RDEPT  =    1.942    core radius for aug-charge                              
                                                                                
   Atomic configuration                                                         
    6 entries                                                                   
     n  l   j            E        occ.                                          
     1  0  0.50     -1259.6230   2.0000                                         
     2  0  0.50       -79.8442   2.0000                                         
     2  1  1.50       -46.6121   6.0000                                         
     3  0  0.50        -4.7055   2.0000                                         
     3  1  0.50        -1.3660   0.0000                                         
     3  2  1.50        -1.3606   0.0000                                         
   Description                                                                  
     l       E           TYP  RCUT    TYP  RCUT                                 
     0     -4.7054661     23  2.000                                             
     0     27.2116520     23  2.000                                             
     1      1.3605826     23  2.000                                             
     1     27.2116520     23  2.000                                             
     2     -1.3605826     23  2.000                                             
  local pseudopotential read in
  partial core-charges read in
  partial kinetic energy density read in
  atomic valenz-charges read in
  non local Contribution for L=           0  read in
    real space projection operators read in
  non local Contribution for L=           0  read in
    real space projection operators read in
  non local Contribution for L=           1  read in
    real space projection operators read in
  non local Contribution for L=           1  read in
    real space projection operators read in
  non local Contribution for L=           2  read in
    real space projection operators read in
    PAW grid and wavefunctions read in
 
   number of l-projection  operators is LMAX  =           5
   number of lm-projection operators is LMMAX =          13
 
 Optimization of the real space projectors (new method)

 maximal supplied QI-value         = 24.76
 optimisation between [QCUT,QGAM] = [ 11.64, 28.96] = [ 37.91,234.92] Ry 
 Optimized for a Real-space Cutoff    0.91 Angstroem

   l    n(q)    QCUT    max X(q) W(low)/X(q) W(high)/X(q)  e(spline) 
   0      8    11.635    20.381    0.20E-03    0.22E-03    0.69E-07
   0      8    11.635    15.268    0.22E-03    0.24E-03    0.73E-07
   1      7    11.635     5.964    0.40E-03    0.67E-03    0.12E-06
   1      7    11.635     5.382    0.33E-03    0.56E-03    0.11E-06
 Optimization of the real space projectors (new method)

 maximal supplied QI-value         = 18.90
 optimisation between [QCUT,QGAM] = [ 11.53, 29.10] = [ 37.21,237.16] Ry 
 Optimized for a Real-space Cutoff    1.12 Angstroem

   l    n(q)    QCUT    max X(q) W(low)/X(q) W(high)/X(q)  e(spline) 
   0     10    11.527    28.265    0.21E-03    0.84E-05    0.64E-06
   0     10    11.527    10.429    0.17E-03    0.65E-05    0.50E-06
   1      9    11.527    13.073    0.75E-04    0.28E-03    0.46E-06
   1      9    11.527     9.625    0.62E-04    0.23E-03    0.39E-06
   2      9    11.527     4.652    0.39E-03    0.81E-04    0.28E-06
  PAW_PBE O 08Apr2002                   :
 energy of atom  1       EATOM= -432.3788
 kinetic energy error for atom=    0.0208 (will be added to EATOM!!)
  PAW_PBE Mg 13Apr2007                  :
 energy of atom  2       EATOM=  -23.0369
 kinetic energy error for atom=    0.0000 (will be added to EATOM!!)
 
 
 POSCAR: MgO(1 1 1 (2)                           
  positions in direct lattice
  No initial velocities read in
 exchange correlation table for  LEXCH =        8
   RHO(1)=    0.500       N(1)  =     2000
   RHO(2)=  100.500       N(2)  =     4000

 VTST: version 3.2, (02/03/18)

 CHAIN: initializing optimizer
 
 OPT: Using VASP Conjugate-Gradient optimizer
 CHAIN: Read ICHAIN            0
 
 POSCAR: MgO(1 1 1 (2)                           
  positions in direct lattice
  No initial velocities read in
 


--------------------------------------------------------------------------------------------------------


 ion  position               nearest neighbor table
   1  0.000  0.000  0.056-  18 2.12  18 2.12  18 2.12  14 2.12  14 2.12  14 2.12
   2  0.333  0.667  0.118-  14 2.12  14 2.12  14 2.12  11 2.12  11 2.12  11 2.12
   3  0.000  0.000  0.242-  19 2.12  19 2.12  19 2.12  15 2.12  15 2.12  15 2.12
   4  0.333  0.667  0.305-  15 2.12  15 2.12  15 2.12  12 2.12  12 2.12  12 2.12
   5  0.000  0.000  0.429-  16 2.12  20 2.12  16 2.12  20 2.12  16 2.12  20 2.12
   6  0.333  0.667  0.491-  13 2.12  13 2.12  13 2.12  16 2.12  16 2.12  16 2.12
   7  0.000  0.000  0.615-  17 2.12  17 2.12  17 2.12  21 2.12  21 2.12  21 2.12
   8  0.667  0.333  0.180-  11 2.12  11 2.12  11 2.12  19 2.12  19 2.12  19 2.12
   9  0.667  0.333  0.367-  12 2.12  12 2.12  12 2.12  20 2.12  20 2.12  20 2.12
  10  0.667  0.333  0.553-  21 2.12  21 2.12  21 2.12  13 2.12  13 2.12  13 2.12
  11  0.000  0.000  0.149-   8 2.12   8 2.12   8 2.12   2 2.12   2 2.12   2 2.12  14 3.00  19 3.00
                            14 3.00  14 3.00  19 3.00  19 3.00
  12  0.000  0.000  0.336-   9 2.12   9 2.12   9 2.12   4 2.12   4 2.12   4 2.12  15 3.00  20 3.00
                            15 3.00  15 3.00  20 3.00  20 3.00
  13  0.000  0.000  0.522-   6 2.12   6 2.12   6 2.12  10 2.12  10 2.12  10 2.12  16 3.00  21 3.00
                            16 3.00  16 3.00  21 3.00  21 3.00
  14  0.667  0.333  0.087-   2 2.12   2 2.12   2 2.12   1 2.12   1 2.12   1 2.12  11 3.00  18 3.00
                            18 3.00  11 3.00  11 3.00  18 3.00
  15  0.667  0.333  0.274-   4 2.12   4 2.12   4 2.12   3 2.12   3 2.12   3 2.12  12 3.00  19 3.00
                            19 3.00  12 3.00  12 3.00  19 3.00
  16  0.667  0.333  0.460-   5 2.12   5 2.12   5 2.12   6 2.12   6 2.12   6 2.12  20 3.00  20 3.00
                            20 3.00  13 3.00  13 3.00  13 3.00
  17  0.667  0.333  0.646-   7 2.12   7 2.12   7 2.12  21 3.00  21 3.00  21 3.00
  18  0.333  0.667  0.025-   1 2.12   1 2.12   1 2.12  14 3.00  14 3.00  14 3.00
  19  0.333  0.667  0.211-   3 2.12   3 2.12   3 2.12   8 2.12   8 2.12   8 2.12  11 3.00  15 3.00
                            15 3.00  11 3.00  11 3.00  15 3.00
  20  0.333  0.667  0.398-   5 2.12   5 2.12   5 2.12   9 2.12   9 2.12   9 2.12  16 3.00  16 3.00
                            16 3.00  12 3.00  12 3.00  12 3.00
  21  0.333  0.667  0.584-  10 2.12  10 2.12  10 2.12   7 2.12   7 2.12   7 2.12  13 3.00  17 3.00
                            17 3.00  13 3.00  13 3.00  17 3.00
 
  LATTYP: Found a hexagonal cell.
 ALAT       =     3.0044062036
 C/A-ratio  =    13.1576307710
  
  Lattice vectors:
  
 A1 = (   2.1244360000,  -2.1244360000,   0.0000000000)
 A2 = (   0.0000000000,   2.1244360000,  -2.1244360000)
 A3 = (  22.8231570000,  22.8231570000,  22.8231570000)


Analysis of symmetry for initial positions (statically):
=====================================================================
 Subroutine PRICEL returns:
 Original cell was already a primitive cell.
 

 Routine SETGRP: Setting up the symmetry group for a 
 hexagonal supercell.


 Subroutine GETGRP returns: Found 12 space group operations
 (whereof  6 operations were pure point group operations)
 out of a pool of 24 trial point group operations.


The static configuration has the point symmetry C_3v.
 The point group associated with its full space group is D_3d.


Analysis of symmetry for dynamics (positions and initial velocities):
=====================================================================
 Subroutine PRICEL returns:
 Original cell was already a primitive cell.
 

 Routine SETGRP: Setting up the symmetry group for a 
 hexagonal supercell.


 Subroutine GETGRP returns: Found 12 space group operations
 (whereof  6 operations were pure point group operations)
 out of a pool of 24 trial point group operations.


The dynamic configuration has the point symmetry C_3v.
 The point group associated with its full space group is D_3d.


Analysis of constrained symmetry for selective dynamics:
=====================================================================
 Subroutine PRICEL returns:
 Original cell was already a primitive cell.
 

 Routine SETGRP: Setting up the symmetry group for a 
 hexagonal supercell.


 Subroutine GETGRP returns: Found 12 space group operations
 (whereof  6 operations were pure point group operations)
 out of a pool of 24 trial point group operations.


The constrained configuration has the point symmetry C_3v.
 The point group associated with its full space group is D_3d.


 Subroutine INISYM returns: Found 12 space group operations
 (whereof  6 operations are pure point group operations),
 and found     1 'primitive' translations

 
 
 KPOINTS: K-Spacing Value to Generate K-Mesh: 0.02

Automatic generation of k-mesh.
Space group operators:
 irot       det(A)        alpha          n_x          n_y          n_z        tau_x        tau_y        tau_z
    1     1.000000     0.000000     1.000000     0.000000     0.000000     0.000000     0.000000     0.000000
    2     1.000000   120.000000    -0.577350    -0.577350    -0.577350     0.000000     0.000000     0.000000
    3     1.000000   120.000000     0.577350     0.577350     0.577350     0.000000     0.000000     0.000000
    4    -1.000000   180.000000     0.707107    -0.707107     0.000000     0.000000     0.000000     0.000000
    5    -1.000000   180.000000     0.000000    -0.707107     0.707107     0.000000     0.000000     0.000000
    6    -1.000000   180.000000     0.707107     0.000000    -0.707107     0.000000     0.000000     0.000000
    7    -1.000000     0.000000     1.000000     0.000000     0.000000     0.000000     0.000000     0.671143
    8    -1.000000   120.000000    -0.577350    -0.577350    -0.577350     0.000000     0.000000     0.671143
    9    -1.000000   120.000000     0.577350     0.577350     0.577350     0.000001    -0.000000     0.671143
   10     1.000000   180.000000     0.707107    -0.707107     0.000000     0.000001    -0.000000     0.671143
   11     1.000000   180.000000     0.000000    -0.707107     0.707107     0.000000     0.000000     0.671143
   12     1.000000   180.000000     0.707107     0.000000    -0.707107     0.000000     0.000000     0.671143
 
 Subroutine IBZKPT returns following result:
 ===========================================
 
 Found     20 irreducible k-points:
 
 Following reciprocal coordinates:
            Coordinates               Weight
  0.062500  0.062500  0.000000     48.000000
  0.187500  0.062500  0.000000     96.000000
  0.312500  0.062500 -0.000000     96.000000
  0.437500  0.062500  0.000000     96.000000
 -0.437500  0.062500  0.000000     96.000000
 -0.312500  0.062500 -0.000000     96.000000
 -0.187500  0.062500  0.000000     96.000000
 -0.062500  0.062500  0.000000     48.000000
  0.187500  0.187500  0.000000     48.000000
  0.312500  0.187500  0.000000     96.000000
  0.437500  0.187500 -0.000000     96.000000
 -0.437500  0.187500  0.000000     96.000000
 -0.312500  0.187500 -0.000000     96.000000
 -0.187500  0.187500 -0.000000     48.000000
  0.312500  0.312500  0.000000     48.000000
  0.437500  0.312500  0.000000     96.000000
 -0.437500  0.312500  0.000000     96.000000
 -0.312500  0.312500  0.000000     48.000000
  0.437500  0.437500  0.000000     48.000000
 -0.437500  0.437500  0.000000     48.000000
 
 Following cartesian coordinates:
            Coordinates               Weight
  0.029420  0.000000 -0.029420     48.000000
  0.068646 -0.019613 -0.049033     96.000000
  0.107872 -0.039226 -0.068646     96.000000
  0.147098 -0.058839 -0.088259     96.000000
 -0.127485  0.078452  0.049033     96.000000
 -0.088259  0.058839  0.029420     96.000000
 -0.049033  0.039226  0.009807     96.000000
 -0.009807  0.019613 -0.009807     48.000000
  0.088259  0.000000 -0.088259     48.000000
  0.127485 -0.019613 -0.107872     96.000000
  0.166711 -0.039226 -0.127485     96.000000
 -0.107872  0.098065  0.009807     96.000000
 -0.068646  0.078452 -0.009807     96.000000
 -0.029420  0.058839 -0.029420     48.000000
  0.147098  0.000000 -0.147098     48.000000
  0.186324 -0.019613 -0.166711     96.000000
 -0.088259  0.117678 -0.029420     96.000000
 -0.049033  0.098065 -0.049033     48.000000
  0.205937  0.000000 -0.205937     48.000000
 -0.068646  0.137291 -0.068646     48.000000
 


--------------------------------------------------------------------------------------------------------




 Dimension of arrays:
   k-points           NKPTS =     20   k-points in BZ     NKDIM =     20   number of bands    NBANDS=     55
   number of dos      NEDOS =    301   number of ions     NIONS =     21
   non local maximal  LDIM  =      5   non local SUM 2l+1 LMDIM =     13
   total plane-waves  NPLWV = 169344
   max r-space proj   IRMAX =   3300   max aug-charges    IRDMAX=   7800
   dimension x,y,z NGX =    24 NGY =   24 NGZ =  294
   dimension x,y,z NGXF=    32 NGYF=   32 NGZF=  432
   support grid    NGXF=    32 NGYF=   32 NGZF=  432
   ions per type =              10  11
   NGX,Y,Z   is equivalent  to a cutoff of  13.28, 13.28, 12.36 a.u.
   NGXF,Y,Z  is equivalent  to a cutoff of  17.71, 17.71, 18.17 a.u.

 SYSTEM =  Al110                                   
 POSCAR =  MgO(1 1 1 (2)                           

 Startparameter for this run:
   NWRITE =      2    write-flag & timer
   PREC   = h         normal or accurate (medium, high low for compatibility)
   ISTART =      0    job   : 0-new  1-cont  2-samecut
   ICHARG =      2    charge: 1-file 2-atom 10-const
   ISPIN  =      1    spin polarized calculation?
   LNONCOLLINEAR =      F non collinear calculations
   LSORBIT =      F    spin-orbit coupling
   INIWAV =      1    electr: 0-lowe 1-rand  2-diag
   LASPH  =      F    aspherical Exc in radial PAW
   METAGGA=      F    non-selfconsistent MetaGGA calc.

 Electronic Relaxation 1
   ENCUT  =  520.0 eV  38.22 Ry    6.18 a.u.   5.59  5.59 73.50*2*pi/ulx,y,z
   ENINI  =  520.0     initial cutoff
   ENAUG  =  605.4 eV  augmentation charge cutoff
   NELM   =    100;   NELMIN=  6; NELMDL=  8     # of ELM steps 
   EDIFF  = 0.1E-04   stopping-criterion for ELM
   LREAL  =      T    real-space projection
   NLSPLINE    = F    spline interpolate recip. space projectors
   LCOMPAT=      F    compatible to vasp.4.4
   GGA_COMPAT  = T    GGA compatible to vasp.4.4-vasp.4.6
   LMAXPAW     = -100 max onsite density
   LMAXMIX     =    2 max onsite mixed and CHGCAR
   VOSKOWN=      0    Vosko Wilk Nusair interpolation
   ROPT   =   -0.00040  -0.00040
 Ionic relaxation
   EDIFFG = -.1E-01   stopping-criterion for IOM
   NSW    =    500    number of steps for IOM
   NBLOCK =      1;   KBLOCK =    500    inner block; outer block 
   IBRION =      2    ionic relax: 0-MD 1-quasi-New 2-CG
   NFREE  =      1    steps in history (QN), initial steepest desc. (CG)
   ISIF   =      2    stress and relaxation
   IWAVPR =     11    prediction:  0-non 1-charg 2-wave 3-comb
   ISYM   =      2    0-nonsym 1-usesym 2-fastsym
   LCORR  =      T    Harris-Foulkes like correction to forces

   POTIM  = 0.5000    time-step for ionic-motion
   TEIN   =    0.0    initial temperature
   TEBEG  =    0.0;   TEEND  =   0.0 temperature during run
   SMASS  =  -3.00    Nose mass-parameter (am)
   estimated Nose-frequenzy (Omega)   =  0.10E-29 period in steps =****** mass=  -0.206E-27a.u.
   SCALEE = 1.0000    scale energy and forces
   NPACO  =    256;   APACO  = 16.0  distance and # of slots for P.C.
   PSTRESS=    0.0 pullay stress

  Mass of Ions in am
   POMASS =  16.00 24.30
  Ionic Valenz
   ZVAL   =   6.00  2.00
  Atomic Wigner-Seitz radii
   RWIGS  =  -1.00 -1.00
  virtual crystal weights 
   VCA    =   1.00  1.00
   NELECT =      82.0000    total number of electrons
   NUPDOWN=      -1.0000    fix difference up-down

 DOS related values:
   EMIN   =  10.00;   EMAX   =-10.00  energy-range for DOS
   EFERMI =   0.00
   ISMEAR =     0;   SIGMA  =   0.05  broadening in eV -4-tet -1-fermi 0-gaus

 Electronic relaxation 2 (details)
   IALGO  =     68    algorithm
   LDIAG  =      T    sub-space diagonalisation (order eigenvalues)
   LSUBROT=      F    optimize rotation matrix (better conditioning)
   TURBO    =      0    0=normal 1=particle mesh
   IRESTART =      0    0=no restart 2=restart with 2 vectors
   NREBOOT  =      0    no. of reboots
   NMIN     =      0    reboot dimension
   EREF     =   0.00    reference energy to select bands
   IMIX   =      4    mixing-type and parameters
     AMIX     =   0.40;   BMIX     =  1.00
     AMIX_MAG =   1.60;   BMIX_MAG =  1.00
     AMIN     =   0.10
     WC   =   100.;   INIMIX=   1;  MIXPRE=   1;  MAXMIX= -45

 Intra band minimization:
   WEIMIN = 0.0010     energy-eigenvalue tresh-hold
   EBREAK =  0.45E-07  absolut break condition
   DEPER  =   0.30     relativ break condition  

   TIME   =   0.40     timestep for ELM

  volume/ion in A,a.u.               =      14.72        99.30
  Fermi-wavevector in a.u.,A,eV,Ry     =   1.052006  1.988002 15.057780  1.106716
  Thomas-Fermi vector in A             =   2.187071
 
 Write flags
   LWAVE        =      F    write WAVECAR
   LDOWNSAMPLE  =      F    k-point downsampling of WAVECAR
   LCHARG       =      F    write CHGCAR
   LVTOT        =      F    write LOCPOT, total local potential
   LVHAR        =      F    write LOCPOT, Hartree potential only
   LELF         =      F    write electronic localiz. function (ELF)
   LORBIT       =      0    0 simple, 1 ext, 2 COOP (PROOUT), +10 PAW based schemes


 Dipole corrections
   LMONO  =      F    monopole corrections only (constant potential shift)
   LDIPOL =      F    correct potential (dipole corrections)
   IDIPOL =      0    1-x, 2-y, 3-z, 4-all directions 
   EPSILON=  1.0000000 bulk dielectric constant

 Exchange correlation treatment:
   GGA     =    --    GGA type
   LEXCH   =     8    internal setting for exchange type
   VOSKOWN=      0    Vosko Wilk Nusair interpolation
   LHFCALC =     F    Hartree Fock is set to
   LHFONE  =     F    Hartree Fock one center treatment
   AEXX    =    0.0000 exact exchange contribution

 Linear response parameters
   LEPSILON=     F    determine dielectric tensor
   LRPA    =     F    only Hartree local field effects (RPA)
   LNABLA  =     F    use nabla operator in PAW spheres
   LVEL    =     F    velocity operator in full k-point grid
   LINTERFAST=   F  fast interpolation
   KINTER  =     0    interpolate to denser k-point grid
   CSHIFT  =0.1000    complex shift for real part using Kramers Kronig
   OMEGAMAX=  -1.0    maximum frequency
   DEG_THRESHOLD= 0.2000000E-02 threshold for treating states as degnerate
   RTIME   =   -0.100 relaxation time in fs
  (WPLASMAI=    0.000 imaginary part of plasma frequency in eV, 0.658/RTIME)
   DFIELD  = 0.0000000 0.0000000 0.0000000 field for delta impulse in time
 
 Orbital magnetization related:
   ORBITALMAG=     F  switch on orbital magnetization
   LCHIMAG   =     F  perturbation theory with respect to B field
   DQ        =  0.001000  dq finite difference perturbation B field
   LLRAUG    =     F  two centre corrections for induced B field



--------------------------------------------------------------------------------------------------------


 conjugate gradient relaxation of ions
   using selective dynamics as specified on POSCAR
 charge density and potential will be updated during run
 non-spin polarized calculation
 RMM-DIIS sequential band-by-band and
  variant of blocked Davidson during initial phase
 perform sub-space diagonalisation
    before iterative eigenvector-optimisation
 modified Broyden-mixing scheme, WC =      100.0
 initial mixing is a Kerker type mixing with AMIX =  0.4000 and BMIX =      1.0000
 Hartree-type preconditioning will be used
 using additional bands           14
 real space projection scheme for non local part
 use partial core corrections
 calculate Harris-corrections to forces 
   (improved forces if not selfconsistent)
 use gradient corrections 
 use of overlap-Matrix (Vanderbilt PP)
 Gauss-broadening in eV      SIGMA  =   0.05


--------------------------------------------------------------------------------------------------------


  energy-cutoff  :      520.00
  volume of cell :      309.02
      direct lattice vectors                 reciprocal lattice vectors
     2.124436000 -2.124436000  0.000000000     0.313808779 -0.156904389 -0.156904389
     0.000000000  2.124436000 -2.124436000     0.156904389  0.156904389 -0.313808779
    22.823157000 22.823157000 22.823157000     0.014605049  0.014605049  0.014605049

  length of vectors
     3.004406204  3.004406204 39.530867513     0.384335692  0.384335692  0.025296687


 
 k-points in units of 2pi/SCALE and weight: K-Spacing Value to Generate K-Mesh: 0.02
   0.02941957  0.00000000 -0.02941957       0.031
   0.06864567 -0.01961305 -0.04903262       0.062
   0.10787177 -0.03922610 -0.06864567       0.062
   0.14709787 -0.05883915 -0.08825872       0.062
  -0.12748482  0.07845219  0.04903262       0.062
  -0.08825872  0.05883915  0.02941957       0.062
  -0.04903262  0.03922610  0.00980652       0.062
  -0.00980652  0.01961305 -0.00980652       0.031
   0.08825872  0.00000000 -0.08825872       0.031
   0.12748482 -0.01961305 -0.10787177       0.062
   0.16671091 -0.03922610 -0.12748482       0.062
  -0.10787177  0.09806524  0.00980652       0.062
  -0.06864567  0.07845219 -0.00980652       0.062
  -0.02941957  0.05883915 -0.02941957       0.031
   0.14709787  0.00000000 -0.14709787       0.031
   0.18632396 -0.01961305 -0.16671091       0.062
  -0.08825872  0.11767829 -0.02941957       0.062
  -0.04903262  0.09806524 -0.04903262       0.031
   0.20593701  0.00000000 -0.20593701       0.031
  -0.06864567  0.13729134 -0.06864567       0.031
 
 k-points in reciprocal lattice and weights: K-Spacing Value to Generate K-Mesh: 0.02
   0.06250000  0.06250000  0.00000000       0.031
   0.18750000  0.06250000  0.00000000       0.062
   0.31250000  0.06250000 -0.00000000       0.062
   0.43750000  0.06250000  0.00000000       0.062
  -0.43750000  0.06250000  0.00000000       0.062
  -0.31250000  0.06250000 -0.00000000       0.062
  -0.18750000  0.06250000  0.00000000       0.062
  -0.06250000  0.06250000  0.00000000       0.031
   0.18750000  0.18750000  0.00000000       0.031
   0.31250000  0.18750000  0.00000000       0.062
   0.43750000  0.18750000 -0.00000000       0.062
  -0.43750000  0.18750000  0.00000000       0.062
  -0.31250000  0.18750000 -0.00000000       0.062
  -0.18750000  0.18750000 -0.00000000       0.031
   0.31250000  0.31250000  0.00000000       0.031
   0.43750000  0.31250000  0.00000000       0.062
  -0.43750000  0.31250000  0.00000000       0.062
  -0.31250000  0.31250000  0.00000000       0.031
   0.43750000  0.43750000  0.00000000       0.031
  -0.43750000  0.43750000  0.00000000       0.031
 
 position of ions in fractional coordinates (direct lattice) 
   0.00000000  0.00000000  0.05632400
   0.33333300  0.66666700  0.11837900
   0.00000000  0.00000000  0.24248900
   0.33333300  0.66666700  0.30454400
   0.00000000  0.00000000  0.42865400
   0.33333300  0.66666700  0.49070900
   0.00000000  0.00000000  0.61481900
   0.66666700  0.33333300  0.18043400
   0.66666700  0.33333300  0.36659900
   0.66666700  0.33333300  0.55276400
   0.00000000  0.00000000  0.14940700
   0.00000000  0.00000000  0.33557200
   0.00000000  0.00000000  0.52173600
   0.66666700  0.33333300  0.08735200
   0.66666700  0.33333300  0.27351700
   0.66666700  0.33333300  0.45968100
   0.66666700  0.33333300  0.64584600
   0.33333300  0.66666700  0.02529700
   0.33333300  0.66666700  0.21146200
   0.33333300  0.66666700  0.39762700
   0.33333300  0.66666700  0.58379100
 
 position of ions in cartesian coordinates  (Angst):
   1.28549149  1.28549149  1.28549149
   3.40992713  3.40992925  1.28549113
   5.53436452  5.53436452  5.53436452
   7.65880015  7.65880228  5.53436415
   9.78323754  9.78323754  9.78323754
  11.90767317 11.90767530  9.78323717
  14.03211056 14.03211056 14.03211056
   5.53436488  3.40992676  3.40992888
   9.78323791  7.65879978  7.65880191
  14.03211093 11.90767281 11.90767493
   3.40993942  3.40993942  3.40993942
   7.65881244  7.65881244  7.65881244
  11.90766264 11.90766264 11.90766264
   3.40993979  1.28550166  1.28550379
   7.65881281  5.53437468  5.53437681
  11.90766301  9.78322488  9.78322701
  16.15653603 14.03209791 14.03210003
   1.28550203  1.28550415 -0.83893397
   5.53437505  5.53437718  3.40993905
   9.78324807  9.78325020  7.65881207
  14.03209827 14.03210040 11.90766227
 


--------------------------------------------------------------------------------------------------------


 k-point  1 :   0.0625 0.0625 0.0000  plane waves:    8409
 k-point  2 :   0.1875 0.0625 0.0000  plane waves:    8374
 k-point  3 :   0.3125 0.0625-0.0000  plane waves:    8308
 k-point  4 :   0.4375 0.0625 0.0000  plane waves:    8279
 k-point  5 :  -0.4375 0.0625 0.0000  plane waves:    8303
 k-point  6 :  -0.3125 0.0625-0.0000  plane waves:    8333
 k-point  7 :  -0.1875 0.0625 0.0000  plane waves:    8385
 k-point  8 :  -0.0625 0.0625 0.0000  plane waves:    8429
 k-point  9 :   0.1875 0.1875 0.0000  plane waves:    8323
 k-point 10 :   0.3125 0.1875 0.0000  plane waves:    8292
 k-point 11 :   0.4375 0.1875-0.0000  plane waves:    8281
 k-point 12 :  -0.4375 0.1875 0.0000  plane waves:    8304
 k-point 13 :  -0.3125 0.1875-0.0000  plane waves:    8346
 k-point 14 :  -0.1875 0.1875-0.0000  plane waves:    8396
 k-point 15 :   0.3125 0.3125 0.0000  plane waves:    8318
 k-point 16 :   0.4375 0.3125 0.0000  plane waves:    8288
 k-point 17 :  -0.4375 0.3125 0.0000  plane waves:    8303
 k-point 18 :  -0.3125 0.3125 0.0000  plane waves:    8314
 k-point 19 :   0.4375 0.4375 0.0000  plane waves:    8236
 k-point 20 :  -0.4375 0.4375 0.0000  plane waves:    8288

 maximum and minimum number of plane-waves per node :      2117     2048

 maximum number of plane-waves:      8429
 maximum index in each direction: 
   IXMAX=    6   IYMAX=    5   IZMAX=   73
   IXMIN=   -6   IYMIN=   -6   IZMIN=  -73


 real space projection operators:
  total allocation   :       4579.63 KBytes
  max/ min on nodes  :       1155.76       1127.41


 parallel 3D FFT for wavefunctions:
    minimum data exchange during FFTs selected (reduces bandwidth)
 parallel 3D FFT for charge:
    minimum data exchange during FFTs selected (reduces bandwidth)


 total amount of memory used by VASP MPI-rank0    45786. kBytes
=======================================================================

   base      :      30000. kBytes
   nonlr-proj:       2592. kBytes
   fftplans  :       2241. kBytes
   grid      :       3249. kBytes
   one-center:         48. kBytes
   wavefun   :       7656. kBytes
 
     INWAV:  cpu time    0.0000: real time    0.0001
 Broyden mixing: mesh for mixing (old mesh)
   NGX = 11   NGY = 11   NGZ =147
  (NGX  = 32   NGY  = 32   NGZ  =432)
  gives a total of  17787 points

 initial charge density was supplied:
 charge density of overlapping atoms calculated
 number of electron      82.0000000 magnetization 
 keeping initial charge density in first step


--------------------------------------------------------------------------------------------------------


 Maximum index for non-local projection operator          815
 Maximum index for augmentation-charges          563 (set IRDMAX)


--------------------------------------------------------------------------------------------------------


 First call to EWALD:  gamma=   0.262
 Maximum number of real-space cells 6x 6x 1
 Maximum number of reciprocal cells 1x 1x14

    FEWALD:  cpu time    0.0014: real time    0.0017


--------------------------------------- Iteration      1(   1)  ---------------------------------------


    POTLOK:  cpu time    0.0150: real time    0.0151
    SETDIJ:  cpu time    0.0040: real time    0.0040
     EDDAV:  cpu time    2.3969: real time    2.4761
       DOS:  cpu time    0.0018: real time    0.0018
    --------------------------------------------
      LOOP:  cpu time    2.4177: real time    2.4970

 eigenvalue-minimisations  :  2200
 total energy-change (2. order) : 0.5804239E+03  (-0.3782710E+04)
 number of electron      82.0000000 magnetization 
 augmentation part       82.0000000 magnetization 

 Free energy of the ion-electron system (eV)
  ---------------------------------------------------
  alpha Z        PSCENC =       127.13813545
  Ewald energy   TEWEN  =     30610.79728487
  -Hartree energ DENC   =    -35003.32226627
  -exchange      EXHF   =         0.00000000
  -V(xc)+E(xc)   XCENC  =      -254.43580468
  PAW double counting   =      4183.86841685    -3631.36502166
  entropy T*S    EENTRO =        -0.00693260
  eigenvalues    EBANDS =       -29.23526230
  atomic energy  EATOM  =      4576.98536667
  Solvation  Ediel_sol  =         0.00000000
  ---------------------------------------------------
  free energy    TOTEN  =       580.42391634 eV

  energy without entropy =      580.43084894  energy(sigma->0) =      580.42738264


--------------------------------------------------------------------------------------------------------




--------------------------------------- Iteration      1(   2)  ---------------------------------------


     EDDAV:  cpu time    2.9601: real time    2.9802
       DOS:  cpu time    0.0008: real time    0.0008
    --------------------------------------------
      LOOP:  cpu time    2.9609: real time    2.9810

 eigenvalue-minimisations  :  2930
 total energy-change (2. order) :-0.6463400E+03  (-0.6194691E+03)
 number of electron      82.0000000 magnetization 
 augmentation part       82.0000000 magnetization 

 Free energy of the ion-electron system (eV)
  ---------------------------------------------------
  alpha Z        PSCENC =       127.13813545
  Ewald energy   TEWEN  =     30610.79728487
  -Hartree energ DENC   =    -35003.32226627
  -exchange      EXHF   =         0.00000000
  -V(xc)+E(xc)   XCENC  =      -254.43580468
  PAW double counting   =      4183.86841685    -3631.36502166
  entropy T*S    EENTRO =        -0.00153307
  eigenvalues    EBANDS =      -675.58061875
  atomic energy  EATOM  =      4576.98536667
  Solvation  Ediel_sol  =         0.00000000
  ---------------------------------------------------
  free energy    TOTEN  =       -65.91604058 eV

  energy without entropy =      -65.91450751  energy(sigma->0) =      -65.91527404


--------------------------------------------------------------------------------------------------------




--------------------------------------- Iteration      1(   3)  ---------------------------------------


     EDDAV:  cpu time    2.7701: real time    2.7894
       DOS:  cpu time    0.0008: real time    0.0008
    --------------------------------------------
      LOOP:  cpu time    2.7710: real time    2.7902

 eigenvalue-minimisations  :  2700
 total energy-change (2. order) :-0.6810232E+02  (-0.6759670E+02)
 number of electron      82.0000000 magnetization 
 augmentation part       82.0000000 magnetization 

 Free energy of the ion-electron system (eV)
  ---------------------------------------------------
  alpha Z        PSCENC =       127.13813545
  Ewald energy   TEWEN  =     30610.79728487
  -Hartree energ DENC   =    -35003.32226627
  -exchange      EXHF   =         0.00000000
  -V(xc)+E(xc)   XCENC  =      -254.43580468
  PAW double counting   =      4183.86841685    -3631.36502166
  entropy T*S    EENTRO =        -0.00513722
  eigenvalues    EBANDS =      -743.67933628
  atomic energy  EATOM  =      4576.98536667
  Solvation  Ediel_sol  =         0.00000000
  ---------------------------------------------------
  free energy    TOTEN  =      -134.01836226 eV

  energy without entropy =     -134.01322504  energy(sigma->0) =     -134.01579365


--------------------------------------------------------------------------------------------------------




--------------------------------------- Iteration      1(   4)  ---------------------------------------


     EDDAV:  cpu time    2.8803: real time    2.8995
       DOS:  cpu time    0.0014: real time    0.0017
    --------------------------------------------
      LOOP:  cpu time    2.8817: real time    2.9012

 eigenvalue-minimisations  :  2740
 total energy-change (2. order) :-0.1406392E+01  (-0.1402155E+01)
 number of electron      82.0000000 magnetization 
 augmentation part       82.0000000 magnetization 

 Free energy of the ion-electron system (eV)
  ---------------------------------------------------
  alpha Z        PSCENC =       127.13813545
  Ewald energy   TEWEN  =     30610.79728487
  -Hartree energ DENC   =    -35003.32226627
  -exchange      EXHF   =         0.00000000
  -V(xc)+E(xc)   XCENC  =      -254.43580468
  PAW double counting   =      4183.86841685    -3631.36502166
  entropy T*S    EENTRO =        -0.00467124
  eigenvalues    EBANDS =      -745.08619394
  atomic energy  EATOM  =      4576.98536667
  Solvation  Ediel_sol  =         0.00000000
  ---------------------------------------------------
  free energy    TOTEN  =      -135.42475395 eV

  energy without entropy =     -135.42008270  energy(sigma->0) =     -135.42241833


--------------------------------------------------------------------------------------------------------




--------------------------------------- Iteration      1(   5)  ---------------------------------------


     EDDAV:  cpu time    2.7477: real time    2.7693
       DOS:  cpu time    0.0008: real time    0.0008
    --------------------------------------------
      LOOP:  cpu time    2.7485: real time    2.7701

 eigenvalue-minimisations  :  2720
 total energy-change (2. order) :-0.2966187E-01  (-0.2964443E-01)
 number of electron      82.0000000 magnetization 
 augmentation part       82.0000000 magnetization 

 Free energy of the ion-electron system (eV)
  ---------------------------------------------------
  alpha Z        PSCENC =       127.13813545
  Ewald energy   TEWEN  =     30610.79728487
  -Hartree energ DENC   =    -35003.32226627
  -exchange      EXHF   =         0.00000000
  -V(xc)+E(xc)   XCENC  =      -254.43580468
  PAW double counting   =      4183.86841685    -3631.36502166
  entropy T*S    EENTRO =        -0.00463434
  eigenvalues    EBANDS =      -745.11589272
  atomic energy  EATOM  =      4576.98536667
  Solvation  Ediel_sol  =         0.00000000
  ---------------------------------------------------
  free energy    TOTEN  =      -135.45441582 eV

  energy without entropy =     -135.44978148  energy(sigma->0) =     -135.45209865


--------------------------------------------------------------------------------------------------------




--------------------------------------- Iteration      1(   6)  ---------------------------------------


     EDDAV:  cpu time    2.8292: real time    2.8485
       DOS:  cpu time    0.0008: real time    0.0008
    --------------------------------------------
      LOOP:  cpu time    2.8300: real time    2.8493

 eigenvalue-minimisations  :  2760
 total energy-change (2. order) :-0.9221886E-03  (-0.9219509E-03)
 number of electron      82.0000000 magnetization 
 augmentation part       82.0000000 magnetization 

 Free energy of the ion-electron system (eV)
  ---------------------------------------------------
  alpha Z        PSCENC =       127.13813545
  Ewald energy   TEWEN  =     30610.79728487
  -Hartree energ DENC   =    -35003.32226627
  -exchange      EXHF   =         0.00000000
  -V(xc)+E(xc)   XCENC  =      -254.43580468
  PAW double counting   =      4183.86841685    -3631.36502166
  entropy T*S    EENTRO =        -0.00463394
  eigenvalues    EBANDS =      -745.11681531
  atomic energy  EATOM  =      4576.98536667
  Solvation  Ediel_sol  =         0.00000000
  ---------------------------------------------------
  free energy    TOTEN  =      -135.45533801 eV

  energy without entropy =     -135.45070407  energy(sigma->0) =     -135.45302104


--------------------------------------------------------------------------------------------------------




--------------------------------------- Iteration      1(   7)  ---------------------------------------


     EDDAV:  cpu time    2.5906: real time    2.6037
       DOS:  cpu time    0.0010: real time    0.0012
    --------------------------------------------
      LOOP:  cpu time    2.5916: real time    2.6049

 eigenvalue-minimisations  :  2710
 total energy-change (2. order) :-0.3651359E-04  (-0.3650758E-04)
 number of electron      82.0000000 magnetization 
 augmentation part       82.0000000 magnetization 

 Free energy of the ion-electron system (eV)
  ---------------------------------------------------
  alpha Z        PSCENC =       127.13813545
  Ewald energy   TEWEN  =     30610.79728487
  -Hartree energ DENC   =    -35003.32226627
  -exchange      EXHF   =         0.00000000
  -V(xc)+E(xc)   XCENC  =      -254.43580468
  PAW double counting   =      4183.86841685    -3631.36502166
  entropy T*S    EENTRO =        -0.00463393
  eigenvalues    EBANDS =      -745.11685184
  atomic energy  EATOM  =      4576.98536667
  Solvation  Ediel_sol  =         0.00000000
  ---------------------------------------------------
  free energy    TOTEN  =      -135.45537452 eV

  energy without entropy =     -135.45074060  energy(sigma->0) =     -135.45305756


--------------------------------------------------------------------------------------------------------




--------------------------------------- Iteration      1(   8)  ---------------------------------------


     EDDAV:  cpu time    1.7199: real time    1.7221
       DOS:  cpu time    0.0009: real time    0.0009
    CHARGE:  cpu time    0.0996: real time    0.0997
    MIXING:  cpu time    0.0010: real time    0.0010
    --------------------------------------------
      LOOP:  cpu time    1.8214: real time    1.8236

 eigenvalue-minimisations  :  2140
 total energy-change (2. order) :-0.1530501E-05  (-0.1530435E-05)
 number of electron      81.9999999 magnetization 
 augmentation part        8.0231747 magnetization 

 Broyden mixing:
  rms(total) = 0.23288E+01    rms(broyden)= 0.23283E+01
  rms(prec ) = 0.23997E+01
  weight for this iteration     100.00

 Free energy of the ion-electron system (eV)
  ---------------------------------------------------
  alpha Z        PSCENC =       127.13813545
  Ewald energy   TEWEN  =     30610.79728487
  -Hartree energ DENC   =    -35003.32226627
  -exchange      EXHF   =         0.00000000
  -V(xc)+E(xc)   XCENC  =      -254.43580468
  PAW double counting   =      4183.86841685    -3631.36502166
  entropy T*S    EENTRO =        -0.00463393
  eigenvalues    EBANDS =      -745.11685337
  atomic energy  EATOM  =      4576.98536667
  Solvation  Ediel_sol  =         0.00000000
  ---------------------------------------------------
  free energy    TOTEN  =      -135.45537605 eV

  energy without entropy =     -135.45074213  energy(sigma->0) =     -135.45305909


--------------------------------------------------------------------------------------------------------




--------------------------------------- Iteration      1(   9)  ---------------------------------------


    POTLOK:  cpu time    0.0111: real time    0.0113
    SETDIJ:  cpu time    0.0032: real time    0.0040
    EDDIAG:  cpu time    0.3301: real time    0.3306
  RMM-DIIS:  cpu time    1.6779: real time    1.6823
    ORTHCH:  cpu time    0.0769: real time    0.0770
       DOS:  cpu time    0.0008: real time    0.0008
    CHARGE:  cpu time    0.1409: real time    0.1411
    MIXING:  cpu time    0.0008: real time    0.0008
    --------------------------------------------
      LOOP:  cpu time    2.2418: real time    2.2479

 eigenvalue-minimisations  :  2200
 total energy-change (2. order) : 0.1617304E+02  (-0.7793668E+01)
 number of electron      82.0000000 magnetization 
 augmentation part        6.6035345 magnetization 

 Broyden mixing:
  rms(total) = 0.74343E+00    rms(broyden)= 0.74246E+00
  rms(prec ) = 0.75091E+00
  weight for this iteration     100.00

 eigenvalues of (default mixing * dielectric matrix)
  average eigenvalue GAMMA=   0.8480
  0.8480

 Free energy of the ion-electron system (eV)
  ---------------------------------------------------
  alpha Z        PSCENC =       127.13813545
  Ewald energy   TEWEN  =     30610.79728487
  -Hartree energ DENC   =    -35289.60685273
  -exchange      EXHF   =         0.00000000
  -V(xc)+E(xc)   XCENC  =      -240.98410627
  PAW double counting   =      4905.64958712    -4356.60583560
  entropy T*S    EENTRO =        -0.00363127
  eigenvalues    EBANDS =      -452.65228260
  atomic energy  EATOM  =      4576.98536667
  Solvation  Ediel_sol  =         0.00000000
  ---------------------------------------------------
  free energy    TOTEN  =      -119.28233437 eV

  energy without entropy =     -119.27870310  energy(sigma->0) =     -119.28051873


--------------------------------------------------------------------------------------------------------




--------------------------------------- Iteration      1(  10)  ---------------------------------------


    POTLOK:  cpu time    0.0101: real time    0.0102
    SETDIJ:  cpu time    0.0031: real time    0.0031
    EDDIAG:  cpu time    0.4781: real time    0.4787
  RMM-DIIS:  cpu time    1.7410: real time    1.7465
    ORTHCH:  cpu time    0.0401: real time    0.0402
       DOS:  cpu time    0.0008: real time    0.0008
    CHARGE:  cpu time    0.1006: real time    0.1007
    MIXING:  cpu time    0.0008: real time    0.0008
    --------------------------------------------
      LOOP:  cpu time    2.3746: real time    2.3809

 eigenvalue-minimisations  :  2205
 total energy-change (2. order) : 0.2997715E+00  (-0.7094995E-01)
 number of electron      82.0000000 magnetization 
 augmentation part        6.5956536 magnetization 

 Broyden mixing:
  rms(total) = 0.48362E+00    rms(broyden)= 0.48358E+00
  rms(prec ) = 0.48937E+00
  weight for this iteration     100.00

 eigenvalues of (default mixing * dielectric matrix)
  average eigenvalue GAMMA=   1.6581
  1.0121  2.3041

 Free energy of the ion-electron system (eV)
  ---------------------------------------------------
  alpha Z        PSCENC =       127.13813545
  Ewald energy   TEWEN  =     30610.79728487
  -Hartree energ DENC   =    -35277.55775039
  -exchange      EXHF   =         0.00000000
  -V(xc)+E(xc)   XCENC  =      -240.57691283
  PAW double counting   =      5122.96960342    -4573.59083765
  entropy T*S    EENTRO =        -0.00357018
  eigenvalues    EBANDS =      -465.14388228
  atomic energy  EATOM  =      4576.98536667
  Solvation  Ediel_sol  =         0.00000000
  ---------------------------------------------------
  free energy    TOTEN  =      -118.98256291 eV

  energy without entropy =     -118.97899273  energy(sigma->0) =     -118.98077782


--------------------------------------------------------------------------------------------------------




--------------------------------------- Iteration      1(  11)  ---------------------------------------


    POTLOK:  cpu time    0.0117: real time    0.0118
    SETDIJ:  cpu time    0.0031: real time    0.0031
    EDDIAG:  cpu time    0.3809: real time    0.3814
  RMM-DIIS:  cpu time    1.5405: real time    1.5443
    ORTHCH:  cpu time    0.0395: real time    0.0396
       DOS:  cpu time    0.0008: real time    0.0008
    CHARGE:  cpu time    0.1014: real time    0.1015
    MIXING:  cpu time    0.0008: real time    0.0008
    --------------------------------------------
      LOOP:  cpu time    2.0787: real time    2.0832

 eigenvalue-minimisations  :  2200
 total energy-change (2. order) : 0.9669753E-01  (-0.6718936E-01)
 number of electron      82.0000000 magnetization 
 augmentation part        6.6875097 magnetization 

 Broyden mixing:
  rms(total) = 0.10730E+00    rms(broyden)= 0.10725E+00
  rms(prec ) = 0.11003E+00
  weight for this iteration     100.00

 eigenvalues of (default mixing * dielectric matrix)
  average eigenvalue GAMMA=   1.4286
  2.4863  0.8998  0.8998

 Free energy of the ion-electron system (eV)
  ---------------------------------------------------
  alpha Z        PSCENC =       127.13813545
  Ewald energy   TEWEN  =     30610.79728487
  -Hartree energ DENC   =    -35252.52542963
  -exchange      EXHF   =         0.00000000
  -V(xc)+E(xc)   XCENC  =      -239.69741543
  PAW double counting   =      5493.59890716    -4943.73482005
  entropy T*S    EENTRO =        -0.00356499
  eigenvalues    EBANDS =      -491.44432943
  atomic energy  EATOM  =      4576.98536667
  Solvation  Ediel_sol  =         0.00000000
  ---------------------------------------------------
  free energy    TOTEN  =      -118.88586538 eV

  energy without entropy =     -118.88230039  energy(sigma->0) =     -118.88408289


--------------------------------------------------------------------------------------------------------




--------------------------------------- Iteration      1(  12)  ---------------------------------------


    POTLOK:  cpu time    0.0114: real time    0.0114
    SETDIJ:  cpu time    0.0031: real time    0.0031
    EDDIAG:  cpu time    0.3811: real time    0.3816
  RMM-DIIS:  cpu time    1.5699: real time    1.5719
    ORTHCH:  cpu time    0.0398: real time    0.0398
       DOS:  cpu time    0.0008: real time    0.0008
    CHARGE:  cpu time    0.1021: real time    0.1022
    MIXING:  cpu time    0.0008: real time    0.0008
    --------------------------------------------
      LOOP:  cpu time    2.1089: real time    2.1117

 eigenvalue-minimisations  :  2204
 total energy-change (2. order) : 0.2853752E-01  (-0.7998183E-02)
 number of electron      82.0000000 magnetization 
 augmentation part        6.6512667 magnetization 

 Broyden mixing:
  rms(total) = 0.41213E-01    rms(broyden)= 0.41209E-01
  rms(prec ) = 0.42107E-01
  weight for this iteration     100.00

 eigenvalues of (default mixing * dielectric matrix)
  average eigenvalue GAMMA=   1.8034
  0.9255  0.9255  2.9906  2.3720

 Free energy of the ion-electron system (eV)
  ---------------------------------------------------
  alpha Z        PSCENC =       127.13813545
  Ewald energy   TEWEN  =     30610.79728487
  -Hartree energ DENC   =    -35257.01012665
  -exchange      EXHF   =         0.00000000
  -V(xc)+E(xc)   XCENC  =      -239.10840704
  PAW double counting   =      5518.27965785    -4968.53702867
  entropy T*S    EENTRO =        -0.00356615
  eigenvalues    EBANDS =      -487.39864420
  atomic energy  EATOM  =      4576.98536667
  Solvation  Ediel_sol  =         0.00000000
  ---------------------------------------------------
  free energy    TOTEN  =      -118.85732786 eV

  energy without entropy =     -118.85376171  energy(sigma->0) =     -118.85554479


--------------------------------------------------------------------------------------------------------




--------------------------------------- Iteration      1(  13)  ---------------------------------------


    POTLOK:  cpu time    0.0108: real time    0.0109
    SETDIJ:  cpu time    0.0030: real time    0.0030
    EDDIAG:  cpu time    0.3808: real time    0.3814
  RMM-DIIS:  cpu time    1.5616: real time    1.5656
    ORTHCH:  cpu time    0.0421: real time    0.0431
       DOS:  cpu time    0.0014: real time    0.0017
    CHARGE:  cpu time    0.1020: real time    0.1030
    MIXING:  cpu time    0.0008: real time    0.0008
    --------------------------------------------
      LOOP:  cpu time    2.1026: real time    2.1095

 eigenvalue-minimisations  :  2200
 total energy-change (2. order) :-0.5174699E-02  (-0.9583518E-02)
 number of electron      82.0000000 magnetization 
 augmentation part        6.6077332 magnetization 

 Broyden mixing:
  rms(total) = 0.49189E-01    rms(broyden)= 0.49167E-01
  rms(prec ) = 0.50139E-01
  weight for this iteration     100.00

 eigenvalues of (default mixing * dielectric matrix)
  average eigenvalue GAMMA=   1.6495
  2.6044  2.6044  0.9433  1.0477  1.0477

 Free energy of the ion-electron system (eV)
  ---------------------------------------------------
  alpha Z        PSCENC =       127.13813545
  Ewald energy   TEWEN  =     30610.79728487
  -Hartree energ DENC   =    -35259.29643082
  -exchange      EXHF   =         0.00000000
  -V(xc)+E(xc)   XCENC  =      -238.64611723
  PAW double counting   =      5494.73630594    -4945.13845571
  entropy T*S    EENTRO =        -0.00356832
  eigenvalues    EBANDS =      -485.43502341
  atomic energy  EATOM  =      4576.98536667
  Solvation  Ediel_sol  =         0.00000000
  ---------------------------------------------------
  free energy    TOTEN  =      -118.86250256 eV

  energy without entropy =     -118.85893424  energy(sigma->0) =     -118.86071840


--------------------------------------------------------------------------------------------------------




--------------------------------------- Iteration      1(  14)  ---------------------------------------


    POTLOK:  cpu time    0.0120: real time    0.0146
    SETDIJ:  cpu time    0.0032: real time    0.0041
    EDDIAG:  cpu time    0.3742: real time    0.3753
  RMM-DIIS:  cpu time    1.5369: real time    1.5420
    ORTHCH:  cpu time    0.0412: real time    0.0416
       DOS:  cpu time    0.0008: real time    0.0008
    CHARGE:  cpu time    0.1005: real time    0.1006
    MIXING:  cpu time    0.0009: real time    0.0009
    --------------------------------------------
      LOOP:  cpu time    2.0697: real time    2.0799

 eigenvalue-minimisations  :  2203
 total energy-change (2. order) : 0.6039744E-02  (-0.2802376E-02)
 number of electron      82.0000000 magnetization 
 augmentation part        6.6327022 magnetization 

 Broyden mixing:
  rms(total) = 0.37357E-02    rms(broyden)= 0.36919E-02
  rms(prec ) = 0.38123E-02
  weight for this iteration     100.00

 eigenvalues of (default mixing * dielectric matrix)
  average eigenvalue GAMMA=   1.6302
  2.8128  2.5120  1.5526  0.9253  0.9891  0.9891

 Free energy of the ion-electron system (eV)
  ---------------------------------------------------
  alpha Z        PSCENC =       127.13813545
  Ewald energy   TEWEN  =     30610.79728487
  -Hartree energ DENC   =    -35254.51228593
  -exchange      EXHF   =         0.00000000
  -V(xc)+E(xc)   XCENC  =      -238.91340040
  PAW double counting   =      5482.91991484    -4933.24757155
  entropy T*S    EENTRO =        -0.00356730
  eigenvalues    EBANDS =      -490.02033948
  atomic energy  EATOM  =      4576.98536667
  Solvation  Ediel_sol  =         0.00000000
  ---------------------------------------------------
  free energy    TOTEN  =      -118.85646282 eV

  energy without entropy =     -118.85289552  energy(sigma->0) =     -118.85467917


--------------------------------------------------------------------------------------------------------




--------------------------------------- Iteration      1(  15)  ---------------------------------------


    POTLOK:  cpu time    0.0117: real time    0.0118
    SETDIJ:  cpu time    0.0030: real time    0.0030
    EDDIAG:  cpu time    0.3750: real time    0.3756
  RMM-DIIS:  cpu time    1.4792: real time    1.4811
    ORTHCH:  cpu time    0.0389: real time    0.0389
       DOS:  cpu time    0.0008: real time    0.0008
    CHARGE:  cpu time    0.1017: real time    0.1018
    MIXING:  cpu time    0.0010: real time    0.0010
    --------------------------------------------
      LOOP:  cpu time    2.0112: real time    2.0139

 eigenvalue-minimisations  :  2069
 total energy-change (2. order) : 0.1114234E-04  (-0.3993061E-04)
 number of electron      82.0000000 magnetization 
 augmentation part        6.6326770 magnetization 

 Broyden mixing:
  rms(total) = 0.20148E-02    rms(broyden)= 0.20122E-02
  rms(prec ) = 0.20773E-02
  weight for this iteration     100.00

 eigenvalues of (default mixing * dielectric matrix)
  average eigenvalue GAMMA=   1.6855
  2.9327  2.4278  2.4278  0.9627  0.9627  1.0427  1.0427

 Free energy of the ion-electron system (eV)
  ---------------------------------------------------
  alpha Z        PSCENC =       127.13813545
  Ewald energy   TEWEN  =     30610.79728487
  -Hartree energ DENC   =    -35254.49745744
  -exchange      EXHF   =         0.00000000
  -V(xc)+E(xc)   XCENC  =      -238.89351437
  PAW double counting   =      5483.35279235    -4933.68541311
  entropy T*S    EENTRO =        -0.00356731
  eigenvalues    EBANDS =      -490.05007878
  atomic energy  EATOM  =      4576.98536667
  Solvation  Ediel_sol  =         0.00000000
  ---------------------------------------------------
  free energy    TOTEN  =      -118.85645168 eV

  energy without entropy =     -118.85288436  energy(sigma->0) =     -118.85466802


--------------------------------------------------------------------------------------------------------




--------------------------------------- Iteration      1(  16)  ---------------------------------------


    POTLOK:  cpu time    0.0117: real time    0.0118
    SETDIJ:  cpu time    0.0030: real time    0.0030
    EDDIAG:  cpu time    0.3997: real time    0.4002
  RMM-DIIS:  cpu time    1.4277: real time    1.4299
    ORTHCH:  cpu time    0.0395: real time    0.0395
       DOS:  cpu time    0.0008: real time    0.0008
    --------------------------------------------
      LOOP:  cpu time    1.8825: real time    1.8852

 eigenvalue-minimisations  :  2020
 total energy-change (2. order) :-0.4757255E-05  (-0.8794584E-05)
 number of electron      82.0000000 magnetization 
 augmentation part        6.6326770 magnetization 

 Free energy of the ion-electron system (eV)
  ---------------------------------------------------
  alpha Z        PSCENC =       127.13813545
  Ewald energy   TEWEN  =     30610.79728487
  -Hartree energ DENC   =    -35254.64144585
  -exchange      EXHF   =         0.00000000
  -V(xc)+E(xc)   XCENC  =      -238.88287479
  PAW double counting   =      5484.95063826    -4935.28528387
  entropy T*S    EENTRO =        -0.00356724
  eigenvalues    EBANDS =      -489.91470993
  atomic energy  EATOM  =      4576.98536667
  Solvation  Ediel_sol  =         0.00000000
  ---------------------------------------------------
  free energy    TOTEN  =      -118.85645643 eV

  energy without entropy =     -118.85288919  energy(sigma->0) =     -118.85467281


--------------------------------------------------------------------------------------------------------




 average (electrostatic) potential at core
  the test charge radii are     0.7215  1.0714
  (the norm of the test charge is              1.0000)
       1 -73.5536       2 -73.4563       3 -73.4470       4 -73.4477       5 -73.4486
       6 -73.4498       7 -73.5545       8 -73.4484       9 -73.4483      10 -73.4574
      11 -39.0031      12 -39.0004      13 -39.0044      14 -39.0439      15 -38.9995
      16 -39.0010      17 -39.1882      18 -39.1874      19 -38.9995      20 -39.0007
      21 -39.0450
 
 
 
 E-fermi :   3.2810     XC(G=0):  -7.8335     alpha+bet : -8.5098


 k-point     1 :       0.0625    0.0625    0.0000
  band No.  band energies     occupation 
      1     -17.7114      2.00000
      2     -17.6632      2.00000
      3     -17.5772      2.00000
      4     -17.4559      2.00000
      5     -17.3075      2.00000
      6     -17.1425      2.00000
      7     -16.9742      2.00000
      8     -16.8175      2.00000
      9     -16.6878      2.00000
     10     -16.6009      2.00000
     11      -4.9963      2.00000
     12      -4.8466      2.00000
     13      -4.5894      2.00000
     14      -4.2315      2.00000
     15      -3.7918      2.00000
     16      -3.2951      2.00000
     17      -2.7726      2.00000
     18      -2.2681      2.00000
     19      -1.8546      2.00000
     20      -1.7238      2.00000
     21      -1.6834      2.00000
     22      -1.6522      2.00000
     23      -1.5522      2.00000
     24      -1.5411      2.00000
     25      -1.4062      2.00000
     26      -1.4007      2.00000
     27      -1.3925      2.00000
     28      -1.3668      2.00000
     29      -1.3214      2.00000
     30      -1.2629      2.00000
     31      -1.2476      2.00000
     32      -1.1558      2.00000
     33      -1.1318      2.00000
     34      -1.0566      2.00000
     35      -0.9988      2.00000
     36      -0.9478      2.00000
     37      -0.9089      2.00000
     38      -0.8506      2.00000
     39      -0.8406      2.00000
     40      -0.7993      2.00000
     41       1.0898      2.00000
     42       1.0907      2.00000
     43       4.5527      0.00000
     44       4.8556      0.00000
     45       5.2567      0.00000
     46       5.6803      0.00000
     47       6.0928      0.00000
     48       6.5064      0.00000
     49       6.8889      0.00000
     50       7.2217      0.00000
     51       7.4196      0.00000
     52       7.5397      0.00000
     53       7.6018      0.00000
     54       7.7668      0.00000
     55      10.6493      0.00000

 k-point     2 :       0.1875    0.0625    0.0000
  band No.  band energies     occupation 
      1     -17.3975      2.00000
      2     -17.3588      2.00000
      3     -17.2878      2.00000
      4     -17.1866      2.00000
      5     -17.0629      2.00000
      6     -16.9262      2.00000
      7     -16.7876      2.00000
      8     -16.6593      2.00000
      9     -16.5537      2.00000
     10     -16.4831      2.00000
     11      -4.5274      2.00000
     12      -4.4334      2.00000
     13      -4.2793      2.00000
     14      -4.0794      2.00000
     15      -3.8533      2.00000
     16      -3.6158      2.00000
     17      -3.3796      2.00000
     18      -3.1609      2.00000
     19      -2.9743      2.00000
     20      -2.8206      2.00000
     21      -2.7032      2.00000
     22      -2.6803      2.00000
     23      -2.5468      2.00000
     24      -2.3459      2.00000
     25      -2.0978      2.00000
     26      -1.8325      2.00000
     27      -1.6515      2.00000
     28      -1.6295      2.00000
     29      -1.5908      2.00000
     30      -1.5574      2.00000
     31      -1.4885      2.00000
     32      -1.4273      2.00000
     33      -1.3364      2.00000
     34      -1.3183      2.00000
     35      -1.2586      2.00000
     36      -1.2038      2.00000
     37      -1.1297      2.00000
     38      -1.1079      2.00000
     39      -1.0619      2.00000
     40      -0.9602      2.00000
     41       1.7483      2.00000
     42       1.7490      2.00000
     43       5.9157      0.00000
     44       6.1173      0.00000
     45       6.4129      0.00000
     46       6.7450      0.00000
     47       7.0675      0.00000
     48       7.4178      0.00000
     49       7.8094      0.00000
     50       8.2359      0.00000
     51       8.5079      0.00000
     52       8.7221      0.00000
     53       8.7838      0.00000
     54       8.8520      0.00000
     55      10.5402      0.00000

 k-point     3 :       0.3125    0.0625   -0.0000
  band No.  band energies     occupation 
      1     -16.9628      2.00000
      2     -16.9414      2.00000
      3     -16.8959      2.00000
      4     -16.8288      2.00000
      5     -16.7467      2.00000
      6     -16.6565      2.00000
      7     -16.5659      2.00000
      8     -16.4827      2.00000
      9     -16.4144      2.00000
     10     -16.3688      2.00000
     11      -4.5491      2.00000
     12      -4.4671      2.00000
     13      -4.3632      2.00000
     14      -4.3270      2.00000
     15      -4.2738      2.00000
     16      -4.1412      2.00000
     17      -4.1282      2.00000
     18      -3.9628      2.00000
     19      -3.9078      2.00000
     20      -3.8289      2.00000
     21      -3.5932      2.00000
     22      -3.2625      2.00000
     23      -2.8958      2.00000
     24      -2.5241      2.00000
     25      -2.1832      2.00000
     26      -1.9567      2.00000
     27      -1.9354      2.00000
     28      -1.8897      2.00000
     29      -1.8754      2.00000
     30      -1.8118      2.00000
     31      -1.7712      2.00000
     32      -1.7330      2.00000
     33      -1.6725      2.00000
     34      -1.5988      2.00000
     35      -1.5162      2.00000
     36      -1.4673      2.00000
     37      -1.3811      2.00000
     38      -1.3248      2.00000
     39      -1.3069      2.00000
     40      -1.1983      2.00000
     41       2.8702      2.00000
     42       2.8709      2.00000
     43       6.9786      0.00000
     44       7.1206      0.00000
     45       7.3333      0.00000
     46       7.5990      0.00000
     47       7.8926      0.00000
     48       8.1761      0.00000
     49       8.4242      0.00000
     50       8.6996      0.00000
     51       9.0505      0.00000
     52       9.1047      0.00000
     53       9.2295      0.00000
     54       9.4407      0.00000
     55       9.4576      0.00000

 k-point     4 :       0.4375    0.0625    0.0000
  band No.  band energies     occupation 
      1     -16.6382      2.00000
      2     -16.6365      2.00000
      3     -16.6091      2.00000
      4     -16.5803      2.00000
      5     -16.5438      2.00000
      6     -16.5025      2.00000
      7     -16.4599      2.00000
      8     -16.4198      2.00000
      9     -16.3859      2.00000
     10     -16.3627      2.00000
     11      -5.1086      2.00000
     12      -5.0218      2.00000
     13      -4.8795      2.00000
     14      -4.7018      2.00000
     15      -4.6039      2.00000
     16      -4.5640      2.00000
     17      -4.4898      2.00000
     18      -4.4551      2.00000
     19      -4.3532      2.00000
     20      -4.3452      2.00000
     21      -2.8258      2.00000
     22      -2.7045      2.00000
     23      -2.5200      2.00000
     24      -2.4035      2.00000
     25      -2.2876      2.00000
     26      -2.2268      2.00000
     27      -2.1164      2.00000
     28      -2.0968      2.00000
     29      -2.0430      2.00000
     30      -2.0327      2.00000
     31      -1.9767      2.00000
     32      -1.9295      2.00000
     33      -1.8151      2.00000
     34      -1.7622      2.00000
     35      -1.6626      2.00000
     36      -1.6121      2.00000
     37      -1.5009      2.00000
     38      -1.4866      2.00000
     39      -1.4124      2.00000
     40      -1.3650      2.00000
     41       4.3216      0.00000
     42       4.3223      0.00000
     43       5.9583      0.00000
     44       5.9591      0.00000
     45       7.2894      0.00000
     46       7.6111      0.00000
     47       8.0507      0.00000
     48       8.5133      0.00000
     49       8.5975      0.00000
     50       8.7874      0.00000
     51       8.8954      0.00000
     52       8.9787      0.00000
     53       9.1400      0.00000
     54       9.1775      0.00000
     55       9.2185      0.00000

 k-point     5 :      -0.4375    0.0625    0.0000
  band No.  band energies     occupation 
      1     -16.7659      2.00000
      2     -16.7557      2.00000
      3     -16.7242      2.00000
      4     -16.6768      2.00000
      5     -16.6189      2.00000
      6     -16.5552      2.00000
      7     -16.4912      2.00000
      8     -16.4324      2.00000
      9     -16.3839      2.00000
     10     -16.3513      2.00000
     11      -4.9079      2.00000
     12      -4.8226      2.00000
     13      -4.6824      2.00000
     14      -4.5201      2.00000
     15      -4.4971      2.00000
     16      -4.4348      2.00000
     17      -4.3348      2.00000
     18      -4.3011      2.00000
     19      -4.1878      2.00000
     20      -4.1734      2.00000
     21      -3.2254      2.00000
     22      -3.0123      2.00000
     23      -2.7105      2.00000
     24      -2.3969      2.00000
     25      -2.1440      2.00000
     26      -2.0762      2.00000
     27      -2.0438      2.00000
     28      -2.0305      2.00000
     29      -1.9861      2.00000
     30      -1.9533      2.00000
     31      -1.9137      2.00000
     32      -1.8637      2.00000
     33      -1.7626      2.00000
     34      -1.7062      2.00000
     35      -1.6107      2.00000
     36      -1.5609      2.00000
     37      -1.4637      2.00000
     38      -1.4236      2.00000
     39      -1.3821      2.00000
     40      -1.3008      2.00000
     41       3.5995      0.00000
     42       3.6002      0.00000
     43       6.7406      0.00000
     44       6.7441      0.00000
     45       7.2518      0.00000
     46       7.5789      0.00000
     47       7.9948      0.00000
     48       8.4130      0.00000
     49       8.7315      0.00000
     50       8.8139      0.00000
     51       8.9337      0.00000
     52       8.9958      0.00000
     53       9.1016      0.00000
     54       9.2662      0.00000
     55       9.3396      0.00000

 k-point     6 :      -0.3125    0.0625   -0.0000
  band No.  band energies     occupation 
      1     -17.1836      2.00000
      2     -17.1526      2.00000
      3     -17.0932      2.00000
      4     -17.0076      2.00000
      5     -16.9030      2.00000
      6     -16.7878      2.00000
      7     -16.6715      2.00000
      8     -16.5643      2.00000
      9     -16.4763      2.00000
     10     -16.4176      2.00000
     11      -4.3016      2.00000
     12      -4.2250      2.00000
     13      -4.1679      2.00000
     14      -4.1433      2.00000
     15      -4.0787      2.00000
     16      -3.9464      2.00000
     17      -3.7917      2.00000
     18      -3.6481      2.00000
     19      -3.5230      2.00000
     20      -3.4224      2.00000
     21      -3.3207      2.00000
     22      -3.1443      2.00000
     23      -2.8694      2.00000
     24      -2.5422      2.00000
     25      -2.2047      2.00000
     26      -1.8997      2.00000
     27      -1.8062      2.00000
     28      -1.7755      2.00000
     29      -1.7414      2.00000
     30      -1.6676      2.00000
     31      -1.6193      2.00000
     32      -1.5768      2.00000
     33      -1.5255      2.00000
     34      -1.4487      2.00000
     35      -1.4042      2.00000
     36      -1.3452      2.00000
     37      -1.2647      2.00000
     38      -1.2156      2.00000
     39      -1.1901      2.00000
     40      -1.0776      2.00000
     41       2.2482      2.00000
     42       2.2490      2.00000
     43       6.5658      0.00000
     44       6.7436      0.00000
     45       7.0058      0.00000
     46       7.3035      0.00000
     47       7.5820      0.00000
     48       7.8451      0.00000
     49       8.1863      0.00000
     50       8.6134      0.00000
     51       8.9945      0.00000
     52       9.2074      0.00000
     53       9.3281      0.00000
     54       9.3953      0.00000
     55       9.8339      0.00000

 k-point     7 :      -0.1875    0.0625    0.0000
  band No.  band energies     occupation 
      1     -17.5796      2.00000
      2     -17.5352      2.00000
      3     -17.4552      2.00000
      4     -17.3421      2.00000
      5     -17.2037      2.00000
      6     -17.0502      2.00000
      7     -16.8939      2.00000
      8     -16.7489      2.00000
      9     -16.6291      2.00000
     10     -16.5489      2.00000
     11      -4.7984      2.00000
     12      -4.6677      2.00000
     13      -4.4462      2.00000
     14      -4.1441      2.00000
     15      -3.7834      2.00000
     16      -3.3917      2.00000
     17      -3.0017      2.00000
     18      -2.6502      2.00000
     19      -2.3724      2.00000
     20      -2.1863      2.00000
     21      -2.1569      2.00000
     22      -2.0942      2.00000
     23      -2.0266      2.00000
     24      -1.9750      2.00000
     25      -1.8342      2.00000
     26      -1.6607      2.00000
     27      -1.5028      2.00000
     28      -1.4923      2.00000
     29      -1.4519      2.00000
     30      -1.4273      2.00000
     31      -1.3492      2.00000
     32      -1.2831      2.00000
     33      -1.2300      2.00000
     34      -1.1733      2.00000
     35      -1.0994      2.00000
     36      -1.0533      2.00000
     37      -1.0117      2.00000
     38      -0.9870      2.00000
     39      -0.9420      2.00000
     40      -0.8647      2.00000
     41       1.3651      2.00000
     42       1.3659      2.00000
     43       5.1939      0.00000
     44       5.4423      0.00000
     45       5.7891      0.00000
     46       6.1686      0.00000
     47       6.5435      0.00000
     48       6.9393      0.00000
     49       7.3302      0.00000
     50       7.7093      0.00000
     51       7.9212      0.00000
     52       8.0962      0.00000
     53       8.1220      0.00000
     54       8.2192      0.00000
     55      11.1780      0.00000

 k-point     8 :      -0.0625    0.0625    0.0000
  band No.  band energies     occupation 
      1     -17.7802      2.00000
      2     -17.7302      2.00000
      3     -17.6413      2.00000
      4     -17.5160      2.00000
      5     -17.3625      2.00000
      6     -17.1917      2.00000
      7     -17.0172      2.00000
      8     -16.8545      2.00000
      9     -16.7198      2.00000
     10     -16.6294      2.00000
     11      -5.0993      2.00000
     12      -4.9414      2.00000
     13      -4.6686      2.00000
     14      -4.2862      2.00000
     15      -3.8116      2.00000
     16      -3.2672      2.00000
     17      -2.6800      2.00000
     18      -2.0861      2.00000
     19      -1.5533      2.00000
     20      -1.4673      2.00000
     21      -1.4413      2.00000
     22      -1.3873      2.00000
     23      -1.3490      2.00000
     24      -1.3282      2.00000
     25      -1.3168      2.00000
     26      -1.2831      2.00000
     27      -1.2274      2.00000
     28      -1.2159      2.00000
     29      -1.1539      2.00000
     30      -1.1329      2.00000
     31      -1.0860      2.00000
     32      -1.0407      2.00000
     33      -0.9996      2.00000
     34      -0.9531      2.00000
     35      -0.9472      2.00000
     36      -0.8680      2.00000
     37      -0.8607      2.00000
     38      -0.7901      2.00000
     39      -0.7893      2.00000
     40      -0.7416      2.00000
     41       0.9315      2.00000
     42       0.9329      2.00000
     43       4.1557      0.00000
     44       4.5012      0.00000
     45       4.9405      0.00000
     46       5.3916      0.00000
     47       5.8235      0.00000
     48       6.2425      0.00000
     49       6.6173      0.00000
     50       6.9231      0.00000
     51       7.1056      0.00000
     52       7.1979      0.00000
     53       7.3679      0.00000
     54       7.5435      0.00000
     55       8.6421      0.00000

 k-point     9 :       0.1875    0.1875    0.0000
  band No.  band energies     occupation 
      1     -17.0423      2.00000
      2     -17.0168      2.00000
      3     -16.9656      2.00000
      4     -16.8909      2.00000
      5     -16.7995      2.00000
      6     -16.6989      2.00000
      7     -16.5977      2.00000
      8     -16.5047      2.00000
      9     -16.4285      2.00000
     10     -16.3777      2.00000
     11      -4.1887      2.00000
     12      -4.1877      2.00000
     13      -4.1315      2.00000
     14      -4.1287      2.00000
     15      -4.0397      2.00000
     16      -4.0286      2.00000
     17      -3.9061      2.00000
     18      -3.7786      2.00000
     19      -3.6632      2.00000
     20      -3.6043      2.00000
     21      -3.5775      2.00000
     22      -3.1751      2.00000
     23      -2.9287      2.00000
     24      -2.6413      2.00000
     25      -2.3432      2.00000
     26      -2.1033      2.00000
     27      -2.0894      2.00000
     28      -2.0087      2.00000
     29      -1.9988      2.00000
     30      -1.8984      2.00000
     31      -1.8085      2.00000
     32      -1.8041      2.00000
     33      -1.7793      2.00000
     34      -1.7158      2.00000
     35      -1.7117      2.00000
     36      -1.6304      2.00000
     37      -1.5517      2.00000
     38      -1.4147      2.00000
     39      -1.2417      2.00000
     40      -1.1182      2.00000
     41       2.6429      2.00000
     42       2.6437      2.00000
     43       7.2469      0.00000
     44       7.3553      0.00000
     45       7.5466      0.00000
     46       7.8010      0.00000
     47       7.9715      0.00000
     48       8.0896      0.00000
     49       8.3810      0.00000
     50       8.8659      0.00000
     51       9.4219      0.00000
     52       9.8984      0.00000
     53      10.0542      0.00000
     54      10.0829      0.00000
     55      10.2739      0.00000

 k-point    10 :       0.3125    0.1875    0.0000
  band No.  band energies     occupation 
      1     -16.6754      2.00000
      2     -16.6696      2.00000
      3     -16.6417      2.00000
      4     -16.6018      2.00000
      5     -16.5532      2.00000
      6     -16.4999      2.00000
      7     -16.4464      2.00000
      8     -16.3974      2.00000
      9     -16.3569      2.00000
     10     -16.3297      2.00000
     11      -4.6586      2.00000
     12      -4.5805      2.00000
     13      -4.4545      2.00000
     14      -4.3401      2.00000
     15      -4.3194      2.00000
     16      -4.2675      2.00000
     17      -4.2203      2.00000
     18      -4.1636      2.00000
     19      -4.0791      2.00000
     20      -3.9162      2.00000
     21      -3.3279      2.00000
     22      -3.1462      2.00000
     23      -2.9395      2.00000
     24      -2.7758      2.00000
     25      -2.6067      2.00000
     26      -2.5639      2.00000
     27      -2.5160      2.00000
     28      -2.4619      2.00000
     29      -2.3983      2.00000
[...]
     51       9.4401      0.00000
     52       9.5705      0.00000
     53       9.8535      0.00000
     54      10.1616      0.00000
     55      10.4479      0.00000

 k-point    17 :      -0.4375    0.3125    0.0000
  band No.  band energies     occupation 
      1     -16.6666      2.00000
      2     -16.6452      2.00000
      3     -16.6059      2.00000
      4     -16.5523      2.00000
      5     -16.4847      2.00000
      6     -16.4142      2.00000
      7     -16.3455      2.00000
      8     -16.2805      2.00000
      9     -16.2300      2.00000
     10     -16.1954      2.00000
     11      -4.5124      2.00000
     12      -4.4231      2.00000
     13      -4.2812      2.00000
     14      -4.2198      2.00000
     15      -4.1470      2.00000
     16      -4.1066      2.00000
     17      -4.0251      2.00000
     18      -3.9462      2.00000
     19      -3.8979      2.00000
     20      -3.7995      2.00000
     21      -3.2683      2.00000
     22      -3.0150      2.00000
     23      -2.6937      2.00000
     24      -2.3759      2.00000
     25      -2.1412      2.00000
     26      -2.0504      2.00000
     27      -2.0175      2.00000
     28      -1.9718      2.00000
     29      -1.9454      2.00000
     30      -1.9294      2.00000
     31      -1.8574      2.00000
     32      -1.7566      2.00000
     33      -1.7255      2.00000
     34      -1.6050      2.00000
     35      -1.6002      2.00000
     36      -1.4917      2.00000
     37      -1.4375      2.00000
     38      -1.3369      2.00000
     39      -1.2204      2.00000
     40      -1.1089      2.00000
     41       3.1615      0.00233
     42       3.1625      0.00213
     43       7.2247      0.00000
     44       7.2270      0.00000
     45       7.6845      0.00000
     46       7.9470      0.00000
     47       8.2851      0.00000
     48       8.6129      0.00000
     49       8.8463      0.00000
     50       8.9792      0.00000
     51       9.1471      0.00000
     52       9.3942      0.00000
     53       9.5801      0.00000
     54       9.6473      0.00000
     55       9.7963      0.00000

 k-point    18 :      -0.3125    0.3125    0.0000
  band No.  band energies     occupation 
      1     -16.9400      2.00000
      2     -16.9065      2.00000
      3     -16.8481      2.00000
      4     -16.7695      2.00000
      5     -16.6720      2.00000
      6     -16.5685      2.00000
      7     -16.4669      2.00000
      8     -16.3718      2.00000
      9     -16.2969      2.00000
     10     -16.2462      2.00000
     11      -4.2069      2.00000
     12      -4.1776      2.00000
     13      -4.1212      2.00000
     14      -4.0780      2.00000
     15      -3.9801      2.00000
     16      -3.9229      2.00000
     17      -3.7979      2.00000
     18      -3.6770      2.00000
     19      -3.5620      2.00000
     20      -3.4774      2.00000
     21      -3.4105      2.00000
     22      -3.1371      2.00000
     23      -2.7857      2.00000
     24      -2.4103      2.00000
     25      -2.0469      2.00000
     26      -1.7356      2.00000
     27      -1.6599      2.00000
     28      -1.6276      2.00000
     29      -1.5725      2.00000
     30      -1.5199      2.00000
     31      -1.4988      2.00000
     32      -1.4071      2.00000
     33      -1.3925      2.00000
     34      -1.3104      2.00000
     35      -1.2159      2.00000
     36      -1.2156      2.00000
     37      -1.1268      2.00000
     38      -1.0564      2.00000
     39      -1.0431      2.00000
     40      -1.0088      2.00000
     41       2.2701      2.00000
     42       2.2711      2.00000
     43       6.8374      0.00000
     44       6.9959      0.00000
     45       7.2196      0.00000
     46       7.4676      0.00000
     47       7.7265      0.00000
     48       7.9999      0.00000
     49       8.3206      0.00000
     50       8.6827      0.00000
     51       9.0028      0.00000
     52       9.0854      0.00000
     53       9.2420      0.00000
     54       9.3682      0.00000
     55       9.5093      0.00000

 k-point    19 :       0.4375    0.4375    0.0000
  band No.  band energies     occupation 
      1     -16.4252      2.00000
      2     -16.4209      2.00000
      3     -16.4053      2.00000
      4     -16.3829      2.00000
      5     -16.3518      2.00000
      6     -16.3202      2.00000
      7     -16.2876      2.00000
      8     -16.2541      2.00000
      9     -16.2283      2.00000
     10     -16.2094      2.00000
     11      -4.8671      2.00000
     12      -4.7734      2.00000
     13      -4.6246      2.00000
     14      -4.4432      2.00000
     15      -4.3605      2.00000
     16      -4.3089      2.00000
     17      -4.2518      2.00000
     18      -4.2181      2.00000
     19      -4.1306      2.00000
     20      -4.1291      2.00000
     21      -2.6317      2.00000
     22      -2.5655      2.00000
     23      -2.5461      2.00000
     24      -2.3873      2.00000
     25      -2.3757      2.00000
     26      -2.3014      2.00000
     27      -2.2111      2.00000
     28      -2.1730      2.00000
     29      -2.0810      2.00000
     30      -1.9543      2.00000
     31      -1.9493      2.00000
     32      -1.8626      2.00000
     33      -1.8294      2.00000
     34      -1.8019      2.00000
     35      -1.6505      2.00000
     36      -1.6479      2.00000
     37      -1.5226      2.00000
     38      -1.4092      2.00000
     39      -1.3092      2.00000
     40      -1.2596      2.00000
     41       4.4697      0.00000
     42       4.4707      0.00000
     43       5.7183      0.00000
     44       5.7192      0.00000
     45       7.8253      0.00000
     46       8.1090      0.00000
     47       8.5216      0.00000
     48       8.9495      0.00000
     49       8.9935      0.00000
     50       9.1414      0.00000
     51       9.3289      0.00000
     52       9.3677      0.00000
     53       9.5604      0.00000
     54       9.6359      0.00000
     55       9.7056      0.00000

 k-point    20 :      -0.4375    0.4375    0.0000
  band No.  band energies     occupation 
      1     -16.5451      2.00000
      2     -16.5324      2.00000
      3     -16.5058      2.00000
      4     -16.4687      2.00000
      5     -16.4203      2.00000
      6     -16.3704      2.00000
      7     -16.3212      2.00000
      8     -16.2734      2.00000
      9     -16.2364      2.00000
     10     -16.2104      2.00000
     11      -4.9197      2.00000
     12      -4.8249      2.00000
     13      -4.6737      2.00000
     14      -4.4898      2.00000
     15      -4.4500      2.00000
     16      -4.3805      2.00000
     17      -4.2965      2.00000
     18      -4.2659      2.00000
     19      -4.1619      2.00000
     20      -4.1541      2.00000
     21      -2.8697      2.00000
     22      -2.7043      2.00000
     23      -2.4501      2.00000
     24      -2.1880      2.00000
     25      -2.0020      2.00000
     26      -1.9869      2.00000
     27      -1.8692      2.00000
     28      -1.8322      2.00000
     29      -1.7995      2.00000
     30      -1.7437      2.00000
     31      -1.7265      2.00000
     32      -1.6691      2.00000
     33      -1.5761      2.00000
     34      -1.4780      2.00000
     35      -1.4424      2.00000
     36      -1.3819      2.00000
     37      -1.2914      2.00000
     38      -1.2282      2.00000
     39      -1.2197      2.00000
     40      -1.1712      2.00000
     41       3.7122      0.00000
     42       3.7132      0.00000
     43       6.0804      0.00000
     44       6.0814      0.00000
     45       7.2901      0.00000
     46       7.6156      0.00000
     47       8.0524      0.00000
     48       8.4890      0.00000
     49       8.7041      0.00000
     50       8.7929      0.00000
     51       8.8846      0.00000
     52       8.9453      0.00000
     53       9.0855      0.00000
     54       9.1613      0.00000
     55       9.2526      0.00000


--------------------------------------------------------------------------------------------------------


 soft charge-density along one line, spin component           1
         0         1         2         3         4         5         6         7         8         9
 total charge-density along one line
 
 pseudopotential strength for first ion, spin component:           1
 12.692 -15.483  -0.002  -0.002  -0.002   0.003   0.003   0.003
-15.483  18.911   0.003   0.003   0.003  -0.004  -0.004  -0.004
 -0.002   0.003  -8.996  -0.001  -0.001  10.909   0.001   0.001
 -0.002   0.003  -0.001  -8.996  -0.001   0.001  10.909   0.001
 -0.002   0.003  -0.001  -0.001  -8.996   0.001   0.001  10.909
  0.003  -0.004  10.909   0.001   0.001 -13.098  -0.001  -0.001
  0.003  -0.004   0.001  10.909   0.001  -0.001 -13.098  -0.001
  0.003  -0.004   0.001   0.001  10.909  -0.001  -0.001 -13.098
 total augmentation occupancy for first ion, spin component:           1
  2.592   0.359   0.007   0.007   0.007   0.000   0.000   0.000
  0.359   0.080   0.006   0.006   0.006  -0.003  -0.003  -0.003
  0.007   0.006   2.138  -0.004  -0.004   0.255  -0.001  -0.001
  0.007   0.006  -0.004   2.138  -0.004  -0.001   0.255  -0.001
  0.007   0.006  -0.004  -0.004   2.138  -0.001  -0.001   0.255
  0.000  -0.003   0.255  -0.001  -0.001   0.034   0.001   0.001
  0.000  -0.003  -0.001   0.255  -0.001   0.001   0.034   0.001
  0.000  -0.003  -0.001  -0.001   0.255   0.001   0.001   0.034


------------------------ aborting loop because EDIFF is reached ----------------------------------------


    CHARGE:  cpu time    0.1004: real time    0.1005
    FORLOC:  cpu time    0.0024: real time    0.0024
    FORNL :  cpu time    0.5688: real time    0.5697
    STRESS:  cpu time    1.7226: real time    1.7252
    FORCOR:  cpu time    0.0131: real time    0.0131
    FORHAR:  cpu time    0.0048: real time    0.0048
    MIXING:  cpu time    0.0006: real time    0.0007
    OFIELD:  cpu time    0.0000: real time    0.0000

  FORCE on cell =-STRESS in cart. coord.  units (eV):
  Direction    XX          YY          ZZ          XY          YZ          ZX
  --------------------------------------------------------------------------------------
  Alpha Z   127.13814   127.13814   127.13814
  Ewald   10209.32132 10209.32154 10209.32132-22800.12470-22800.12470-22800.12465
  Hartree 11761.28832 11761.28832 11761.28832-22568.82098-22568.82098-22568.82098
  E(xc)    -367.26155  -367.26158  -367.26155     0.01206     0.01206     0.01208
  Local  -23038.81352-23038.81315-23038.81352 45368.03534 45368.03534 45368.03584
  n-local  -173.93567  -179.80538  -185.79508    -2.61942     2.06102    -0.28264
  augment    68.11941    68.11944    68.11941    -0.00016    -0.00016    -0.00013
  Kinetic  1406.15045  1420.17851  1434.89709    17.31240   -15.17615     0.81525
  Fock        0.00000     0.00000     0.00000     0.00000     0.00000     0.00000
  -------------------------------------------------------------------------------------
  Total       0.35562     0.35562     0.35562    -0.19473    -0.19473    -0.19473
  in kB       1.84382     1.84382     1.84382    -1.00965    -1.00965    -1.00965
  external pressure =        1.84 kB  Pullay stress =        0.00 kB


 VOLUME and BASIS-vectors are now :
 -----------------------------------------------------------------------------
  energy-cutoff  :      520.00
  volume of cell :      309.02
      direct lattice vectors                 reciprocal lattice vectors
     2.124436000 -2.124436000  0.000000000     0.313808779 -0.156904389 -0.156904389
     0.000000000  2.124436000 -2.124436000     0.156904389  0.156904389 -0.313808779
    22.823157000 22.823157000 22.823157000     0.014605049  0.014605049  0.014605049

  length of vectors
     3.004406204  3.004406204 39.530867513     0.384335692  0.384335692  0.025296687


 FORCES acting on ions
    electron-ion (+dipol)            ewald-force                    non-local-force                 convergence-correction
 -----------------------------------------------------------------------------------------------
   0.105E+04 0.105E+04 0.105E+04   -.105E+04 -.105E+04 -.105E+04   0.960E+00 0.960E+00 0.960E+00   -.238E-02 -.238E-02 -.238E-02
   0.818E+03 0.818E+03 0.818E+03   -.818E+03 -.818E+03 -.818E+03   0.405E-01 0.405E-01 0.405E-01   -.218E-02 -.218E-02 -.218E-02
   0.351E+03 0.351E+03 0.351E+03   -.351E+03 -.351E+03 -.351E+03   0.163E-02 0.163E-02 0.163E-02   -.807E-03 -.807E-03 -.807E-03
   0.117E+03 0.117E+03 0.117E+03   -.117E+03 -.117E+03 -.117E+03   0.242E-02 0.242E-02 0.242E-02   -.192E-02 -.192E-02 -.192E-02
   -.351E+03 -.351E+03 -.351E+03   0.351E+03 0.351E+03 0.351E+03   -.163E-02 -.163E-02 -.163E-02   0.804E-03 0.804E-03 0.804E-03
   -.584E+03 -.584E+03 -.584E+03   0.584E+03 0.584E+03 0.584E+03   0.255E-02 0.255E-02 0.255E-02   0.180E-02 0.180E-02 0.180E-02
   -.105E+04 -.105E+04 -.105E+04   0.105E+04 0.105E+04 0.105E+04   -.960E+00 -.960E+00 -.960E+00   0.238E-02 0.238E-02 0.238E-02
   0.584E+03 0.584E+03 0.584E+03   -.584E+03 -.584E+03 -.584E+03   -.255E-02 -.255E-02 -.255E-02   -.180E-02 -.180E-02 -.180E-02
   -.117E+03 -.117E+03 -.117E+03   0.117E+03 0.117E+03 0.117E+03   -.242E-02 -.242E-02 -.242E-02   0.191E-02 0.191E-02 0.191E-02
   -.818E+03 -.818E+03 -.818E+03   0.818E+03 0.818E+03 0.818E+03   -.405E-01 -.405E-01 -.405E-01   0.218E-02 0.218E-02 0.218E-02
   0.234E+03 0.234E+03 0.234E+03   -.234E+03 -.234E+03 -.234E+03   -.509E-03 -.509E-03 -.509E-03   -.803E-03 -.803E-03 -.803E-03
   -.425E-04 -.152E-04 -.425E-04   -.153E-03 -.153E-03 -.153E-03   0.000E+00 0.542E-19 -.163E-18   -.884E-06 -.884E-06 -.884E-06
   -.234E+03 -.234E+03 -.234E+03   0.234E+03 0.234E+03 0.234E+03   0.509E-03 0.509E-03 0.509E-03   0.802E-03 0.802E-03 0.802E-03
   0.312E+03 0.312E+03 0.312E+03   -.312E+03 -.312E+03 -.312E+03   -.358E-01 -.358E-01 -.358E-01   -.115E-02 -.115E-02 -.115E-02
   0.779E+02 0.779E+02 0.779E+02   -.779E+02 -.779E+02 -.779E+02   -.217E-02 -.217E-02 -.217E-02   -.362E-03 -.362E-03 -.362E-03
   -.156E+03 -.156E+03 -.156E+03   0.156E+03 0.156E+03 0.156E+03   0.116E-02 0.116E-02 0.116E-02   0.130E-03 0.130E-03 0.130E-03
   -.378E+03 -.378E+03 -.378E+03   0.377E+03 0.377E+03 0.377E+03   0.405E+00 0.405E+00 0.405E+00   0.261E-03 0.261E-03 0.261E-03
   0.378E+03 0.378E+03 0.378E+03   -.377E+03 -.377E+03 -.377E+03   -.405E+00 -.405E+00 -.405E+00   -.260E-03 -.260E-03 -.260E-03
   0.156E+03 0.156E+03 0.156E+03   -.156E+03 -.156E+03 -.156E+03   -.116E-02 -.116E-02 -.116E-02   -.132E-03 -.132E-03 -.132E-03
   -.779E+02 -.779E+02 -.779E+02   0.779E+02 0.779E+02 0.779E+02   0.217E-02 0.217E-02 0.217E-02   0.360E-03 0.360E-03 0.360E-03
   -.312E+03 -.312E+03 -.312E+03   0.312E+03 0.312E+03 0.312E+03   0.358E-01 0.358E-01 0.358E-01   0.115E-02 0.115E-02 0.115E-02
 -----------------------------------------------------------------------------------------------
   0.108E-03 0.777E-03 0.108E-03   -.455E-12 0.227E-12 -.512E-12   -.111E-15 -.389E-15 -.625E-16   -.162E-04 -.162E-04 -.162E-04
 
 
 POSITION                                       TOTAL-FORCE (eV/Angst)
 -----------------------------------------------------------------------------------
      1.29097      1.29097      1.29097         0.001714      0.001714      0.001714
      3.41230      3.41230      1.28786         0.000062      0.000062      0.000062
      5.53600      5.53600      5.53600         0.004073      0.004073      0.004073
      7.65938      7.65938      5.53494         0.003741      0.003741      0.003741
      9.78160      9.78160      9.78160        -0.004073     -0.004073     -0.004073
     11.90525     11.90525      9.78081         0.004080      0.004080      0.004080
     14.02663     14.02663     14.02663        -0.001714     -0.001714     -0.001714
      5.53679      3.41235      3.41236        -0.004080     -0.004080     -0.004080
      9.78266      7.65822      7.65823        -0.003741     -0.003741     -0.003741
     14.02974     11.90530     11.90531        -0.000062     -0.000062     -0.000062
      3.41224      3.41224      3.41224         0.003399      0.003399      0.003399
      7.65881      7.65881      7.65881         0.000000      0.000000      0.000000
     11.90536     11.90536     11.90536        -0.003399     -0.003399     -0.003399
      3.41329      1.28885      1.28885        -0.004097     -0.004097     -0.004097
      7.65974      5.53530      5.53530         0.000128      0.000128      0.000128
     11.90549      9.78105      9.78105         0.003392      0.003392      0.003392
     16.18001     14.05557     14.05557         0.003284      0.003284      0.003284
      1.26203      1.26203     -0.86241        -0.003284     -0.003284     -0.003284
      5.53655      5.53655      3.41211        -0.003392     -0.003392     -0.003392
      9.78232      9.78233      7.65789        -0.000128     -0.000128     -0.000128
     14.02875     14.02875     11.90432         0.004097      0.004097      0.004097
 -----------------------------------------------------------------------------------
    total drift:                                0.000092      0.000761      0.000092


--------------------------------------------------------------------------------------------------------



  FREE ENERGIE OF THE ION-ELECTRON SYSTEM (eV)
  ---------------------------------------------------
  free  energy   TOTEN  =      -118.88133573 eV

  energy  without entropy=     -118.87777695  energy(sigma->0) =     -118.87955634
 
 d Force = 0.5727243E-04[ 0.287E-04, 0.858E-04]  d Energy = 0.5274597E-04 0.453E-05
 d Force = 0.3893188E+01[ 0.389E+01, 0.389E+01]  d Ewald  = 0.3893188E+01-0.264E-07


--------------------------------------------------------------------------------------------------------


    POTLOK:  cpu time    0.0144: real time    0.0144


--------------------------------------------------------------------------------------------------------


 stress matrix after NEB project (eV)
      0.35562     -0.19473     -0.19473
     -0.19473      0.35562     -0.19473
     -0.19473     -0.19473      0.35562
  FORCES: max atom, RMS     0.007096    0.005367
  FORCE total and by dimension    0.024595    0.004097
  Stress total and by dimension    0.779061    0.355625
 Conjugate gradient step on ions:
 trial-energy change:   -0.000053  1 .order   -0.000057   -0.000086   -0.000029
  (g-gl).g = 0.576E-04      g.g   = 0.605E-04  gl.gl    = 0.102E-03
 g(Force)  = 0.605E-04   g(Stress)= 0.000E+00 ortho     =-0.194E-05
 gamma     =   0.56358
 trial     =   1.44406
 opt step  =   2.17063  (harmonic =   2.17063) maximal distance =0.00120614
 next E    =  -118.881347   (d E  =  -0.00006)


--------------------------------------------------------------------------------------------------------


  
 reached required accuracy - stopping structural energy minimisation
     LOOP+:  cpu time   20.8112: real time   20.9127
    4ORBIT:  cpu time    0.0000: real time    0.0000

 total amount of memory used by VASP MPI-rank0    45786. kBytes
=======================================================================

   base      :      30000. kBytes
   nonlr-proj:       2592. kBytes
   fftplans  :       2241. kBytes
   grid      :       3249. kBytes
   one-center:         48. kBytes
   wavefun   :       7656. kBytes
 
  
  
 General timing and accounting informations for this job:
 ========================================================
  
                  Total CPU time used (sec):      301.340
                            User time (sec):      300.735
                          System time (sec):        0.605
                         Elapsed time (sec):      302.977
  
                   Maximum memory used (kb):       72444.
                   Average memory used (kb):           0.
  
                          Minor page faults:        49252
                          Major page faults:            0
                 Voluntary context switches:          421
