  26  26   0   0
  0.2068449E+02  0.2928747E-09  0.2928746E-09  0.7239759E-08  0.5000000E-15
  1.000000000000000E-004
  CAR 
 unknown system                          
      9.31560703    -22.00461205  301      0.34160681      1.00000000
    -22.005  0.0000E+00  0.0000E+00
    -21.900  0.0000E+00  0.0000E+00
    -21.796  0.0000E+00  0.0000E+00
    -21.691  0.0000E+00  0.0000E+00
    -21.587  0.0000E+00  0.0000E+00
    -21.483  0.0000E+00  0.0000E+00
    -21.378  0.0000E+00  0.0000E+00
    -21.274  0.0000E+00  0.0000E+00
    -21.169  0.0000E+00  0.0000E+00
    -21.065  0.0000E+00  0.0000E+00
    -20.961  0.0000E+00  0.0000E+00
    -20.856  0.7928E-18  0.8277E-19
    -20.752  0.1537E-09  0.1605E-10
    -20.647  0.7740E-05  0.8081E-06
    -20.543  0.7318E-03  0.7721E-04
    -20.439  0.1789E-02  0.2640E-03
    -20.334  0.1909E-02  0.4633E-03
    -20.230  0.2641E-02  0.7390E-03
    -20.125  0.1847E-02  0.9318E-03
    -20.021  0.3383E-02  0.1285E-02
    -19.917  0.2675E-02  0.1564E-02
    -19.812  0.4445E-02  0.2028E-02
    -19.708  0.7285E-02  0.2789E-02
    -19.603  0.1026E-01  0.3860E-02
    -19.499  0.7637E-02  0.4658E-02
    -19.395  0.2376E-02  0.4906E-02
    -19.290  0.3807E-02  0.5303E-02
    -19.186  0.4634E-02  0.5787E-02
    -19.081  0.7202E-02  0.6539E-02
    -18.977  0.1074E-01  0.7660E-02
    -18.873  0.1117E-01  0.8826E-02
    -18.768  0.6036E-02  0.9456E-02
    -18.664  0.6714E-02  0.1016E-01
    -18.559  0.8081E-02  0.1100E-01
    -18.455  0.1302E-01  0.1236E-01
    -18.351  0.8429E-02  0.1324E-01
    -18.246  0.5130E-02  0.1378E-01
    -18.142  0.7635E-02  0.1457E-01
    -18.037  0.1173E-01  0.1580E-01
    -17.933  0.1091E-01  0.1694E-01
    -17.829  0.5480E-02  0.1751E-01
    -17.724  0.7173E-02  0.1826E-01
    -17.620  0.8765E-02  0.1917E-01
    -17.515  0.1283E-01  0.2051E-01
    -17.411  0.7414E-02  0.2129E-01
    -17.307  0.5271E-02  0.2184E-01
    -17.202  0.7655E-02  0.2263E-01
    -17.098  0.1225E-01  0.2391E-01
    -16.993  0.1019E-01  0.2498E-01
    -16.889  0.5000E-02  0.2550E-01
    -16.785  0.7164E-02  0.2625E-01
    -16.680  0.8783E-02  0.2716E-01
    -16.576  0.1288E-01  0.2851E-01
    -16.471  0.7069E-02  0.2925E-01
    -16.367  0.3867E-02  0.2965E-01
    -16.263  0.7533E-02  0.3044E-01
    -16.158  0.1156E-01  0.3164E-01
    -16.054  0.1103E-01  0.3280E-01
    -15.949  0.4726E-02  0.3329E-01
    -15.845  0.4061E-02  0.3371E-01
    -15.741  0.5812E-02  0.3432E-01
    -15.636  0.1021E-01  0.3539E-01
    -15.532  0.5690E-02  0.3598E-01
    -15.427  0.2188E-03  0.3600E-01
    -15.323  0.1610E-02  0.3617E-01
    -15.219  0.3857E-02  0.3657E-01
    -15.114  0.4858E-02  0.3708E-01
    -15.010  0.6842E-02  0.3779E-01
    -14.905  0.1287E-01  0.3914E-01
    -14.801  0.8076E-02  0.3998E-01
    -14.697  0.1702E-03  0.4000E-01
    -14.592  0.6819E-08  0.4000E-01
    -14.488  0.9132E-16  0.4000E-01
    -14.383  0.0000E+00  0.4000E-01
    -14.279  0.0000E+00  0.4000E-01
    -14.175  0.0000E+00  0.4000E-01
    -14.070  0.0000E+00  0.4000E-01
    -13.966  0.0000E+00  0.4000E-01
    -13.861  0.0000E+00  0.4000E-01
    -13.757  0.0000E+00  0.4000E-01
    -13.653  0.0000E+00  0.4000E-01
    -13.548  0.0000E+00  0.4000E-01
    -13.444  0.0000E+00  0.4000E-01
    -13.339  0.0000E+00  0.4000E-01
    -13.235  0.0000E+00  0.4000E-01
    -13.131  0.0000E+00  0.4000E-01
    -13.026  0.0000E+00  0.4000E-01
    -12.922  0.0000E+00  0.4000E-01
    -12.817  0.0000E+00  0.4000E-01
    -12.713  0.0000E+00  0.4000E-01
    -12.609  0.0000E+00  0.4000E-01
    -12.504  0.0000E+00  0.4000E-01
    -12.400  0.0000E+00  0.4000E-01
    -12.295  0.0000E+00  0.4000E-01
    -12.191  0.0000E+00  0.4000E-01
    -12.087  0.0000E+00  0.4000E-01
    -11.982  0.0000E+00  0.4000E-01
    -11.878  0.0000E+00  0.4000E-01
    -11.773  0.0000E+00  0.4000E-01
    -11.669  0.0000E+00  0.4000E-01
    -11.565  0.0000E+00  0.4000E-01
    -11.460  0.0000E+00  0.4000E-01
    -11.356  0.0000E+00  0.4000E-01
    -11.251  0.0000E+00  0.4000E-01
    -11.147  0.0000E+00  0.4000E-01
    -11.043  0.0000E+00  0.4000E-01
    -10.938  0.0000E+00  0.4000E-01
    -10.834  0.0000E+00  0.4000E-01
    -10.729  0.0000E+00  0.4000E-01
    -10.625  0.0000E+00  0.4000E-01
    -10.521  0.1283E-12  0.4000E-01
    -10.416  0.1937E-06  0.4000E-01
    -10.312  0.9672E-04  0.4001E-01
    -10.207  0.3931E-03  0.4005E-01
    -10.103  0.1072E-02  0.4016E-01
     -9.999  0.6684E-04  0.4017E-01
     -9.894  0.1268E-02  0.4030E-01
     -9.790  0.2174E-02  0.4053E-01
     -9.685  0.8234E-03  0.4062E-01
     -9.581  0.6486E-03  0.4068E-01
     -9.477  0.1190E-02  0.4081E-01
     -9.372  0.3232E-02  0.4114E-01
     -9.268  0.6144E-03  0.4121E-01
     -9.163  0.1805E-02  0.4140E-01
     -9.059  0.3048E-02  0.4172E-01
     -8.955  0.1250E-02  0.4185E-01
     -8.850  0.1845E-02  0.4204E-01
     -8.746  0.2794E-02  0.4233E-01
     -8.641  0.2215E-02  0.4256E-01
     -8.537  0.9544E-03  0.4266E-01
     -8.433  0.3896E-02  0.4307E-01
     -8.328  0.4900E-02  0.4358E-01
     -8.224  0.3770E-02  0.4397E-01
     -8.119  0.3412E-02  0.4433E-01
     -8.015  0.7688E-02  0.4513E-01
     -7.911  0.4862E-02  0.4564E-01
     -7.806  0.3624E-02  0.4602E-01
     -7.702  0.5977E-02  0.4664E-01
     -7.597  0.4475E-02  0.4711E-01
     -7.493  0.5260E-02  0.4766E-01
     -7.389  0.5604E-02  0.4824E-01
     -7.284  0.2622E-02  0.4852E-01
     -7.180  0.8445E-02  0.4940E-01
     -7.075  0.1007E-01  0.5045E-01
     -6.971  0.9644E-02  0.5146E-01
     -6.867  0.9111E-02  0.5241E-01
     -6.762  0.8758E-02  0.5332E-01
     -6.658  0.1049E-01  0.5442E-01
     -6.553  0.9344E-02  0.5539E-01
     -6.449  0.1296E-01  0.5675E-01
     -6.345  0.7605E-02  0.5754E-01
     -6.240  0.1419E-01  0.5902E-01
     -6.136  0.1713E-01  0.6081E-01
     -6.031  0.1723E-01  0.6261E-01
     -5.927  0.1530E-01  0.6421E-01
     -5.822  0.6762E-02  0.6491E-01
     -5.718  0.1380E-01  0.6635E-01
     -5.614  0.1805E-01  0.6824E-01
     -5.509  0.1581E-01  0.6989E-01
     -5.405  0.1459E-01  0.7141E-01
     -5.300  0.1539E-01  0.7302E-01
     -5.196  0.2200E-01  0.7531E-01
     -5.092  0.1962E-01  0.7736E-01
     -4.987  0.1523E-01  0.7895E-01
     -4.883  0.2042E-01  0.8108E-01
     -4.778  0.2340E-01  0.8353E-01
     -4.674  0.2432E-01  0.8607E-01
     -4.570  0.2202E-01  0.8837E-01
     -4.465  0.1748E-01  0.9019E-01
     -4.361  0.2239E-01  0.9253E-01
     -4.256  0.2882E-01  0.9554E-01
     -4.152  0.3270E-01  0.9895E-01
     -4.048  0.2978E-01  0.1021E+00
     -3.943  0.2558E-01  0.1047E+00
     -3.839  0.2053E-01  0.1069E+00
     -3.734  0.2994E-01  0.1100E+00
     -3.630  0.3446E-01  0.1136E+00
     -3.526  0.3025E-01  0.1168E+00
     -3.421  0.2397E-01  0.1193E+00
     -3.317  0.2429E-01  0.1218E+00
     -3.212  0.3187E-01  0.1251E+00
     -3.108  0.3079E-01  0.1283E+00
     -3.004  0.2549E-01  0.1310E+00
     -2.899  0.1721E-01  0.1328E+00
     -2.795  0.2794E-01  0.1357E+00
     -2.690  0.3402E-01  0.1393E+00
     -2.586  0.2024E-01  0.1414E+00
     -2.482  0.1949E-01  0.1434E+00
     -2.377  0.2934E-01  0.1465E+00
     -2.273  0.2561E-01  0.1491E+00
     -2.168  0.2604E-01  0.1519E+00
     -2.064  0.2522E-01  0.1545E+00
     -1.960  0.2356E-01  0.1570E+00
     -1.855  0.2323E-01  0.1594E+00
     -1.751  0.2717E-01  0.1622E+00
     -1.646  0.1910E-01  0.1642E+00
     -1.542  0.2111E-01  0.1664E+00
     -1.438  0.1765E-01  0.1683E+00
     -1.333  0.1970E-01  0.1703E+00
     -1.229  0.1886E-01  0.1723E+00
     -1.124  0.1628E-01  0.1740E+00
     -1.020  0.1228E-01  0.1753E+00
     -0.916  0.1786E-01  0.1771E+00
     -0.811  0.2586E-01  0.1798E+00
     -0.707  0.2217E-01  0.1821E+00
     -0.602  0.1273E-01  0.1835E+00
     -0.498  0.1438E-01  0.1850E+00
     -0.394  0.1462E-01  0.1865E+00
     -0.289  0.1007E-01  0.1875E+00
     -0.185  0.1108E-01  0.1887E+00
     -0.080  0.1205E-01  0.1900E+00
      0.024  0.1081E-01  0.1911E+00
      0.128  0.1282E-01  0.1924E+00
      0.233  0.1725E-01  0.1942E+00
      0.337  0.3477E-01  0.1979E+00
      0.442  0.1698E-01  0.1996E+00
      0.546  0.9643E-02  0.2006E+00
      0.650  0.4149E-02  0.2011E+00
      0.755  0.3898E-02  0.2015E+00
      0.859  0.6199E-02  0.2021E+00
      0.964  0.7129E-02  0.2029E+00
      1.068  0.8576E-02  0.2038E+00
      1.172  0.9945E-02  0.2048E+00
      1.277  0.8554E-02  0.2057E+00
      1.381  0.5214E-02  0.2062E+00
      1.486  0.7169E-02  0.2070E+00
      1.590  0.8554E-02  0.2079E+00
      1.694  0.6081E-02  0.2085E+00
      1.799  0.4110E-02  0.2089E+00
      1.903  0.2400E-02  0.2092E+00
      2.008  0.5158E-02  0.2097E+00
      2.112  0.9254E-02  0.2107E+00
      2.216  0.7302E-02  0.2115E+00
      2.321  0.5711E-02  0.2121E+00
      2.425  0.1046E-01  0.2132E+00
      2.530  0.7543E-02  0.2139E+00
      2.634  0.4028E-02  0.2144E+00
      2.738  0.6768E-02  0.2151E+00
      2.843  0.1083E-01  0.2162E+00
      2.947  0.7982E-02  0.2170E+00
      3.052  0.7601E-02  0.2178E+00
      3.156  0.7283E-02  0.2186E+00
      3.260  0.7859E-02  0.2194E+00
      3.365  0.8586E-02  0.2203E+00
      3.469  0.8972E-02  0.2212E+00
      3.574  0.5357E-02  0.2218E+00
      3.678  0.7445E-02  0.2226E+00
      3.782  0.8029E-02  0.2234E+00
      3.887  0.9714E-02  0.2244E+00
      3.991  0.1130E-01  0.2256E+00
      4.096  0.8858E-02  0.2265E+00
      4.200  0.8575E-02  0.2274E+00
      4.304  0.9790E-02  0.2285E+00
      4.409  0.1100E-01  0.2296E+00
      4.513  0.1313E-01  0.2310E+00
      4.618  0.8094E-02  0.2318E+00
      4.722  0.8943E-02  0.2328E+00
      4.826  0.1102E-01  0.2339E+00
      4.931  0.1360E-01  0.2353E+00
      5.035  0.8620E-02  0.2362E+00
      5.140  0.1047E-01  0.2373E+00
      5.244  0.1249E-01  0.2386E+00
      5.348  0.1106E-01  0.2398E+00
      5.453  0.1359E-01  0.2412E+00
      5.557  0.1406E-01  0.2427E+00
      5.662  0.1389E-01  0.2441E+00
      5.766  0.1292E-01  0.2455E+00
      5.870  0.1563E-01  0.2471E+00
      5.975  0.1502E-01  0.2487E+00
      6.079  0.1293E-01  0.2500E+00
      6.184  0.1220E-01  0.2513E+00
      6.288  0.2018E-01  0.2534E+00
      6.392  0.1420E-01  0.2549E+00
      6.497  0.1630E-01  0.2566E+00
      6.601  0.8355E-02  0.2574E+00
      6.706  0.7511E-02  0.2582E+00
      6.810  0.4795E-02  0.2587E+00
      6.914  0.4454E-02  0.2592E+00
      7.019  0.2192E-02  0.2594E+00
      7.123  0.3544E-03  0.2595E+00
      7.228  0.4417E-03  0.2595E+00
      7.332  0.5277E-03  0.2596E+00
      7.436  0.1088E-02  0.2597E+00
      7.541  0.1039E-02  0.2598E+00
      7.645  0.1631E-02  0.2600E+00
      7.750  0.2247E-03  0.2600E+00
      7.854  0.3212E-04  0.2600E+00
      7.958  0.1878E-03  0.2600E+00
      8.063  0.6827E-05  0.2600E+00
      8.167  0.1532E-09  0.2600E+00
      8.272  0.8054E-18  0.2600E+00
      8.376  0.0000E+00  0.2600E+00
      8.480  0.0000E+00  0.2600E+00
      8.585  0.0000E+00  0.2600E+00
      8.689  0.0000E+00  0.2600E+00
      8.794  0.0000E+00  0.2600E+00
      8.898  0.0000E+00  0.2600E+00
      9.002  0.0000E+00  0.2600E+00
      9.107  0.0000E+00  0.2600E+00
      9.211  0.0000E+00  0.2600E+00
      9.316  0.0000E+00  0.2600E+00
