       N       E                     dE             d eps       ncg     rms          rms(c)
DAV:   1     0.717789814677E+03    0.71779E+03   -0.41177E+04  6590   0.125E+03
DAV:   2    -0.398899580737E+02   -0.75768E+03   -0.71640E+03  8425   0.279E+02
DAV:   3    -0.151812814033E+03   -0.11192E+03   -0.11104E+03  7500   0.113E+02
DAV:   4    -0.154952384632E+03   -0.31396E+01   -0.31325E+01  7740   0.217E+01
DAV:   5    -0.155049251401E+03   -0.96867E-01   -0.96825E-01  8955   0.346E+00    0.244E+01
DAV:   6    -0.150798245586E+03    0.42510E+01   -0.16700E+02  7665   0.354E+01    0.318E+01
DAV:   7    -0.142910193318E+03    0.78881E+01   -0.17497E+02  7420   0.152E+01    0.118E+01
DAV:   8    -0.139677232492E+03    0.32330E+01   -0.40878E+00  7640   0.792E+00    0.828E+00
DAV:   9    -0.137485723936E+03    0.21915E+01   -0.62507E+00  8155   0.996E+00    0.703E+00
DAV:  10    -0.135313531950E+03    0.21722E+01   -0.24595E+00  7620   0.524E+00    0.532E+00
DAV:  11    -0.135103142490E+03    0.21039E+00   -0.53208E-01  7430   0.197E+00    0.226E+00
DAV:  12    -0.136923644080E+03   -0.18205E+01   -0.13389E+01  9130   0.598E+00    0.175E+01
DAV:  13    -0.137442669283E+03   -0.51903E+00   -0.69848E+01  9135   0.649E+00    0.111E+01
DAV:  14    -0.136057084508E+03    0.13856E+01   -0.17912E+00  7405   0.325E+00    0.730E+00
DAV:  15    -0.134993455942E+03    0.10636E+01   -0.33224E-01  7935   0.263E+00    0.454E+00
DAV:  16    -0.134941127690E+03    0.52328E-01   -0.29163E+00  7985   0.186E+00    0.576E+00
DAV:  17    -0.134927688668E+03    0.13439E-01   -0.24522E-02  6940   0.597E-01    0.576E+00
DAV:  18    -0.134909816974E+03    0.17872E-01   -0.65532E-04  8405   0.997E-02    0.576E+00
DAV:  19    -0.134846585575E+03    0.63231E-01   -0.44348E-02  7240   0.861E-01    0.492E+00
DAV:  20    -0.134764635798E+03    0.81950E-01   -0.17815E-01  7685   0.113E+00    0.293E+00
DAV:  21    -0.134753116131E+03    0.11520E-01   -0.48196E-01  7470   0.848E-01    0.259E+00
DAV:  22    -0.134717035131E+03    0.36081E-01   -0.72107E-03  7075   0.545E-01    0.691E-01
DAV:  23    -0.134714625043E+03    0.24101E-02   -0.10069E-02  7315   0.426E-01    0.927E-01
DAV:  24    -0.134710743606E+03    0.38814E-02   -0.44954E-03  8100   0.353E-01    0.649E-01
DAV:  25    -0.134719956964E+03   -0.92134E-02   -0.35739E-02  8800   0.618E-01    0.201E+00
DAV:  26    -0.134732329942E+03   -0.12373E-01   -0.13490E-01  7900   0.558E-01    0.261E+00
DAV:  27    -0.134733181132E+03   -0.85119E-03   -0.23491E-03  7580   0.328E-01    0.270E+00
DAV:  28    -0.134703896473E+03    0.29285E-01   -0.16483E-02  8950   0.717E-01    0.139E+00
DAV:  29    -0.134701773915E+03    0.21226E-02   -0.39322E-03  7340   0.256E-01    0.870E-01
DAV:  30    -0.134702116839E+03   -0.34292E-03   -0.11880E-03  7395   0.242E-01    0.832E-01
DAV:  31    -0.134701969654E+03    0.14718E-03   -0.45177E-03  6760   0.384E-01    0.990E-01
DAV:  32    -0.134699979546E+03    0.19901E-02   -0.34752E-03  7130   0.198E-01    0.573E-01
DAV:  33    -0.134706894009E+03   -0.69145E-02   -0.27653E-03  7235   0.192E-01    0.144E+00
DAV:  34    -0.134702447651E+03    0.44464E-02   -0.95216E-04  7065   0.113E-01    0.103E+00
DAV:  35    -0.134698189593E+03    0.42581E-02   -0.12987E-03  7955   0.187E-01    0.430E-01
DAV:  36    -0.134697770074E+03    0.41952E-03   -0.46056E-04  7680   0.112E-01    0.207E-01
DAV:  37    -0.134697734740E+03    0.35334E-04   -0.19705E-04  6865   0.788E-02    0.190E-01
DAV:  38    -0.134697676388E+03    0.58352E-04   -0.23040E-04  6720   0.101E-01    0.250E-01
DAV:  39    -0.134697615078E+03    0.61310E-04   -0.19104E-04  6900   0.968E-02    0.249E-01
DAV:  40    -0.134697881685E+03   -0.26661E-03   -0.15527E-04  6970   0.628E-02    0.338E-01
DAV:  41    -0.134697416732E+03    0.46495E-03   -0.71521E-05  6860   0.460E-02    0.194E-01
DAV:  42    -0.134697156925E+03    0.25981E-03   -0.69865E-05  6780   0.606E-02    0.215E-01
DAV:  43    -0.134696982419E+03    0.17451E-03   -0.12720E-04  7465   0.809E-02    0.140E-01
DAV:  44    -0.134698090776E+03   -0.11084E-02   -0.22298E-04  8110   0.882E-02    0.519E-01
DAV:  45    -0.134697343497E+03    0.74728E-03   -0.67587E-05  6915   0.654E-02    0.351E-01
DAV:  46    -0.134697090896E+03    0.25260E-03   -0.72772E-05  6850   0.697E-02    0.243E-01
DAV:  47    -0.134697431250E+03   -0.34035E-03   -0.41174E-05  6375   0.539E-02    0.358E-01
DAV:  48    -0.134696955794E+03    0.47546E-03   -0.29381E-05  5655   0.620E-02    0.145E-01
DAV:  49    -0.134696855810E+03    0.99984E-04   -0.26182E-05  5565   0.520E-02    0.725E-02
DAV:  50    -0.134696838434E+03    0.17376E-04   -0.34237E-05  6230   0.346E-02    0.463E-02
DAV:  51    -0.134696865483E+03   -0.27049E-04   -0.23517E-05  5380   0.267E-02    0.464E-02
DAV:  52    -0.134696880651E+03   -0.15168E-04   -0.15801E-05  5195   0.206E-02    0.228E-02
DAV:  53    -0.134696889072E+03   -0.84213E-05   -0.10432E-05  4095   0.182E-02
   1 F= -.13469689E+03 E0= -.13468861E+03  d E =-.134697E+03
       N       E                     dE             d eps       ncg     rms          rms(c)
DAV:   1    -0.135438920605E+03   -0.74204E+00   -0.26922E+01  6615   0.209E+01    0.473E+00
DAV:   2    -0.148359848604E+03   -0.12921E+02   -0.71130E+01  8160   0.114E+01    0.290E+01
DAV:   3    -0.135364308938E+03    0.12996E+02   -0.37752E+01  6950   0.565E+00    0.546E+00
DAV:   4    -0.135287639460E+03    0.76669E-01   -0.31908E+00  7870   0.255E+00    0.240E+00
DAV:   5    -0.135225455339E+03    0.62184E-01   -0.11708E-01  7345   0.127E+00    0.189E+00
DAV:   6    -0.135204494749E+03    0.20961E-01   -0.77479E-02  7525   0.110E+00    0.669E-01
DAV:   7    -0.135203270942E+03    0.12238E-02   -0.21730E-02  6840   0.510E-01    0.831E-01
DAV:   8    -0.135200019869E+03    0.32511E-02   -0.51709E-03  7495   0.307E-01    0.220E-01
DAV:   9    -0.135200021506E+03   -0.16366E-05   -0.14040E-03  6830   0.166E-01    0.703E-02
DAV:  10    -0.135199997939E+03    0.23567E-04   -0.22607E-04  7950   0.100E-01    0.101E-01
DAV:  11    -0.135199980211E+03    0.17728E-04   -0.79388E-05  7315   0.872E-02    0.507E-02
DAV:  12    -0.135199978793E+03    0.14178E-05   -0.63483E-05  6410   0.613E-02
   2 F= -.13519998E+03 E0= -.13519098E+03  d E =-.503090E+00
       N       E                     dE             d eps       ncg     rms          rms(c)
DAV:   1    -0.137106315879E+03   -0.19063E+01   -0.24204E+02  6655   0.631E+01    0.861E+00
DAV:   2    -0.150399958487E+03   -0.13294E+02   -0.38814E+01  8070   0.204E+01    0.295E+01
DAV:   3    -0.136676526130E+03    0.13723E+02   -0.52170E+01  6825   0.793E+00    0.656E+00
DAV:   4    -0.136319238194E+03    0.35729E+00   -0.33464E+00  7270   0.519E+00    0.478E+00
DAV:   5    -0.136003621456E+03    0.31562E+00   -0.46193E+00  8730   0.475E+00    0.221E+00
DAV:   6    -0.135952868286E+03    0.50753E-01   -0.20676E-01  7435   0.225E+00    0.206E+00
DAV:   7    -0.135929226804E+03    0.23641E-01   -0.16320E-01  7105   0.135E+00    0.631E-01
DAV:   8    -0.135923788824E+03    0.54380E-02   -0.18000E-02  7400   0.513E-01    0.467E-01
DAV:   9    -0.135920957432E+03    0.28314E-02   -0.88799E-03  7400   0.406E-01    0.207E-01
DAV:  10    -0.135920075014E+03    0.88242E-03   -0.27391E-03  8480   0.334E-01    0.178E-01
DAV:  11    -0.135919308135E+03    0.76688E-03   -0.11990E-03  7620   0.267E-01    0.148E-01
DAV:  12    -0.135918973079E+03    0.33506E-03   -0.10837E-03  6965   0.144E-01    0.737E-02
DAV:  13    -0.135918766965E+03    0.20611E-03   -0.14229E-04  6915   0.669E-02    0.467E-02
DAV:  14    -0.135918184214E+03    0.58275E-03   -0.48391E-04  6735   0.165E-01    0.737E-02
DAV:  15    -0.135917873222E+03    0.31099E-03   -0.26359E-04  7150   0.110E-01    0.487E-02
DAV:  16    -0.135917616291E+03    0.25693E-03   -0.32291E-04  7290   0.114E-01    0.726E-02
DAV:  17    -0.135917370880E+03    0.24541E-03   -0.14765E-04  6820   0.628E-02    0.252E-02
DAV:  18    -0.135917116098E+03    0.25478E-03   -0.50185E-05  6630   0.262E-02    0.282E-02
DAV:  19    -0.135916696874E+03    0.41922E-03   -0.13141E-04  6640   0.347E-02    0.434E-02
DAV:  20    -0.135916402397E+03    0.29448E-03   -0.65572E-05  6480   0.277E-02    0.424E-02
DAV:  21    -0.135916061204E+03    0.34119E-03   -0.49948E-05  5765   0.267E-02    0.131E-02
DAV:  22    -0.135915864752E+03    0.19645E-03   -0.23049E-05  5335   0.375E-02    0.227E-02
DAV:  23    -0.135915734600E+03    0.13015E-03   -0.31406E-05  6035   0.315E-02    0.806E-03
DAV:  24    -0.135915690335E+03    0.44265E-04   -0.78089E-06  4445   0.130E-02    0.724E-03
DAV:  25    -0.135915601403E+03    0.88932E-04   -0.18089E-05  5385   0.166E-02    0.112E-02
DAV:  26    -0.135915570559E+03    0.30844E-04   -0.11589E-05  4590   0.168E-02    0.764E-03
DAV:  27    -0.135915489405E+03    0.81154E-04   -0.25511E-05  6165   0.188E-02    0.112E-02
DAV:  28    -0.135915447433E+03    0.41972E-04   -0.53539E-06  4600   0.156E-02    0.930E-03
DAV:  29    -0.135915417878E+03    0.29555E-04   -0.20902E-05  5680   0.273E-02    0.543E-03
DAV:  30    -0.135915405867E+03    0.12011E-04   -0.13617E-05  4825   0.156E-02    0.119E-02
DAV:  31    -0.135915405242E+03    0.62515E-06   -0.56326E-06  4190   0.156E-02
   3 F= -.13591541E+03 E0= -.13590683E+03  d E =-.121852E+01
       N       E                     dE             d eps       ncg     rms          rms(c)
DAV:   1    -0.136157899190E+03   -0.24249E+00   -0.29601E+01  6375   0.209E+01    0.273E+00
DAV:   2    -0.141168163370E+03   -0.50103E+01   -0.29406E+01  7910   0.815E+00    0.221E+01
DAV:   3    -0.136152139944E+03    0.50160E+01   -0.22314E+01  7130   0.387E+00    0.125E+00
DAV:   4    -0.136150463458E+03    0.16765E-02   -0.12516E-01  7265   0.130E+00    0.589E-01
DAV:   5    -0.136144377567E+03    0.60859E-02   -0.23632E-02  7355   0.746E-01    0.338E-01
DAV:   6    -0.136140583610E+03    0.37940E-02   -0.14118E-02  8030   0.652E-01    0.258E-01
DAV:   7    -0.136139707144E+03    0.87647E-03   -0.48505E-03  7425   0.328E-01    0.904E-02
DAV:   8    -0.136139143249E+03    0.56390E-03   -0.83231E-04  7595   0.191E-01    0.591E-02
DAV:   9    -0.136138602999E+03    0.54025E-03   -0.47496E-04  8560   0.215E-01    0.425E-02
DAV:  10    -0.136138186713E+03    0.41629E-03   -0.41337E-04  8565   0.241E-01    0.433E-02
DAV:  11    -0.136138002511E+03    0.18420E-03   -0.37534E-04  8345   0.199E-01    0.336E-02
DAV:  12    -0.136137865882E+03    0.13663E-03   -0.29009E-04  9290   0.219E-01    0.177E-02
DAV:  13    -0.136137851522E+03    0.14360E-04   -0.30958E-04  7285   0.113E-01    0.140E-02
DAV:  14    -0.136137843054E+03    0.84677E-05   -0.62903E-05  7355   0.724E-02
   4 F= -.13613784E+03 E0= -.13613046E+03  d E =-.222438E+00
       N       E                     dE             d eps       ncg     rms          rms(c)
DAV:   1    -0.136247461965E+03   -0.10961E+00   -0.30122E+01  6380   0.212E+01    0.254E+00
DAV:   2    -0.140499869751E+03   -0.42524E+01   -0.27328E+01  7805   0.772E+00    0.207E+01
DAV:   3    -0.136250825126E+03    0.42490E+01   -0.17926E+01  7350   0.365E+00    0.130E+00
DAV:   4    -0.136242741114E+03    0.80840E-02   -0.11480E-01  7305   0.127E+00    0.613E-01
DAV:   5    -0.136234683982E+03    0.80571E-02   -0.20320E-02  7535   0.847E-01    0.375E-01
DAV:   6    -0.136226094371E+03    0.85896E-02   -0.19672E-02  8355   0.976E-01    0.251E-01
DAV:   7    -0.136224461207E+03    0.16332E-02   -0.83803E-03  7330   0.485E-01    0.126E-01
DAV:   8    -0.136223123544E+03    0.13377E-02   -0.11431E-03  8115   0.278E-01    0.813E-02
DAV:   9    -0.136221160519E+03    0.19630E-02   -0.11992E-03  8530   0.408E-01    0.466E-02
DAV:  10    -0.136220065159E+03    0.10954E-02   -0.11526E-03  8310   0.347E-01    0.747E-02
DAV:  11    -0.136219455881E+03    0.60928E-03   -0.10597E-03  8720   0.309E-01    0.626E-02
DAV:  12    -0.136218859123E+03    0.59676E-03   -0.59576E-04  9165   0.342E-01    0.344E-02
DAV:  13    -0.136218602761E+03    0.25636E-03   -0.79940E-04  7660   0.263E-01    0.205E-02
DAV:  14    -0.136218554160E+03    0.48600E-04   -0.60567E-04  7625   0.176E-01    0.312E-02
DAV:  15    -0.136218537482E+03    0.16678E-04   -0.23640E-04  7335   0.877E-02    0.272E-02
DAV:  16    -0.136218509845E+03    0.27638E-04   -0.33036E-05  6975   0.662E-02    0.233E-02
DAV:  17    -0.136218480322E+03    0.29523E-04   -0.66343E-05  7165   0.790E-02    0.106E-02
DAV:  18    -0.136218482099E+03   -0.17779E-05   -0.48692E-05  6625   0.267E-02
   5 F= -.13621848E+03 E0= -.13621151E+03  d E =-.303077E+00
       N       E                     dE             d eps       ncg     rms          rms(c)
DAV:   1    -0.136520500263E+03   -0.30202E+00   -0.13726E+01  6510   0.157E+01    0.154E+00
DAV:   2    -0.136761344798E+03   -0.24084E+00   -0.13074E+00  7060   0.255E+00    0.494E+00
DAV:   3    -0.136540677978E+03    0.22067E+00   -0.17350E+00  8420   0.170E+00    0.176E+00
DAV:   4    -0.136517897948E+03    0.22780E-01   -0.10098E-01  7160   0.720E-01    0.673E-01
DAV:   5    -0.136512386999E+03    0.55109E-02   -0.32946E-02  8520   0.551E-01    0.384E-01
DAV:   6    -0.136510055920E+03    0.23311E-02   -0.66552E-03  7955   0.349E-01    0.236E-01
DAV:   7    -0.136508244147E+03    0.18118E-02   -0.46509E-03  7870   0.366E-01    0.172E-01
DAV:   8    -0.136507772115E+03    0.47203E-03   -0.16714E-03  7590   0.188E-01    0.792E-02
DAV:   9    -0.136507309998E+03    0.46212E-03   -0.36384E-04  8925   0.141E-01    0.357E-02
DAV:  10    -0.136506469050E+03    0.84095E-03   -0.40763E-04  9390   0.253E-01    0.447E-02
DAV:  11    -0.136505839085E+03    0.62996E-03   -0.51700E-04  8395   0.249E-01    0.296E-02
DAV:  12    -0.136505362844E+03    0.47624E-03   -0.59196E-04  8475   0.276E-01    0.204E-02
DAV:  13    -0.136505103427E+03    0.25942E-03   -0.63094E-04  8335   0.278E-01    0.140E-02
DAV:  14    -0.136505091126E+03    0.12301E-04   -0.64564E-04  7330   0.161E-01    0.154E-02
DAV:  15    -0.136505112550E+03   -0.21425E-04   -0.22087E-04  6990   0.520E-02    0.203E-02
DAV:  16    -0.136505113708E+03   -0.11582E-05   -0.59212E-06  4320   0.957E-03
   6 F= -.13650511E+03 E0= -.13649740E+03  d E =-.286632E+00
       N       E                     dE             d eps       ncg     rms          rms(c)
DAV:   1    -0.136941924368E+03   -0.43681E+00   -0.87366E+01  6475   0.389E+01    0.496E+00
DAV:   2    -0.139473983786E+03   -0.25321E+01   -0.25983E+01  7670   0.847E+00    0.736E+00
DAV:   3    -0.137204564580E+03    0.22694E+01   -0.10641E+00  8450   0.674E+00    0.528E+00
DAV:   4    -0.139613024537E+03   -0.24085E+01   -0.21424E+01  8145   0.487E+00    0.177E+01
DAV:   5    -0.136951017973E+03    0.26620E+01   -0.12607E+01  7380   0.237E+00    0.228E+00
DAV:   6    -0.136954464985E+03   -0.34470E-02   -0.62665E-01  8330   0.153E+00    0.344E+00
DAV:   7    -0.136993455766E+03   -0.38991E-01   -0.13436E+00  7540   0.168E+00    0.373E+00
DAV:   8    -0.136950115507E+03    0.43340E-01   -0.28603E-02  7410   0.732E-01    0.331E+00
DAV:   9    -0.136858545625E+03    0.91570E-01   -0.40662E-01  8640   0.832E-01    0.304E-01
DAV:  10    -0.136859634097E+03   -0.10885E-02   -0.67959E-03  7410   0.386E-01    0.257E-01
DAV:  11    -0.136857253914E+03    0.23802E-02   -0.18494E-03  9730   0.405E-01    0.441E-01
DAV:  12    -0.136854105848E+03    0.31481E-02   -0.23955E-03  7800   0.338E-01    0.323E-01
DAV:  13    -0.136851001762E+03    0.31041E-02   -0.16098E-03  9165   0.432E-01    0.266E-01
DAV:  14    -0.136847667803E+03    0.33340E-02   -0.32703E-03  7990   0.520E-01    0.148E-01
DAV:  15    -0.136846112680E+03    0.15551E-02   -0.23713E-03  8455   0.493E-01    0.284E-01
DAV:  16    -0.136844709544E+03    0.14031E-02   -0.28212E-03  8090   0.464E-01    0.134E-01
DAV:  17    -0.136844407995E+03    0.30155E-03   -0.15474E-03  7810   0.354E-01    0.150E-01
DAV:  18    -0.136844270138E+03    0.13786E-03   -0.13614E-03  7560   0.161E-01    0.266E-02
DAV:  19    -0.136844291359E+03   -0.21221E-04   -0.12824E-04  7200   0.410E-02    0.267E-02
DAV:  20    -0.136844282807E+03    0.85515E-05   -0.82622E-06  4340   0.125E-02
   7 F= -.13684428E+03 E0= -.13683574E+03  d E =-.625801E+00
       N       E                     dE             d eps       ncg     rms          rms(c)
DAV:   1    -0.136848672620E+03   -0.43813E-02   -0.12405E+00  6625   0.454E+00    0.445E-01
DAV:   2    -0.136862340029E+03   -0.13667E-01   -0.86013E-02  7270   0.695E-01    0.123E+00
DAV:   3    -0.136851288005E+03    0.11052E-01   -0.10463E-01  7790   0.351E-01    0.681E-01
DAV:   4    -0.136848544024E+03    0.27440E-02   -0.48849E-03  7280   0.216E-01    0.220E-01
DAV:   5    -0.136847907575E+03    0.63645E-03   -0.34571E-03  7910   0.186E-01    0.118E-01
DAV:   6    -0.136847617567E+03    0.29001E-03   -0.11677E-03  7920   0.127E-01    0.533E-02
DAV:   7    -0.136847543854E+03    0.73713E-04   -0.16076E-04  7350   0.684E-02    0.203E-02
DAV:   8    -0.136847489368E+03    0.54485E-04   -0.31958E-05  6970   0.394E-02    0.153E-02
DAV:   9    -0.136847379148E+03    0.11022E-03   -0.27793E-05  6380   0.666E-02    0.101E-02
DAV:  10    -0.136847271206E+03    0.10794E-03   -0.59924E-05  7930   0.773E-02    0.984E-03
DAV:  11    -0.136847203057E+03    0.68149E-04   -0.54235E-05  7530   0.680E-02    0.858E-03
DAV:  12    -0.136847112191E+03    0.90866E-04   -0.96511E-05  8880   0.126E-01    0.105E-02
DAV:  13    -0.136847087147E+03    0.25044E-04   -0.10772E-04  7220   0.815E-02    0.939E-03
DAV:  14    -0.136847089691E+03   -0.25446E-05   -0.67749E-05  6705   0.424E-02
   8 F= -.13684709E+03 E0= -.13683840E+03  d E =-.628608E+00
       N       E                     dE             d eps       ncg     rms          rms(c)
DAV:   1    -0.137012635297E+03   -0.16555E+00   -0.14445E+01  6470   0.160E+01    0.256E+00
DAV:   2    -0.138897404994E+03   -0.18848E+01   -0.15676E+01  8220   0.471E+00    0.676E+00
DAV:   3    -0.137246238690E+03    0.16512E+01   -0.54518E-01  8640   0.393E+00    0.514E+00
DAV:   4    -0.137060317326E+03    0.18592E+00   -0.24623E+00  7770   0.179E+00    0.354E+00
DAV:   5    -0.137072318255E+03   -0.12001E-01   -0.77230E-02  7610   0.727E-01    0.398E+00
DAV:   6    -0.136998338637E+03    0.73980E-01   -0.62614E-01  7950   0.710E-01    0.128E+00
DAV:   7    -0.136998895993E+03   -0.55736E-03   -0.47980E-03  6930   0.245E-01    0.128E+00
DAV:   8    -0.136988263768E+03    0.10632E-01   -0.10167E-01  7520   0.514E-01    0.716E-01
DAV:   9    -0.136989834884E+03   -0.15711E-02   -0.54545E-03  8115   0.373E-01    0.109E+00
DAV:  10    -0.136985148746E+03    0.46861E-02   -0.19393E-03  7590   0.170E-01    0.657E-01
DAV:  11    -0.136982737085E+03    0.24117E-02   -0.26983E-03  7290   0.216E-01    0.148E-01
DAV:  12    -0.136982520567E+03    0.21652E-03   -0.71632E-04  8680   0.210E-01    0.161E-01
DAV:  13    -0.136982067217E+03    0.45335E-03   -0.38449E-04  7935   0.132E-01    0.372E-02
DAV:  14    -0.136981414507E+03    0.65271E-03   -0.38770E-04  9745   0.254E-01    0.743E-02
DAV:  15    -0.136980987496E+03    0.42701E-03   -0.49983E-04  8230   0.209E-01    0.699E-02
DAV:  16    -0.136980789600E+03    0.19790E-03   -0.38908E-04  8165   0.167E-01    0.522E-02
DAV:  17    -0.136980680896E+03    0.10870E-03   -0.22584E-04  8210   0.157E-01    0.176E-02
DAV:  18    -0.136980670247E+03    0.10649E-04   -0.22301E-04  7770   0.107E-01    0.633E-02
DAV:  19    -0.136980636002E+03    0.34245E-04   -0.10211E-04  7025   0.527E-02    0.122E-02
DAV:  20    -0.136980639794E+03   -0.37917E-05   -0.20045E-05  5740   0.187E-02
   9 F= -.13698064E+03 E0= -.13697028E+03  d E =-.133550E+00
       N       E                     dE             d eps       ncg     rms          rms(c)
DAV:   1    -0.137061053001E+03   -0.80417E-01   -0.13846E+01  6450   0.156E+01    0.274E+00
DAV:   2    -0.139144882918E+03   -0.20838E+01   -0.18911E+01  8300   0.494E+00    0.702E+00
DAV:   3    -0.137360682779E+03    0.17842E+01   -0.63213E-01  9155   0.453E+00    0.538E+00
DAV:   4    -0.137117196461E+03    0.24349E+00   -0.25611E+00  7890   0.205E+00    0.390E+00
DAV:   5    -0.137049769946E+03    0.67427E-01   -0.12702E-01  7345   0.745E-01    0.165E+00
DAV:   6    -0.137039441215E+03    0.10329E-01   -0.46710E-02  7265   0.316E-01    0.105E+00
DAV:   7    -0.137034597383E+03    0.48438E-02   -0.24718E-03  7010   0.169E-01    0.719E-01
DAV:   8    -0.137056030029E+03   -0.21433E-01   -0.11253E-01  7320   0.536E-01    0.248E+00
DAV:   9    -0.137030980784E+03    0.25049E-01   -0.22879E-02  7680   0.360E-01    0.988E-01
DAV:  10    -0.137028072839E+03    0.29079E-02   -0.52410E-03  7280   0.261E-01    0.305E-01
DAV:  11    -0.137030449775E+03   -0.23769E-02   -0.11274E-03  7660   0.164E-01    0.576E-01
DAV:  12    -0.137028528826E+03    0.19209E-02   -0.33576E-03  8310   0.132E-01    0.117E-01
DAV:  13    -0.137027805020E+03    0.72381E-03   -0.67535E-04  8760   0.277E-01    0.208E-01
DAV:  14    -0.137027826556E+03   -0.21537E-04   -0.82493E-04  8760   0.264E-01    0.393E-01
DAV:  15    -0.137026518066E+03    0.13085E-02   -0.69765E-04  7970   0.208E-01    0.126E-01
DAV:  16    -0.137026252698E+03    0.26537E-03   -0.41411E-04  9340   0.242E-01    0.724E-02
DAV:  17    -0.137026197104E+03    0.55593E-04   -0.45166E-04  7480   0.155E-01    0.753E-02
DAV:  18    -0.137026147769E+03    0.49335E-04   -0.24724E-04  7325   0.772E-02    0.143E-02
DAV:  19    -0.137026169901E+03   -0.22132E-04   -0.33838E-05  6170   0.315E-02    0.526E-02
DAV:  20    -0.137026128742E+03    0.41159E-04   -0.23791E-05  6015   0.488E-02    0.410E-02
DAV:  21    -0.137026105289E+03    0.23453E-04   -0.27899E-05  6160   0.505E-02    0.235E-02
DAV:  22    -0.137026098109E+03    0.71798E-05   -0.41926E-05  6565   0.565E-02
  10 F= -.13702610E+03 E0= -.13701546E+03  d E =-.179008E+00
       N       E                     dE             d eps       ncg     rms          rms(c)
DAV:   1    -0.137071023623E+03   -0.44918E-01   -0.54684E+00  6630   0.912E+00    0.117E+00
DAV:   2    -0.137665241979E+03   -0.59422E+00   -0.29917E+00  7895   0.227E+00    0.577E+00
DAV:   3    -0.137072151900E+03    0.59309E+00   -0.82944E-01  8500   0.183E+00    0.758E-01
DAV:   4    -0.137070774321E+03    0.13776E-02   -0.47470E-02  7770   0.565E-01    0.217E-01
DAV:   5    -0.137070376923E+03    0.39740E-03   -0.29171E-03  7570   0.221E-01    0.780E-02
DAV:   6    -0.137069992560E+03    0.38436E-03   -0.78382E-04  7385   0.161E-01    0.508E-02
DAV:   7    -0.137069930599E+03    0.61961E-04   -0.45161E-04  7600   0.112E-01    0.975E-02
DAV:   8    -0.137069831366E+03    0.99233E-04   -0.10534E-04  7320   0.540E-02    0.476E-02
DAV:   9    -0.137069832849E+03   -0.14829E-05   -0.21355E-05  5250   0.236E-02
  11 F= -.13706983E+03 E0= -.13705985E+03  d E =-.437347E-01
       N       E                     dE             d eps       ncg     rms          rms(c)
DAV:   1    -0.137116819503E+03   -0.46988E-01   -0.23286E+01  6600   0.187E+01    0.298E+00
DAV:   2    -0.139193679529E+03   -0.20769E+01   -0.18752E+01  8030   0.519E+00    0.743E+00
DAV:   3    -0.137325045463E+03    0.18686E+01   -0.73141E-01  8455   0.478E+00    0.492E+00
DAV:   4    -0.137112465349E+03    0.21258E+00   -0.11318E+00  7640   0.160E+00    0.104E+00
DAV:   5    -0.137113965526E+03   -0.15002E-02   -0.59474E-02  7590   0.653E-01    0.954E-01
DAV:   6    -0.137113819796E+03    0.14573E-03   -0.53905E-03  7280   0.307E-01    0.102E+00
DAV:   7    -0.137110496154E+03    0.33236E-02   -0.51953E-03  7480   0.333E-01    0.952E-01
DAV:   8    -0.137102669812E+03    0.78263E-02   -0.63799E-03  7380   0.317E-01    0.326E-01
DAV:   9    -0.137102656295E+03    0.13517E-04   -0.11070E-03  6990   0.135E-01    0.273E-01
DAV:  10    -0.137102420681E+03    0.23561E-03   -0.90860E-05  7660   0.388E-02    0.239E-01
DAV:  11    -0.137101768610E+03    0.65207E-03   -0.16549E-03  7950   0.200E-01    0.187E-01
DAV:  12    -0.137101526139E+03    0.24247E-03   -0.43930E-04  7850   0.144E-01    0.149E-01
DAV:  13    -0.137101330826E+03    0.19531E-03   -0.39221E-04  7740   0.109E-01    0.676E-02
DAV:  14    -0.137101279965E+03    0.50860E-04   -0.12278E-04  9275   0.116E-01    0.169E-01
DAV:  15    -0.137100905051E+03    0.37491E-03   -0.30547E-04  8050   0.155E-01    0.641E-02
DAV:  16    -0.137100829891E+03    0.75159E-04   -0.21186E-04  8250   0.135E-01    0.942E-02
DAV:  17    -0.137100695873E+03    0.13402E-03   -0.16895E-04  8645   0.132E-01    0.639E-02
DAV:  18    -0.137100597735E+03    0.98138E-04   -0.14090E-04  7660   0.130E-01    0.102E-02
DAV:  19    -0.137100574881E+03    0.22855E-04   -0.15970E-04  7440   0.748E-02    0.963E-03
DAV:  20    -0.137100555324E+03    0.19556E-04   -0.36166E-05  6530   0.398E-02    0.127E-02
DAV:  21    -0.137100532669E+03    0.22655E-04   -0.11720E-05  5000   0.373E-02    0.147E-02
DAV:  22    -0.137100519965E+03    0.12704E-04   -0.14133E-05  5350   0.327E-02    0.828E-03
DAV:  23    -0.137100508773E+03    0.11191E-04   -0.14094E-05  5350   0.328E-02    0.234E-02
DAV:  24    -0.137100500580E+03    0.81934E-05   -0.11238E-05  4625   0.232E-02
  12 F= -.13710050E+03 E0= -.13709067E+03  d E =-.744025E-01
       N       E                     dE             d eps       ncg     rms          rms(c)
DAV:   1    -0.137127443463E+03   -0.26935E-01   -0.40331E+00  6740   0.820E+00    0.814E-01
DAV:   2    -0.137379369342E+03   -0.25193E+00   -0.10377E+00  7830   0.163E+00    0.508E+00
DAV:   3    -0.137131332038E+03    0.24804E+00   -0.95912E-01  8145   0.109E+00    0.567E-01
DAV:   4    -0.137132348902E+03   -0.10169E-02   -0.12614E-02  7685   0.340E-01    0.525E-01
DAV:   5    -0.137130814592E+03    0.15343E-02   -0.11793E-03  7150   0.136E-01    0.252E-01
DAV:   6    -0.137130286681E+03    0.52791E-03   -0.67173E-04  7750   0.125E-01    0.520E-02
DAV:   7    -0.137130335800E+03   -0.49119E-04   -0.39351E-04  7370   0.124E-01    0.147E-01
DAV:   8    -0.137130227902E+03    0.10790E-03   -0.18158E-04  7550   0.705E-02    0.640E-02
DAV:   9    -0.137130202593E+03    0.25309E-04   -0.44548E-05  6860   0.307E-02    0.138E-02
DAV:  10    -0.137130198013E+03    0.45801E-05   -0.65067E-06  4395   0.167E-02
  13 F= -.13713020E+03 E0= -.13712032E+03  d E =-.296974E-01
       N       E                     dE             d eps       ncg     rms          rms(c)
DAV:   1    -0.137142162233E+03   -0.11960E-01   -0.27417E+01  6640   0.214E+01    0.242E+00
DAV:   2    -0.138782710577E+03   -0.16405E+01   -0.12605E+01  7910   0.477E+00    0.729E+00
DAV:   3    -0.137244643779E+03    0.15381E+01   -0.61375E-01  8230   0.392E+00    0.314E+00
DAV:   4    -0.137174489751E+03    0.70154E-01   -0.18426E-01  7850   0.977E-01    0.103E+00
DAV:   5    -0.137220645554E+03   -0.46156E-01   -0.41354E-02  7100   0.545E-01    0.249E+00
DAV:   6    -0.137220092875E+03    0.55268E-03   -0.89006E-03  7380   0.335E-01    0.267E+00
DAV:   7    -0.137165284900E+03    0.54808E-01   -0.28382E-01  8770   0.539E-01    0.915E-01
DAV:   8    -0.137165396425E+03   -0.11152E-03   -0.30270E-03  6950   0.182E-01    0.110E+00
DAV:   9    -0.137162462542E+03    0.29339E-02   -0.15789E-04  7540   0.510E-02    0.810E-01
DAV:  10    -0.137167919136E+03   -0.54566E-02   -0.56600E-03  7470   0.167E-01    0.147E+00
DAV:  11    -0.137159466052E+03    0.84531E-02   -0.59187E-03  7140   0.138E-01    0.213E-01
DAV:  12    -0.137162704218E+03   -0.32382E-02   -0.11876E-03  7805   0.139E-01    0.645E-01
DAV:  13    -0.137160483712E+03    0.22205E-02   -0.11691E-03  8525   0.193E-01    0.549E-02
DAV:  14    -0.137160670901E+03   -0.18719E-03   -0.42934E-04  8190   0.119E-01    0.118E-01
DAV:  15    -0.137160999628E+03   -0.32873E-03   -0.13138E-04  7180   0.608E-02    0.279E-01
DAV:  16    -0.137160349171E+03    0.65046E-03   -0.15801E-04  7405   0.972E-02    0.563E-02
DAV:  17    -0.137160360879E+03   -0.11708E-04   -0.12546E-04  7560   0.629E-02    0.145E-02
DAV:  18    -0.137160368237E+03   -0.73582E-05   -0.36167E-05  6815   0.442E-02
  14 F= -.13716037E+03 E0= -.13715113E+03  d E =-.598677E-01
       N       E                     dE             d eps       ncg     rms          rms(c)
DAV:   1    -0.137194409898E+03   -0.34049E-01   -0.63121E+00  6600   0.103E+01    0.634E-01
DAV:   2    -0.137368650364E+03   -0.17424E+00   -0.10722E+00  7365   0.170E+00    0.530E+00
DAV:   3    -0.137199960564E+03    0.16869E+00   -0.31575E-01  7150   0.525E-01    0.667E-01
DAV:   4    -0.137202812726E+03   -0.28522E-02   -0.97702E-03  7705   0.292E-01    0.255E-01
DAV:   5    -0.137202439266E+03    0.37346E-03   -0.15286E-03  7755   0.176E-01    0.118E-01
DAV:   6    -0.137201971262E+03    0.46800E-03   -0.90207E-04  7775   0.178E-01    0.572E-02
DAV:   7    -0.137201880584E+03    0.90678E-04   -0.73710E-04  7335   0.117E-01    0.242E-02
DAV:   8    -0.137201838614E+03    0.41969E-04   -0.13702E-04  7450   0.499E-02    0.193E-02
DAV:   9    -0.137201801530E+03    0.37085E-04   -0.24340E-05  6660   0.327E-02    0.129E-02
DAV:  10    -0.137201766712E+03    0.34817E-04   -0.22504E-05  5810   0.390E-02    0.110E-02
DAV:  11    -0.137201755892E+03    0.10821E-04   -0.20820E-05  5825   0.262E-02    0.931E-03
DAV:  12    -0.137201742229E+03    0.13663E-04   -0.54780E-06  4770   0.275E-02    0.538E-03
DAV:  13    -0.137201729808E+03    0.12420E-04   -0.12160E-05  5275   0.343E-02    0.358E-03
DAV:  14    -0.137201724638E+03    0.51702E-05   -0.13347E-05  5005   0.262E-02
  15 F= -.13720172E+03 E0= -.13719215E+03  d E =-.413564E-01
       N       E                     dE             d eps       ncg     rms          rms(c)
DAV:   1    -0.137158141268E+03    0.43589E-01   -0.51784E+01  6530   0.293E+01    0.161E+00
DAV:   2    -0.137484947881E+03   -0.32681E+00   -0.27755E+00  7210   0.461E+00    0.598E+00
DAV:   3    -0.137261725108E+03    0.22322E+00   -0.13186E+00  7285   0.109E+00    0.167E+00
DAV:   4    -0.137241136352E+03    0.20589E-01   -0.99900E-02  7530   0.886E-01    0.490E-01
DAV:   5    -0.137237183961E+03    0.39524E-02   -0.20697E-02  7905   0.582E-01    0.339E-01
DAV:   6    -0.137234339323E+03    0.28446E-02   -0.73649E-03  8280   0.424E-01    0.226E-01
DAV:   7    -0.137233340954E+03    0.99837E-03   -0.44092E-03  7370   0.329E-01    0.128E-01
DAV:   8    -0.137232936195E+03    0.40476E-03   -0.11974E-03  7715   0.169E-01    0.644E-02
DAV:   9    -0.137232754410E+03    0.18179E-03   -0.32113E-04  7530   0.872E-02    0.387E-02
DAV:  10    -0.137232474143E+03    0.28027E-03   -0.22737E-04  7775   0.110E-01    0.177E-02
DAV:  11    -0.137232404843E+03    0.69300E-04   -0.11480E-04  8055   0.625E-02    0.134E-02
DAV:  12    -0.137232312406E+03    0.92437E-04   -0.51614E-05  7455   0.775E-02    0.148E-02
DAV:  13    -0.137232247900E+03    0.64505E-04   -0.71459E-05  7665   0.770E-02    0.157E-02
DAV:  14    -0.137232210162E+03    0.37739E-04   -0.76286E-05  7660   0.881E-02    0.126E-02
DAV:  15    -0.137232207916E+03    0.22452E-05   -0.67049E-05  7115   0.561E-02
  16 F= -.13723221E+03 E0= -.13722260E+03  d E =-.718397E-01
       N       E                     dE             d eps       ncg     rms          rms(c)
DAV:   1    -0.137232408640E+03   -0.19848E-03   -0.39256E+00  6540   0.810E+00    0.508E-01
DAV:   2    -0.137269771229E+03   -0.37363E-01   -0.20344E-01  7375   0.131E+00    0.200E+00
DAV:   3    -0.137240011027E+03    0.29760E-01   -0.21985E-01  7285   0.437E-01    0.688E-01
DAV:   4    -0.137237734952E+03    0.22761E-02   -0.55032E-03  7425   0.247E-01    0.171E-01
DAV:   5    -0.137237624157E+03    0.11079E-03   -0.93230E-04  7690   0.144E-01    0.842E-02
DAV:   6    -0.137237362482E+03    0.26167E-03   -0.66904E-04  7900   0.162E-01    0.758E-02
DAV:   7    -0.137237301137E+03    0.61345E-04   -0.58426E-04  7385   0.104E-01    0.225E-02
DAV:   8    -0.137237300212E+03    0.92533E-06   -0.99442E-05  7325   0.394E-02
  17 F= -.13723730E+03 E0= -.13722780E+03  d E =-.769320E-01
       N       E                     dE             d eps       ncg     rms          rms(c)
DAV:   1    -0.137270542357E+03   -0.33241E-01   -0.10292E+01  6450   0.135E+01    0.111E+00
DAV:   2    -0.138305324220E+03   -0.10348E+01   -0.70992E+00  7775   0.302E+00    0.135E+01
DAV:   3    -0.137252242337E+03    0.10531E+01   -0.61920E+00  7465   0.138E+00    0.555E-01
DAV:   4    -0.137279898109E+03   -0.27656E-01   -0.24290E-02  7715   0.512E-01    0.243E-01
DAV:   5    -0.137280953959E+03   -0.10559E-02   -0.41268E-03  7920   0.227E-01    0.145E-01
DAV:   6    -0.137280491133E+03    0.46283E-03   -0.11622E-03  7710   0.200E-01    0.112E-01
DAV:   7    -0.137280236571E+03    0.25456E-03   -0.77227E-04  8100   0.165E-01    0.573E-02
DAV:   8    -0.137280174582E+03    0.61989E-04   -0.30914E-04  7485   0.782E-02    0.351E-02
DAV:   9    -0.137280122541E+03    0.52041E-04   -0.36767E-05  6430   0.373E-02    0.204E-02
DAV:  10    -0.137279994941E+03    0.12760E-03   -0.77034E-05  7650   0.915E-02    0.111E-02
DAV:  11    -0.137279946273E+03    0.48668E-04   -0.70394E-05  7200   0.546E-02    0.122E-02
DAV:  12    -0.137279909381E+03    0.36892E-04   -0.41585E-05  7110   0.569E-02    0.974E-03
DAV:  13    -0.137279864477E+03    0.44904E-04   -0.32769E-05  6730   0.754E-02    0.795E-03
DAV:  14    -0.137279836899E+03    0.27578E-04   -0.70153E-05  7425   0.834E-02    0.883E-03
DAV:  15    -0.137279837312E+03   -0.41272E-06   -0.71420E-05  7020   0.494E-02
  18 F= -.13727984E+03 E0= -.13727028E+03  d E =-.425371E-01
       N       E                     dE             d eps       ncg     rms          rms(c)
DAV:   1    -0.137282691785E+03   -0.28549E-02   -0.14568E+01  6450   0.161E+01    0.128E+00
DAV:   2    -0.138524170480E+03   -0.12415E+01   -0.85402E+00  7790   0.349E+00    0.143E+01
DAV:   3    -0.137275476660E+03    0.12487E+01   -0.68818E+00  7500   0.150E+00    0.576E-01
DAV:   4    -0.137299174064E+03   -0.23697E-01   -0.31482E-02  7760   0.583E-01    0.296E-01
DAV:   5    -0.137299221944E+03   -0.47880E-04   -0.65945E-03  7915   0.269E-01    0.164E-01
DAV:   6    -0.137298435315E+03    0.78663E-03   -0.17030E-03  7600   0.235E-01    0.102E-01
DAV:   7    -0.137298162817E+03    0.27250E-03   -0.11256E-03  7895   0.184E-01    0.599E-02
DAV:   8    -0.137298096530E+03    0.66287E-04   -0.39917E-04  7320   0.863E-02    0.512E-02
DAV:   9    -0.137298026195E+03    0.70336E-04   -0.52054E-05  7345   0.404E-02    0.295E-02
DAV:  10    -0.137297871591E+03    0.15460E-03   -0.66695E-05  7580   0.917E-02    0.110E-02
DAV:  11    -0.137297791661E+03    0.79929E-04   -0.71792E-05  7540   0.697E-02    0.155E-02
DAV:  12    -0.137297715379E+03    0.76282E-04   -0.70458E-05  8180   0.866E-02    0.107E-02
DAV:  13    -0.137297673990E+03    0.41389E-04   -0.56236E-05  7190   0.668E-02    0.153E-02
DAV:  14    -0.137297619689E+03    0.54301E-04   -0.71777E-05  8060   0.110E-01    0.160E-02
DAV:  15    -0.137297613119E+03    0.65702E-05   -0.89126E-05  6960   0.547E-02
  19 F= -.13729761E+03 E0= -.13728805E+03  d E =-.603129E-01
       N       E                     dE             d eps       ncg     rms          rms(c)
DAV:   1    -0.137308416229E+03   -0.10797E-01   -0.20734E+01  6370   0.193E+01    0.113E+00
DAV:   2    -0.137962053615E+03   -0.65364E+00   -0.46637E+00  7335   0.333E+00    0.107E+01
DAV:   3    -0.137318812252E+03    0.64324E+00   -0.45286E+00  7350   0.123E+00    0.752E-01
DAV:   4    -0.137338536446E+03   -0.19724E-01   -0.20565E-02  7645   0.551E-01    0.383E-01
DAV:   5    -0.137337404463E+03    0.11320E-02   -0.14009E-02  7895   0.400E-01    0.249E-01
DAV:   6    -0.137336052226E+03    0.13522E-02   -0.38622E-03  7890   0.327E-01    0.652E-02
DAV:   7    -0.137336206496E+03   -0.15427E-03   -0.16373E-03  7520   0.169E-01    0.202E-01
DAV:   8    -0.137335969737E+03    0.23676E-03   -0.13679E-04  7140   0.533E-02    0.996E-02
DAV:   9    -0.137335893108E+03    0.76629E-04   -0.13010E-04  7250   0.647E-02    0.175E-02
DAV:  10    -0.137335893401E+03   -0.29296E-06   -0.46219E-05  6650   0.409E-02
  20 F= -.13733589E+03 E0= -.13732576E+03  d E =-.382803E-01
       N       E                     dE             d eps       ncg     rms          rms(c)
DAV:   1    -0.137329028406E+03    0.68647E-02   -0.11271E+01  6370   0.143E+01    0.818E-01
DAV:   2    -0.137659971954E+03   -0.33094E+00   -0.23384E+00  7365   0.241E+00    0.701E+00
DAV:   3    -0.137334461291E+03    0.32551E+00   -0.13903E+00  7280   0.898E-01    0.488E-01
DAV:   4    -0.137345006190E+03   -0.10545E-01   -0.11109E-02  7655   0.390E-01    0.277E-01
DAV:   5    -0.137344307371E+03    0.69882E-03   -0.64146E-03  7880   0.285E-01    0.192E-01
DAV:   6    -0.137343554257E+03    0.75311E-03   -0.19854E-03  7870   0.257E-01    0.883E-02
DAV:   7    -0.137343558262E+03   -0.40058E-05   -0.99493E-04  7470   0.133E-01    0.131E-01
DAV:   8    -0.137343453330E+03    0.10493E-03   -0.80552E-05  7240   0.438E-02    0.737E-02
DAV:   9    -0.137343371923E+03    0.81407E-04   -0.10177E-04  7170   0.671E-02    0.194E-02
DAV:  10    -0.137343359081E+03    0.12842E-04   -0.41143E-05  6740   0.380E-02    0.111E-02
DAV:  11    -0.137343345610E+03    0.13471E-04   -0.20377E-05  5430   0.428E-02    0.721E-03
DAV:  12    -0.137343329528E+03    0.16083E-04   -0.27256E-05  6210   0.558E-02    0.622E-03
DAV:  13    -0.137343325864E+03    0.36635E-05   -0.38786E-05  6790   0.519E-02
  21 F= -.13734333E+03 E0= -.13733297E+03  d E =-.457127E-01
       N       E                     dE             d eps       ncg     rms          rms(c)
DAV:   1    -0.137343104507E+03    0.22502E-03   -0.21200E+01  6390   0.198E+01    0.857E-01
DAV:   2    -0.137387199651E+03   -0.44095E-01   -0.52797E-01  7230   0.281E+00    0.821E-01
DAV:   3    -0.137454537689E+03   -0.67338E-01   -0.49893E-01  7680   0.699E-01    0.346E+00
DAV:   4    -0.137375349575E+03    0.79188E-01   -0.29193E-01  7345   0.500E-01    0.383E-01
DAV:   5    -0.137378155307E+03   -0.28057E-02   -0.77299E-03  7645   0.337E-01    0.318E-01
DAV:   6    -0.137377053702E+03    0.11016E-02   -0.53339E-03  8090   0.282E-01    0.782E-02
DAV:   7    -0.137377011415E+03    0.42288E-04   -0.11381E-03  7580   0.134E-01    0.449E-02
DAV:   8    -0.137377002934E+03    0.84810E-05   -0.27024E-04  7590   0.660E-02    0.611E-02
DAV:   9    -0.137376964044E+03    0.38890E-04   -0.54549E-05  6550   0.313E-02    0.192E-02
DAV:  10    -0.137376957504E+03    0.65394E-05   -0.17562E-05  5440   0.305E-02
  22 F= -.13737696E+03 E0= -.13736693E+03  d E =-.336316E-01
       N       E                     dE             d eps       ncg     rms          rms(c)
DAV:   1    -0.137374866758E+03    0.20973E-02   -0.32115E+00  6410   0.775E+00    0.334E-01
DAV:   2    -0.137383082362E+03   -0.82156E-02   -0.80243E-02  7280   0.110E+00    0.608E-01
DAV:   3    -0.137385866977E+03   -0.27846E-02   -0.22870E-02  7470   0.252E-01    0.101E+00
DAV:   4    -0.137379760652E+03    0.61063E-02   -0.33438E-03  7315   0.186E-01    0.151E-01
DAV:   5    -0.137379952427E+03   -0.19178E-03   -0.10427E-03  7480   0.125E-01    0.121E-01
DAV:   6    -0.137379739199E+03    0.21323E-03   -0.65637E-04  7780   0.116E-01    0.430E-02
DAV:   7    -0.137379726501E+03    0.12698E-04   -0.22054E-04  7530   0.608E-02    0.251E-02
DAV:   8    -0.137379716078E+03    0.10423E-04   -0.31695E-05  5560   0.278E-02    0.205E-02
DAV:   9    -0.137379708309E+03    0.77695E-05   -0.86155E-06  4535   0.173E-02
  23 F= -.13737971E+03 E0= -.13736967E+03  d E =-.363824E-01
       N       E                     dE             d eps       ncg     rms          rms(c)
DAV:   1    -0.137389170363E+03   -0.94543E-02   -0.12352E+01  6440   0.151E+01    0.628E-01
DAV:   2    -0.137489718839E+03   -0.10055E+00   -0.44898E-01  7225   0.222E+00    0.347E+00
DAV:   3    -0.137413515435E+03    0.76203E-01   -0.36558E-01  7495   0.622E-01    0.741E-01
DAV:   4    -0.137410026494E+03    0.34889E-02   -0.85577E-03  7395   0.347E-01    0.300E-01
DAV:   5    -0.137409226499E+03    0.80000E-03   -0.21554E-03  7570   0.194E-01    0.237E-01
DAV:   6    -0.137408274510E+03    0.95199E-03   -0.18327E-03  7330   0.246E-01    0.111E-01
DAV:   7    -0.137408260413E+03    0.14097E-04   -0.10994E-03  7470   0.144E-01    0.860E-02
DAV:   8    -0.137408166280E+03    0.94133E-04   -0.15374E-04  7615   0.577E-02    0.263E-02
DAV:   9    -0.137408128570E+03    0.37709E-04   -0.42543E-05  6780   0.518E-02    0.344E-02
DAV:  10    -0.137408107697E+03    0.20873E-04   -0.34025E-05  6160   0.299E-02    0.173E-02
DAV:  11    -0.137408075728E+03    0.31969E-04   -0.10031E-05  5080   0.374E-02    0.527E-03
DAV:  12    -0.137408050189E+03    0.25539E-04   -0.20010E-05  6100   0.397E-02    0.569E-03
DAV:  13    -0.137408038743E+03    0.11446E-04   -0.15290E-05  5345   0.258E-02    0.455E-03
DAV:  14    -0.137408011942E+03    0.26801E-04   -0.16000E-05  5615   0.570E-02    0.471E-03
DAV:  15    -0.137407999835E+03    0.12108E-04   -0.30118E-05  6520   0.438E-02    0.452E-03
DAV:  16    -0.137407997424E+03    0.24113E-05   -0.17496E-05  5565   0.223E-02
  24 F= -.13740800E+03 E0= -.13739802E+03  d E =-.282891E-01
       N       E                     dE             d eps       ncg     rms          rms(c)
DAV:   1    -0.137404053484E+03    0.39464E-02   -0.66957E+00  6480   0.111E+01    0.469E-01
DAV:   2    -0.137466322883E+03   -0.62269E-01   -0.25136E-01  7260   0.164E+00    0.278E+00
DAV:   3    -0.137416301788E+03    0.50021E-01   -0.21055E-01  7490   0.467E-01    0.490E-01
DAV:   4    -0.137415134390E+03    0.11674E-02   -0.57376E-03  7575   0.265E-01    0.211E-01
DAV:   5    -0.137414692983E+03    0.44141E-03   -0.13257E-03  7595   0.147E-01    0.175E-01
DAV:   6    -0.137414217257E+03    0.47573E-03   -0.97947E-04  7380   0.180E-01    0.941E-02
DAV:   7    -0.137414212388E+03    0.48698E-05   -0.54804E-04  7435   0.990E-02    0.645E-02
DAV:   8    -0.137414163391E+03    0.48996E-04   -0.68015E-05  6965   0.378E-02    0.144E-02
DAV:   9    -0.137414152139E+03    0.11253E-04   -0.17639E-05  5450   0.327E-02    0.233E-02
DAV:  10    -0.137414140952E+03    0.11186E-04   -0.16270E-05  5015   0.225E-02    0.989E-03
DAV:  11    -0.137414129496E+03    0.11456E-04   -0.55230E-06  4795   0.228E-02    0.344E-03
DAV:  12    -0.137414120679E+03    0.88167E-05   -0.66023E-06  4560   0.235E-02
  25 F= -.13741412E+03 E0= -.13740420E+03  d E =-.344124E-01
       N       E                     dE             d eps       ncg     rms          rms(c)
DAV:   1    -0.137422269274E+03   -0.81398E-02   -0.81454E+00  6405   0.116E+01    0.670E-01
DAV:   2    -0.137649087844E+03   -0.22682E+00   -0.71504E-01  7380   0.198E+00    0.483E+00
DAV:   3    -0.137435236159E+03    0.21385E+00   -0.71706E-01  7500   0.955E-01    0.399E-01
DAV:   4    -0.137435237462E+03   -0.13026E-05   -0.95352E-03  7580   0.319E-01    0.411E-01
DAV:   5    -0.137434206067E+03    0.10314E-02   -0.85807E-04  7375   0.105E-01    0.221E-01
DAV:   6    -0.137433732676E+03    0.47339E-03   -0.19011E-03  7370   0.213E-01    0.233E-01
DAV:   7    -0.137433325672E+03    0.40700E-03   -0.72004E-04  7590   0.143E-01    0.435E-02
DAV:   8    -0.137433272957E+03    0.52715E-04   -0.30276E-04  8515   0.944E-02    0.267E-02
DAV:   9    -0.137433233723E+03    0.39234E-04   -0.56820E-05  7170   0.445E-02    0.392E-02
DAV:  10    -0.137433119270E+03    0.11445E-03   -0.47156E-05  7590   0.737E-02    0.182E-02
DAV:  11    -0.137433047371E+03    0.71899E-04   -0.51442E-05  7320   0.670E-02    0.177E-02
DAV:  12    -0.137432981333E+03    0.66038E-04   -0.69886E-05  8465   0.812E-02    0.132E-02
DAV:  13    -0.137432929591E+03    0.51742E-04   -0.48481E-05  7220   0.812E-02    0.949E-03
DAV:  14    -0.137432898771E+03    0.30820E-04   -0.52106E-05  7190   0.730E-02    0.863E-03
DAV:  15    -0.137432888423E+03    0.10348E-04   -0.46547E-05  6695   0.503E-02    0.579E-03
DAV:  16    -0.137432890074E+03   -0.16509E-05   -0.25013E-05  5815   0.176E-02
  26 F= -.13743289E+03 E0= -.13742283E+03  d E =-.187694E-01
       N       E                     dE             d eps       ncg     rms          rms(c)
DAV:   1    -0.137432939556E+03   -0.51133E-04   -0.90565E-02  6470   0.122E+00    0.656E-02
DAV:   2    -0.137435256992E+03   -0.23174E-02   -0.36996E-03  7390   0.204E-01    0.614E-01
DAV:   3    -0.137432858228E+03    0.23988E-02   -0.18191E-03  7320   0.856E-02    0.453E-02
DAV:   4    -0.137433066067E+03   -0.20784E-03   -0.10173E-04  6565   0.374E-02    0.233E-02
DAV:   5    -0.137433066224E+03   -0.15696E-06   -0.24574E-05  4810   0.181E-02    0.219E-02
DAV:   6    -0.137433060443E+03    0.57811E-05   -0.14464E-05  4575   0.261E-02
  27 F= -.13743306E+03 E0= -.13742295E+03  d E =-.189398E-01
       N       E                     dE             d eps       ncg     rms          rms(c)
DAV:   1    -0.137443094267E+03   -0.10028E-01   -0.33624E+00  6700   0.743E+00    0.372E-01
DAV:   2    -0.137498667992E+03   -0.55574E-01   -0.15460E-01  7240   0.112E+00    0.276E+00
DAV:   3    -0.137447535193E+03    0.51133E-01   -0.15178E-01  7420   0.426E-01    0.262E-01
DAV:   4    -0.137448063397E+03   -0.52820E-03   -0.31480E-03  7415   0.198E-01    0.174E-01
DAV:   5    -0.137447847498E+03    0.21590E-03   -0.68958E-04  7710   0.916E-02    0.132E-01
DAV:   6    -0.137447703518E+03    0.14398E-03   -0.41829E-04  7270   0.972E-02    0.885E-02
DAV:   7    -0.137447704184E+03   -0.66671E-06   -0.14886E-04  7420   0.468E-02    0.578E-02
DAV:   8    -0.137447680367E+03    0.23817E-04   -0.40736E-05  6325   0.257E-02    0.166E-02
DAV:   9    -0.137447687762E+03   -0.73943E-05   -0.80685E-06  4660   0.157E-02
  28 F= -.13744769E+03 E0= -.13743774E+03  d E =-.146273E-01
       N       E                     dE             d eps       ncg     rms          rms(c)
DAV:   1    -0.137438021401E+03    0.96590E-02   -0.13880E+01  6705   0.151E+01    0.761E-01
DAV:   2    -0.137633970752E+03   -0.19595E+00   -0.75254E-01  7170   0.228E+00    0.450E+00
DAV:   3    -0.137463846596E+03    0.17012E+00   -0.75200E-01  7630   0.914E-01    0.783E-01
DAV:   4    -0.137459808019E+03    0.40386E-02   -0.15861E-02  7320   0.365E-01    0.486E-01
DAV:   5    -0.137458479233E+03    0.13288E-02   -0.18220E-03  7215   0.154E-01    0.327E-01
DAV:   6    -0.137457585668E+03    0.89356E-03   -0.28082E-03  7380   0.214E-01    0.185E-01
DAV:   7    -0.137457609248E+03   -0.23580E-04   -0.95902E-04  7560   0.123E-01    0.126E-01
DAV:   8    -0.137457511682E+03    0.97566E-04   -0.22912E-04  8140   0.551E-02    0.497E-02
DAV:   9    -0.137457538426E+03   -0.26744E-04   -0.37516E-05  6730   0.267E-02    0.274E-02
DAV:  10    -0.137457538890E+03   -0.46360E-06   -0.10727E-05  4920   0.224E-02
  29 F= -.13745754E+03 E0= -.13744748E+03  d E =-.244784E-01
       N       E                     dE             d eps       ncg     rms          rms(c)
DAV:   1    -0.137463038977E+03   -0.55006E-02   -0.18620E+00  6540   0.566E+00    0.272E-01
DAV:   2    -0.137475700167E+03   -0.12661E-01   -0.67590E-02  7190   0.829E-01    0.119E+00
DAV:   3    -0.137468059820E+03    0.76403E-02   -0.34898E-02  7590   0.254E-01    0.635E-01
DAV:   4    -0.137466420885E+03    0.16389E-02   -0.47026E-03  7230   0.149E-01    0.868E-02
DAV:   5    -0.137466452241E+03   -0.31356E-04   -0.46410E-04  7320   0.860E-02    0.139E-01
DAV:   6    -0.137466269961E+03    0.18228E-03   -0.19915E-04  7735   0.739E-02    0.279E-02
DAV:   7    -0.137466278417E+03   -0.84562E-05   -0.12418E-04  7355   0.476E-02    0.126E-02
DAV:   8    -0.137466270951E+03    0.74660E-05   -0.20449E-05  4690   0.213E-02
  30 F= -.13746627E+03 E0= -.13745618E+03  d E =-.873206E-02
       N       E                     dE             d eps       ncg     rms          rms(c)
DAV:   1    -0.137459634991E+03    0.66434E-02   -0.77148E+00  6545   0.115E+01    0.573E-01
DAV:   2    -0.137526459619E+03   -0.66825E-01   -0.38794E-01  7210   0.172E+00    0.289E+00
DAV:   3    -0.137478478057E+03    0.47982E-01   -0.29780E-01  7630   0.554E-01    0.118E+00
DAV:   4    -0.137474121345E+03    0.43567E-02   -0.24779E-02  7300   0.298E-01    0.225E-01
DAV:   5    -0.137473892373E+03    0.22897E-03   -0.23905E-03  7430   0.162E-01    0.285E-01
DAV:   6    -0.137473213746E+03    0.67863E-03   -0.10383E-03  7525   0.153E-01    0.102E-01
DAV:   7    -0.137473104140E+03    0.10961E-03   -0.87801E-04  7960   0.122E-01    0.283E-02
DAV:   8    -0.137473069841E+03    0.34298E-04   -0.13250E-04  7800   0.569E-02    0.205E-02
DAV:   9    -0.137473035871E+03    0.33971E-04   -0.25813E-05  6100   0.378E-02    0.944E-03
DAV:  10    -0.137473005223E+03    0.30647E-04   -0.14203E-05  5450   0.424E-02    0.611E-03
DAV:  11    -0.137472991738E+03    0.13485E-04   -0.19936E-05  5830   0.283E-02    0.669E-03
DAV:  12    -0.137472965601E+03    0.26138E-04   -0.96949E-06  5105   0.440E-02    0.514E-03
DAV:  13    -0.137472930459E+03    0.35141E-04   -0.47792E-05  7150   0.740E-02    0.727E-03
DAV:  14    -0.137472921757E+03    0.87026E-05   -0.36220E-05  6740   0.352E-02
  31 F= -.13747292E+03 E0= -.13746279E+03  d E =-.153829E-01
       N       E                     dE             d eps       ncg     rms          rms(c)
DAV:   1    -0.137479078451E+03   -0.61480E-02   -0.94721E-01  6435   0.418E+00    0.203E-01
DAV:   2    -0.137493630041E+03   -0.14552E-01   -0.57363E-02  7270   0.656E-01    0.137E+00
DAV:   3    -0.137479794727E+03    0.13835E-01   -0.18391E-02  7410   0.207E-01    0.113E-01
DAV:   4    -0.137480333566E+03   -0.53884E-03   -0.49595E-04  7395   0.961E-02    0.613E-02
DAV:   5    -0.137480268938E+03    0.64629E-04   -0.39332E-04  7490   0.100E-01    0.434E-02
DAV:   6    -0.137480240268E+03    0.28670E-04   -0.22659E-04  7930   0.622E-02    0.200E-02
DAV:   7    -0.137480228878E+03    0.11390E-04   -0.26128E-05  5365   0.252E-02    0.112E-02
DAV:   8    -0.137480217108E+03    0.11770E-04   -0.68760E-06  4410   0.204E-02    0.149E-02
DAV:   9    -0.137480202061E+03    0.15047E-04   -0.77398E-06  4845   0.257E-02    0.596E-03
DAV:  10    -0.137480196525E+03    0.55360E-05   -0.82666E-06  4485   0.174E-02
  32 F= -.13748020E+03 E0= -.13747006E+03  d E =-.727477E-02
       N       E                     dE             d eps       ncg     rms          rms(c)
DAV:   1    -0.137481585368E+03   -0.13833E-02   -0.24304E+00  6410   0.670E+00    0.326E-01
DAV:   2    -0.137518252312E+03   -0.36667E-01   -0.16085E-01  7325   0.105E+00    0.231E+00
DAV:   3    -0.137483384287E+03    0.34868E-01   -0.45393E-02  7410   0.330E-01    0.194E-01
DAV:   4    -0.137484770572E+03   -0.13863E-02   -0.14480E-03  7740   0.158E-01    0.105E-01
DAV:   5    -0.137484590775E+03    0.17980E-03   -0.10188E-03  7655   0.150E-01    0.769E-02
DAV:   6    -0.137484447567E+03    0.14321E-03   -0.67037E-04  8150   0.110E-01    0.278E-02
DAV:   7    -0.137484402134E+03    0.45433E-04   -0.10471E-04  7840   0.545E-02    0.178E-02
DAV:   8    -0.137484359917E+03    0.42217E-04   -0.20157E-05  5635   0.374E-02    0.208E-02
DAV:   9    -0.137484285575E+03    0.74342E-04   -0.35494E-05  6615   0.646E-02    0.113E-02
DAV:  10    -0.137484262614E+03    0.22962E-04   -0.34487E-05  6620   0.362E-02    0.178E-02
DAV:  11    -0.137484213929E+03    0.48685E-04   -0.27208E-05  6490   0.647E-02    0.547E-03
DAV:  12    -0.137484174481E+03    0.39448E-04   -0.57519E-05  7320   0.763E-02    0.796E-03
DAV:  13    -0.137484166264E+03    0.82173E-05   -0.48587E-05  6580   0.408E-02
  33 F= -.13748417E+03 E0= -.13747407E+03  d E =-.112445E-01
       N       E                     dE             d eps       ncg     rms          rms(c)
DAV:   1    -0.137488954671E+03   -0.47802E-02   -0.13835E+00  6525   0.494E+00    0.221E-01
DAV:   2    -0.137491476602E+03   -0.25219E-02   -0.32892E-02  7145   0.704E-01    0.126E-01
DAV:   3    -0.137491209212E+03    0.26739E-03   -0.12943E-03  8435   0.141E-01    0.841E-02
DAV:   4    -0.137491275413E+03   -0.66201E-04   -0.31401E-04  7745   0.716E-02    0.190E-01
DAV:   5    -0.137491191750E+03    0.83663E-04   -0.44515E-04  7415   0.515E-02    0.162E-01
DAV:   6    -0.137491005595E+03    0.18615E-03   -0.27449E-04  7370   0.754E-02    0.300E-02
DAV:   7    -0.137491005151E+03    0.44373E-06   -0.77923E-05  7300   0.438E-02
  34 F= -.13749101E+03 E0= -.13748083E+03  d E =-.683889E-02
       N       E                     dE             d eps       ncg     rms          rms(c)
DAV:   1    -0.137489875451E+03    0.11301E-02   -0.37681E+00  6500   0.814E+00    0.367E-01
DAV:   2    -0.137498382929E+03   -0.85075E-02   -0.91949E-02  7165   0.117E+00    0.563E-01
DAV:   3    -0.137507341427E+03   -0.89585E-02   -0.31924E-02  7920   0.271E-01    0.149E+00
DAV:   4    -0.137495191930E+03    0.12149E-01   -0.34123E-02  7635   0.238E-01    0.159E-01
DAV:   5    -0.137495667285E+03   -0.47535E-03   -0.16212E-03  7585   0.139E-01    0.106E-01
DAV:   6    -0.137495449772E+03    0.21751E-03   -0.53803E-04  7640   0.115E-01    0.431E-02
DAV:   7    -0.137495403487E+03    0.46285E-04   -0.27863E-04  7780   0.899E-02    0.466E-02
DAV:   8    -0.137495383712E+03    0.19774E-04   -0.87382E-05  7270   0.470E-02    0.331E-02
DAV:   9    -0.137495373011E+03    0.10701E-04   -0.16325E-05  4470   0.227E-02    0.238E-02
DAV:  10    -0.137495359781E+03    0.13230E-04   -0.14005E-05  4925   0.286E-02    0.182E-02
DAV:  11    -0.137495353528E+03    0.62526E-05   -0.11064E-05  5160   0.249E-02
  35 F= -.13749535E+03 E0= -.13748500E+03  d E =-.111873E-01
       N       E                     dE             d eps       ncg     rms          rms(c)
DAV:   1    -0.137499612855E+03   -0.42531E-02   -0.19565E+00  6370   0.600E+00    0.245E-01
DAV:   2    -0.137503903343E+03   -0.42905E-02   -0.45775E-02  7180   0.849E-01    0.404E-01
DAV:   3    -0.137506494098E+03   -0.25908E-02   -0.34330E-03  7635   0.177E-01    0.792E-01
DAV:   4    -0.137502458121E+03    0.40360E-02   -0.15242E-03  7295   0.140E-01    0.936E-02
DAV:   5    -0.137502566086E+03   -0.10796E-03   -0.94593E-04  7460   0.124E-01    0.633E-02
DAV:   6    -0.137502540561E+03    0.25525E-04   -0.49222E-04  7945   0.969E-02    0.898E-02
DAV:   7    -0.137502469703E+03    0.70858E-04   -0.11218E-04  7395   0.485E-02    0.200E-02
DAV:   8    -0.137502438095E+03    0.31608E-04   -0.19648E-05  5815   0.412E-02    0.907E-03
DAV:   9    -0.137502410273E+03    0.27822E-04   -0.11080E-05  5035   0.362E-02    0.171E-02
DAV:  10    -0.137502372415E+03    0.37857E-04   -0.16494E-05  5810   0.492E-02    0.586E-03
DAV:  11    -0.137502353094E+03    0.19322E-04   -0.23450E-05  6295   0.369E-02    0.731E-03
DAV:  12    -0.137502316833E+03    0.36261E-04   -0.25353E-05  6690   0.734E-02    0.109E-02
DAV:  13    -0.137502287945E+03    0.28887E-04   -0.86084E-05  8295   0.108E-01    0.588E-03
DAV:  14    -0.137502292730E+03   -0.47847E-05   -0.77183E-05  6655   0.377E-02
  36 F= -.13750229E+03 E0= -.13749180E+03  d E =-.693920E-02
       N       E                     dE             d eps       ncg     rms          rms(c)
DAV:   1    -0.137501806539E+03    0.48141E-03   -0.21617E+00  6400   0.630E+00    0.263E-01
DAV:   2    -0.137505893776E+03   -0.40872E-02   -0.50366E-02  7120   0.891E-01    0.243E-01
DAV:   3    -0.137513519063E+03   -0.76253E-02   -0.12820E-02  8175   0.204E-01    0.120E+00
DAV:   4    -0.137504769944E+03    0.87491E-02   -0.16704E-02  7610   0.163E-01    0.920E-02
DAV:   5    -0.137505118686E+03   -0.34874E-03   -0.99272E-04  7600   0.129E-01    0.661E-02
DAV:   6    -0.137505042784E+03    0.75902E-04   -0.47169E-04  8275   0.911E-02    0.483E-02
DAV:   7    -0.137505014583E+03    0.28200E-04   -0.10228E-04  7855   0.465E-02    0.391E-02
DAV:   8    -0.137504983588E+03    0.30995E-04   -0.17076E-05  5180   0.323E-02    0.196E-02
DAV:   9    -0.137504953484E+03    0.30104E-04   -0.12157E-05  5150   0.336E-02    0.607E-03
DAV:  10    -0.137504932681E+03    0.20803E-04   -0.10864E-05  4640   0.304E-02    0.558E-03
DAV:  11    -0.137504895352E+03    0.37329E-04   -0.17113E-05  5970   0.586E-02    0.549E-03
DAV:  12    -0.137504868035E+03    0.27317E-04   -0.38707E-05  6845   0.591E-02    0.508E-03
DAV:  13    -0.137504845585E+03    0.22450E-04   -0.42033E-05  7540   0.846E-02    0.317E-03
DAV:  14    -0.137504844939E+03    0.64547E-06   -0.59225E-05  7235   0.581E-02
  37 F= -.13750484E+03 E0= -.13749439E+03  d E =-.949141E-02
       N       E                     dE             d eps       ncg     rms          rms(c)
DAV:   1    -0.137510237940E+03   -0.53924E-02   -0.11512E+00  6400   0.444E+00    0.266E-01
DAV:   2    -0.137511998389E+03   -0.17604E-02   -0.25612E-02  7295   0.624E-01    0.343E-01
DAV:   3    -0.137517215141E+03   -0.52168E-02   -0.58599E-03  8170   0.198E-01    0.985E-01
DAV:   4    -0.137510741280E+03    0.64739E-02   -0.66909E-03  7720   0.168E-01    0.104E-01
DAV:   5    -0.137510811092E+03   -0.69812E-04   -0.68203E-04  7400   0.143E-01    0.887E-02
DAV:   6    -0.137510628610E+03    0.18248E-03   -0.32911E-04  8130   0.982E-02    0.339E-02
DAV:   7    -0.137510579602E+03    0.49008E-04   -0.12766E-04  7880   0.573E-02    0.199E-02
DAV:   8    -0.137510508844E+03    0.70758E-04   -0.15849E-05  5550   0.449E-02    0.130E-02
DAV:   9    -0.137510353262E+03    0.15558E-03   -0.79872E-05  8165   0.106E-01    0.204E-02
DAV:  10    -0.137510273688E+03    0.79574E-04   -0.72237E-05  7535   0.722E-02    0.237E-02
DAV:  11    -0.137510129213E+03    0.14447E-03   -0.13045E-04  9160   0.154E-01    0.203E-02
DAV:  12    -0.137510068140E+03    0.61073E-04   -0.15210E-04  7285   0.109E-01    0.675E-03
DAV:  13    -0.137510046546E+03    0.21594E-04   -0.10440E-04  7705   0.815E-02    0.356E-03
DAV:  14    -0.137510046944E+03   -0.39831E-06   -0.65988E-05  6765   0.350E-02
  38 F= -.13751005E+03 E0= -.13749998E+03  d E =-.520200E-02
       N       E                     dE             d eps       ncg     rms          rms(c)
DAV:   1    -0.137510121802E+03   -0.75256E-04   -0.19364E-02  6740   0.575E-01    0.343E-02
DAV:   2    -0.137510153160E+03   -0.31358E-04   -0.43206E-04  7445   0.801E-02    0.385E-02
DAV:   3    -0.137510244034E+03   -0.90874E-04   -0.45753E-05  5715   0.256E-02    0.132E-01
DAV:   4    -0.137510122039E+03    0.12200E-03   -0.33978E-05  5445   0.224E-02    0.123E-02
DAV:   5    -0.137510135265E+03   -0.13227E-04   -0.13058E-05  4340   0.214E-02    0.100E-02
DAV:   6    -0.137510133321E+03    0.19444E-05   -0.68116E-06  4265   0.129E-02
  39 F= -.13751013E+03 E0= -.13750014E+03  d E =-.528838E-02
       N       E                     dE             d eps       ncg     rms          rms(c)
DAV:   1    -0.137512818505E+03   -0.26832E-02   -0.14195E+00  6675   0.499E+00    0.180E-01
DAV:   2    -0.137518255880E+03   -0.54374E-02   -0.36102E-02  7385   0.718E-01    0.677E-01
DAV:   3    -0.137515294821E+03    0.29611E-02   -0.54064E-03  7430   0.153E-01    0.210E-01
DAV:   4    -0.137515072450E+03    0.22237E-03   -0.42528E-04  7140   0.103E-01    0.696E-02
DAV:   5    -0.137515002774E+03    0.69676E-04   -0.35552E-04  7930   0.728E-02    0.514E-02
DAV:   6    -0.137514939548E+03    0.63226E-04   -0.17802E-04  7500   0.617E-02    0.201E-02
DAV:   7    -0.137514940120E+03   -0.57200E-06   -0.69037E-05  7330   0.409E-02
  40 F= -.13751494E+03 E0= -.13750519E+03  d E =-.480680E-02
       N       E                     dE             d eps       ncg     rms          rms(c)
DAV:   1    -0.137515278055E+03   -0.33851E-03   -0.38852E-01  6660   0.261E+00    0.940E-02
DAV:   2    -0.137516179745E+03   -0.90169E-03   -0.87025E-03  7400   0.371E-01    0.181E-01
DAV:   3    -0.137516244326E+03   -0.64582E-04   -0.49915E-04  7580   0.766E-02    0.219E-01
DAV:   4    -0.137515859270E+03    0.38506E-03   -0.10147E-04  7000   0.569E-02    0.371E-02
DAV:   5    -0.137515869397E+03   -0.10127E-04   -0.96096E-05  7345   0.388E-02    0.274E-02
DAV:   6    -0.137515845992E+03    0.23405E-04   -0.49989E-05  6670   0.409E-02    0.868E-03
DAV:   7    -0.137515843948E+03    0.20449E-05   -0.27584E-05  6495   0.291E-02
  41 F= -.13751584E+03 E0= -.13750624E+03  d E =-.571063E-02
       N       E                     dE             d eps       ncg     rms          rms(c)
DAV:   1    -0.137517202103E+03   -0.13561E-02   -0.93325E-01  6420   0.420E+00    0.198E-01
DAV:   2    -0.137519290854E+03   -0.20888E-02   -0.25331E-02  7215   0.629E-01    0.232E-01
DAV:   3    -0.137521830668E+03   -0.25398E-02   -0.33993E-03  8080   0.161E-01    0.670E-01
DAV:   4    -0.137518443496E+03    0.33872E-02   -0.97201E-04  7455   0.123E-01    0.726E-02
DAV:   5    -0.137518559325E+03   -0.11583E-03   -0.36331E-04  7305   0.760E-02    0.472E-02
DAV:   6    -0.137518405993E+03    0.15333E-03   -0.19205E-04  7730   0.102E-01    0.195E-02
DAV:   7    -0.137518354414E+03    0.51579E-04   -0.12826E-04  7580   0.673E-02    0.208E-02
DAV:   8    -0.137518302851E+03    0.51563E-04   -0.30197E-05  6290   0.479E-02    0.917E-03
DAV:   9    -0.137518255083E+03    0.47768E-04   -0.16796E-05  5875   0.491E-02    0.930E-03
DAV:  10    -0.137518174817E+03    0.80266E-04   -0.51116E-05  7845   0.878E-02    0.982E-03
DAV:  11    -0.137518115209E+03    0.59608E-04   -0.67342E-05  7755   0.869E-02    0.736E-03
DAV:  12    -0.137518071002E+03    0.44208E-04   -0.79798E-05  8385   0.102E-01    0.655E-03
DAV:  13    -0.137518064090E+03    0.69114E-05   -0.87985E-05  7030   0.683E-02
  42 F= -.13751806E+03 E0= -.13750836E+03  d E =-.222014E-02
       N       E                     dE             d eps       ncg     rms          rms(c)
DAV:   1    -0.137518072494E+03   -0.14919E-05   -0.98578E-04  6825   0.135E-01    0.975E-03
DAV:   2    -0.137518086414E+03   -0.13921E-04   -0.30236E-05  5705   0.234E-02    0.372E-02
DAV:   3    -0.137518075084E+03    0.11330E-04   -0.68578E-06  4090   0.104E-02    0.187E-02
DAV:   4    -0.137518077139E+03   -0.20549E-05   -0.32525E-06  3995   0.648E-03    0.307E-03
DAV:   5    -0.137518078454E+03   -0.13146E-05   -0.71724E-07  4055   0.383E-03    0.366E-03
DAV:   6    -0.137518081148E+03   -0.26941E-05   -0.61485E-07  4185   0.615E-03
  43 F= -.13751808E+03 E0= -.13750838E+03  d E =-.223720E-02
       N       E                     dE             d eps       ncg     rms          rms(c)
DAV:   1    -0.137519367818E+03   -0.12894E-02   -0.55235E-01  6390   0.325E+00    0.134E-01
DAV:   2    -0.137521149918E+03   -0.17821E-02   -0.12760E-02  7270   0.462E-01    0.355E-01
DAV:   3    -0.137520752891E+03    0.39703E-03   -0.22716E-03  7490   0.109E-01    0.284E-01
DAV:   4    -0.137520187995E+03    0.56490E-03   -0.64750E-04  7280   0.719E-02    0.436E-02
DAV:   5    -0.137520136823E+03    0.51171E-04   -0.22887E-04  7505   0.842E-02    0.143E-02
DAV:   6    -0.137520129216E+03    0.76069E-05   -0.85116E-05  7340   0.430E-02
  44 F= -.13752013E+03 E0= -.13751037E+03  d E =-.204807E-02
       N       E                     dE             d eps       ncg     rms          rms(c)
DAV:   1    -0.137520177734E+03   -0.40911E-04   -0.20238E-01  6380   0.197E+00    0.819E-02
DAV:   2    -0.137520689517E+03   -0.51178E-03   -0.47332E-03  7330   0.284E-01    0.172E-01
DAV:   3    -0.137520709423E+03   -0.19906E-04   -0.32714E-04  7590   0.665E-02    0.194E-01
DAV:   4    -0.137520419067E+03    0.29036E-03   -0.10669E-04  7135   0.502E-02    0.285E-02
DAV:   5    -0.137520357843E+03    0.61224E-04   -0.10263E-04  7415   0.703E-02    0.141E-02
DAV:   6    -0.137520337390E+03    0.20453E-04   -0.50715E-05  7080   0.379E-02    0.978E-03
DAV:   7    -0.137520319642E+03    0.17748E-04   -0.12488E-05  4610   0.248E-02    0.135E-02
DAV:   8    -0.137520280017E+03    0.39625E-04   -0.10195E-05  5450   0.411E-02    0.788E-03
DAV:   9    -0.137520244771E+03    0.35246E-04   -0.17655E-05  6045   0.427E-02    0.565E-03
DAV:  10    -0.137520174685E+03    0.70086E-04   -0.66779E-05  8780   0.109E-01    0.532E-03
DAV:  11    -0.137520156023E+03    0.18662E-04   -0.67401E-05  7090   0.627E-02    0.400E-03
DAV:  12    -0.137520151435E+03    0.45885E-05   -0.37871E-05  7050   0.433E-02
  45 F= -.13752015E+03 E0= -.13751041E+03  d E =-.207029E-02
       N       E                     dE             d eps       ncg     rms          rms(c)
DAV:   1    -0.137521009161E+03   -0.85314E-03   -0.37096E-01  6530   0.261E+00    0.107E-01
DAV:   2    -0.137522829543E+03   -0.18204E-02   -0.93415E-03  7305   0.381E-01    0.411E-01
DAV:   3    -0.137521645513E+03    0.11840E-02   -0.73231E-04  7690   0.901E-02    0.101E-01
DAV:   4    -0.137521608049E+03    0.37464E-04   -0.21431E-04  7520   0.596E-02    0.395E-02
DAV:   5    -0.137521589001E+03    0.19048E-04   -0.87789E-05  7820   0.347E-02    0.289E-02
DAV:   6    -0.137521571459E+03    0.17542E-04   -0.51716E-05  7070   0.400E-02    0.128E-02
DAV:   7    -0.137521571427E+03    0.31871E-07   -0.25544E-05  6310   0.247E-02
  46 F= -.13752157E+03 E0= -.13751195E+03  d E =-.141999E-02
       N       E                     dE             d eps       ncg     rms          rms(c)
DAV:   1    -0.137521334720E+03    0.23674E-03   -0.63373E-01  6510   0.341E+00    0.141E-01
DAV:   2    -0.137524431136E+03   -0.30964E-02   -0.16116E-02  7295   0.499E-01    0.532E-01
DAV:   3    -0.137522438684E+03    0.19925E-02   -0.20832E-03  7660   0.120E-01    0.135E-01
DAV:   4    -0.137522352004E+03    0.86681E-04   -0.45083E-04  7580   0.781E-02    0.501E-02
DAV:   5    -0.137522317022E+03    0.34982E-04   -0.15083E-04  7980   0.461E-02    0.355E-02
DAV:   6    -0.137522279348E+03    0.37673E-04   -0.89385E-05  7585   0.556E-02    0.142E-02
DAV:   7    -0.137522276991E+03    0.23577E-05   -0.47809E-05  7420   0.340E-02
  47 F= -.13752228E+03 E0= -.13751277E+03  d E =-.212556E-02
       N       E                     dE             d eps       ncg     rms          rms(c)
DAV:   1    -0.137523282969E+03   -0.10036E-02   -0.69236E-01  6390   0.367E+00    0.166E-01
DAV:   2    -0.137524578408E+03   -0.12954E-02   -0.16264E-02  7195   0.514E-01    0.110E-01
DAV:   3    -0.137525794275E+03   -0.12159E-02   -0.87247E-04  8290   0.110E-01    0.439E-01
DAV:   4    -0.137524296466E+03    0.14978E-02   -0.66294E-04  7560   0.845E-02    0.569E-02
DAV:   5    -0.137524321662E+03   -0.25196E-04   -0.27887E-04  7355   0.710E-02    0.385E-02
DAV:   6    -0.137524281885E+03    0.39777E-04   -0.15825E-04  7845   0.539E-02    0.147E-02
DAV:   7    -0.137524270909E+03    0.10976E-04   -0.27013E-05  5865   0.290E-02    0.113E-02
DAV:   8    -0.137524257926E+03    0.12983E-04   -0.47342E-06  4310   0.220E-02    0.102E-02
DAV:   9    -0.137524243888E+03    0.14039E-04   -0.43135E-06  4645   0.250E-02    0.363E-03
DAV:  10    -0.137524226152E+03    0.17736E-04   -0.10528E-05  5415   0.406E-02    0.338E-03
DAV:  11    -0.137524211792E+03    0.14360E-04   -0.21440E-05  6155   0.467E-02    0.348E-03
DAV:  12    -0.137524200975E+03    0.10817E-04   -0.24859E-05  6455   0.682E-02    0.194E-03
DAV:  13    -0.137524202873E+03   -0.18977E-05   -0.42642E-05  6920   0.460E-02
  48 F= -.13752420E+03 E0= -.13751474E+03  d E =-.192588E-02
       N       E                     dE             d eps       ncg     rms          rms(c)
DAV:   1    -0.137524281303E+03   -0.80327E-04   -0.12270E-01  6440   0.155E+00    0.689E-02
DAV:   2    -0.137524510360E+03   -0.22906E-03   -0.28592E-03  7220   0.215E-01    0.469E-02
DAV:   3    -0.137524724796E+03   -0.21444E-03   -0.11933E-04  7535   0.464E-02    0.181E-01
DAV:   4    -0.137524449390E+03    0.27541E-03   -0.11522E-04  5955   0.355E-02    0.227E-02
DAV:   5    -0.137524464338E+03   -0.14948E-04   -0.49898E-05  6120   0.315E-02    0.168E-02
DAV:   6    -0.137524456564E+03    0.77739E-05   -0.26193E-05  4485   0.227E-02
  49 F= -.13752446E+03 E0= -.13751502E+03  d E =-.217957E-02
       N       E                     dE             d eps       ncg     rms          rms(c)
DAV:   1    -0.137524451183E+03    0.13155E-04   -0.16202E-02  6445   0.561E-01    0.255E-02
DAV:   2    -0.137524476039E+03   -0.24856E-04   -0.38363E-04  7310   0.799E-02    0.129E-02
DAV:   3    -0.137524471368E+03    0.46704E-05   -0.71181E-06  4330   0.152E-02    0.158E-02
DAV:   4    -0.137524470697E+03    0.67110E-06   -0.48525E-06  3990   0.971E-03    0.209E-02
DAV:   5    -0.137524462474E+03    0.82234E-05   -0.84901E-06  4270   0.162E-02    0.670E-03
DAV:   6    -0.137524457474E+03    0.49994E-05   -0.53556E-06  4340   0.155E-02
  50 F= -.13752446E+03 E0= -.13751503E+03  d E =-.218048E-02
       N       E                     dE             d eps       ncg     rms          rms(c)
DAV:   1    -0.137524985803E+03   -0.52333E-03   -0.34235E-01  6535   0.257E+00    0.906E-02
DAV:   2    -0.137525783704E+03   -0.79790E-03   -0.82185E-03  7270   0.361E-01    0.139E-01
DAV:   3    -0.137526018802E+03   -0.23510E-03   -0.10804E-03  8090   0.748E-02    0.231E-01
DAV:   4    -0.137525563781E+03    0.45502E-03   -0.18130E-04  7320   0.565E-02    0.318E-02
DAV:   5    -0.137525561791E+03    0.19900E-05   -0.11372E-04  7310   0.588E-02    0.153E-02
DAV:   6    -0.137525552928E+03    0.88632E-05   -0.65235E-05  6950   0.386E-02
  51 F= -.13752555E+03 E0= -.13751611E+03  d E =-.109545E-02
       N       E                     dE             d eps       ncg     rms          rms(c)
DAV:   1    -0.137525528702E+03    0.33089E-04   -0.17138E-01  6530   0.182E+00    0.647E-02
DAV:   2    -0.137525885108E+03   -0.35641E-03   -0.40536E-03  7290   0.257E-01    0.770E-02
DAV:   3    -0.137526093865E+03   -0.20876E-03   -0.39005E-04  7935   0.568E-02    0.189E-01
DAV:   4    -0.137525782241E+03    0.31162E-03   -0.10719E-04  6410   0.429E-02    0.236E-02
DAV:   5    -0.137525777646E+03    0.45946E-05   -0.64961E-05  7050   0.498E-02    0.125E-02
DAV:   6    -0.137525765046E+03    0.12600E-04   -0.38942E-05  6730   0.361E-02    0.719E-03
DAV:   7    -0.137525759594E+03    0.54525E-05   -0.15690E-05  5150   0.223E-02
  52 F= -.13752576E+03 E0= -.13751631E+03  d E =-.130212E-02
       N       E                     dE             d eps       ncg     rms          rms(c)
DAV:   1    -0.137526196355E+03   -0.43131E-03   -0.31464E-01  6390   0.240E+00    0.117E-01
DAV:   2    -0.137526936449E+03   -0.74009E-03   -0.70447E-03  7225   0.346E-01    0.211E-01
DAV:   3    -0.137527289213E+03   -0.35276E-03   -0.29288E-03  8030   0.946E-02    0.303E-01
DAV:   4    -0.137526508676E+03    0.78054E-03   -0.80014E-04  7150   0.714E-02    0.380E-02
DAV:   5    -0.137526494066E+03    0.14610E-04   -0.14851E-04  7370   0.582E-02    0.187E-02
DAV:   6    -0.137526459284E+03    0.34781E-04   -0.64467E-05  7465   0.456E-02    0.157E-02
DAV:   7    -0.137526438713E+03    0.20571E-04   -0.17136E-05  5590   0.302E-02    0.619E-03
DAV:   8    -0.137526425161E+03    0.13552E-04   -0.71801E-06  4525   0.228E-02    0.699E-03
DAV:   9    -0.137526403477E+03    0.21684E-04   -0.91867E-06  5195   0.357E-02    0.323E-03
DAV:  10    -0.137526387163E+03    0.16314E-04   -0.16113E-05  5725   0.347E-02    0.397E-03
DAV:  11    -0.137526379492E+03    0.76713E-05   -0.97930E-06  4740   0.257E-02
  53 F= -.13752638E+03 E0= -.13751693E+03  d E =-.619898E-03
       N       E                     dE             d eps       ncg     rms          rms(c)
DAV:   1    -0.137526352255E+03    0.34908E-04   -0.75770E-03  6910   0.376E-01    0.187E-02
DAV:   2    -0.137526377527E+03   -0.25272E-04   -0.22425E-04  7440   0.612E-02    0.392E-02
DAV:   3    -0.137526381366E+03   -0.38384E-05   -0.26909E-05  5445   0.161E-02    0.463E-02
DAV:   4    -0.137526363496E+03    0.17870E-04   -0.18304E-05  4485   0.120E-02    0.639E-03
DAV:   5    -0.137526363926E+03   -0.43034E-06   -0.51171E-06  4020   0.104E-02    0.421E-03
DAV:   6    -0.137526363228E+03    0.69749E-06   -0.16863E-06  4230   0.733E-03
  54 F= -.13752636E+03 E0= -.13751692E+03  d E =-.603635E-03
       N       E                     dE             d eps       ncg     rms          rms(c)
DAV:   1    -0.137526441764E+03   -0.77838E-04   -0.37506E-01  6580   0.265E+00    0.109E-01
DAV:   2    -0.137527235330E+03   -0.79357E-03   -0.88602E-03  7170   0.371E-01    0.114E-01
DAV:   3    -0.137527955007E+03   -0.71968E-03   -0.15070E-03  8100   0.860E-02    0.343E-01
DAV:   4    -0.137527006496E+03    0.94851E-03   -0.21186E-04  7425   0.642E-02    0.364E-02
DAV:   5    -0.137527049902E+03   -0.43407E-04   -0.10055E-04  6985   0.390E-02    0.245E-02
DAV:   6    -0.137527024708E+03    0.25195E-04   -0.52097E-05  7160   0.482E-02    0.155E-02
DAV:   7    -0.137527018280E+03    0.64274E-05   -0.30553E-05  6450   0.283E-02
  55 F= -.13752702E+03 E0= -.13751754E+03  d E =-.655052E-03
       N       E                     dE             d eps       ncg     rms          rms(c)
DAV:   1    -0.137526944628E+03    0.80080E-04   -0.10208E-01  6560   0.138E+00    0.571E-02
DAV:   2    -0.137527138272E+03   -0.19364E-03   -0.23944E-03  7305   0.196E-01    0.524E-02
DAV:   3    -0.137527331868E+03   -0.19360E-03   -0.27409E-04  6550   0.481E-02    0.177E-01
DAV:   4    -0.137527059894E+03    0.27197E-03   -0.71877E-05  6485   0.353E-02    0.201E-02
DAV:   5    -0.137527075763E+03   -0.15869E-04   -0.28683E-05  5640   0.247E-02    0.154E-02
DAV:   6    -0.137527045877E+03    0.29887E-04   -0.22760E-05  6005   0.446E-02    0.134E-02
DAV:   7    -0.137527034162E+03    0.11715E-04   -0.19488E-05  5465   0.260E-02    0.886E-03
DAV:   8    -0.137527018552E+03    0.15610E-04   -0.39417E-06  4605   0.291E-02    0.376E-03
DAV:   9    -0.137526996710E+03    0.21842E-04   -0.14805E-05  5725   0.461E-02    0.410E-03
DAV:  10    -0.137526976588E+03    0.20122E-04   -0.23416E-05  6450   0.499E-02    0.439E-03
DAV:  11    -0.137526956756E+03    0.19832E-04   -0.30156E-05  6730   0.735E-02    0.294E-03
DAV:  12    -0.137526959938E+03   -0.31817E-05   -0.49506E-05  6585   0.291E-02
  56 F= -.13752696E+03 E0= -.13751746E+03  d E =-.596709E-03
       N       E                     dE             d eps       ncg     rms          rms(c)
DAV:   1    -0.137526968442E+03   -0.11686E-04   -0.19191E-02  6710   0.599E-01    0.255E-02
DAV:   2    -0.137527010755E+03   -0.42313E-04   -0.45402E-04  7240   0.850E-02    0.291E-02
DAV:   3    -0.137527043143E+03   -0.32387E-04   -0.11675E-04  5610   0.204E-02    0.752E-02
DAV:   4    -0.137526992736E+03    0.50407E-04   -0.50923E-05  4705   0.150E-02    0.805E-03
DAV:   5    -0.137527000712E+03   -0.79761E-05   -0.55371E-06  3960   0.994E-03    0.546E-03
DAV:   6    -0.137527001524E+03   -0.81250E-06   -0.30042E-06  4270   0.117E-02
  57 F= -.13752700E+03 E0= -.13751751E+03  d E =-.638296E-03
       N       E                     dE             d eps       ncg     rms          rms(c)
DAV:   1    -0.137527292886E+03   -0.29217E-03   -0.20500E-01  6410   0.199E+00    0.736E-02
DAV:   2    -0.137528351917E+03   -0.10590E-02   -0.55998E-03  7280   0.293E-01    0.297E-01
DAV:   3    -0.137527645726E+03    0.70619E-03   -0.11099E-03  7455   0.727E-02    0.788E-02
DAV:   4    -0.137527643753E+03    0.19734E-05   -0.52588E-05  6885   0.381E-02    0.246E-02
DAV:   5    -0.137527624974E+03    0.18778E-04   -0.61151E-05  6980   0.350E-02    0.199E-02
DAV:   6    -0.137527607952E+03    0.17022E-04   -0.40163E-05  6950   0.395E-02    0.742E-03
DAV:   7    -0.137527606211E+03    0.17405E-05   -0.19542E-05  4995   0.227E-02
  58 F= -.13752761E+03 E0= -.13751808E+03  d E =-.604687E-03
       N       E                     dE             d eps       ncg     rms          rms(c)
DAV:   1    -0.137527482036E+03    0.12592E-03   -0.20137E-01  6440   0.197E+00    0.721E-02
DAV:   2    -0.137528296169E+03   -0.81413E-03   -0.52459E-03  7380   0.288E-01    0.240E-01
DAV:   3    -0.137527874273E+03    0.42190E-03   -0.99199E-04  7755   0.675E-02    0.944E-02
DAV:   4    -0.137527818215E+03    0.56058E-04   -0.49070E-05  7075   0.391E-02    0.247E-02
DAV:   5    -0.137527799257E+03    0.18959E-04   -0.62280E-05  7255   0.355E-02    0.200E-02
DAV:   6    -0.137527777280E+03    0.21976E-04   -0.41933E-05  7075   0.431E-02    0.708E-03
DAV:   7    -0.137527774363E+03    0.29175E-05   -0.23713E-05  5545   0.256E-02
  59 F= -.13752777E+03 E0= -.13751823E+03  d E =-.772839E-03
       N       E                     dE             d eps       ncg     rms          rms(c)
DAV:   1    -0.137528076291E+03   -0.29901E-03   -0.17295E-01  6380   0.179E+00    0.894E-02
DAV:   2    -0.137528572315E+03   -0.49602E-03   -0.44961E-03  7205   0.261E-01    0.164E-01
DAV:   3    -0.137528594847E+03   -0.22532E-04   -0.13930E-03  7385   0.634E-02    0.182E-01
DAV:   4    -0.137528306280E+03    0.28857E-03   -0.14591E-04  6440   0.480E-02    0.294E-02
DAV:   5    -0.137528316727E+03   -0.10448E-04   -0.57939E-05  6795   0.295E-02    0.187E-02
DAV:   6    -0.137528303428E+03    0.13299E-04   -0.19949E-05  5190   0.309E-02    0.708E-03
DAV:   7    -0.137528300521E+03    0.29069E-05   -0.14532E-05  4870   0.224E-02
  60 F= -.13752830E+03 E0= -.13751881E+03  d E =-.526158E-03
       N       E                     dE             d eps       ncg     rms          rms(c)
DAV:   1    -0.137528296185E+03    0.72431E-05   -0.91923E-02  6440   0.130E+00    0.648E-02
DAV:   2    -0.137528488422E+03   -0.19224E-03   -0.23386E-03  7285   0.189E-01    0.783E-02
DAV:   3    -0.137528690206E+03   -0.20178E-03   -0.70132E-04  6825   0.506E-02    0.185E-01
DAV:   4    -0.137528390805E+03    0.29940E-03   -0.98801E-05  6580   0.391E-02    0.225E-02
DAV:   5    -0.137528404760E+03   -0.13955E-04   -0.33149E-05  5640   0.244E-02    0.147E-02
DAV:   6    -0.137528386721E+03    0.18039E-04   -0.14808E-05  5060   0.342E-02    0.989E-03
DAV:   7    -0.137528377451E+03    0.92701E-05   -0.14949E-05  5400   0.258E-02
  61 F= -.13752838E+03 E0= -.13751892E+03  d E =-.603088E-03
       N       E                     dE             d eps       ncg     rms          rms(c)
DAV:   1    -0.137528501483E+03   -0.11476E-03   -0.11630E-01  6660   0.143E+00    0.649E-02
DAV:   2    -0.137529707100E+03   -0.12056E-02   -0.36537E-03  7220   0.220E-01    0.368E-01
DAV:   3    -0.137528628479E+03    0.10786E-02   -0.88354E-04  7390   0.698E-02    0.433E-02
DAV:   4    -0.137528674098E+03   -0.45619E-04   -0.80065E-05  7160   0.374E-02    0.211E-02
DAV:   5    -0.137528664062E+03    0.10036E-04   -0.36948E-05  6300   0.252E-02    0.160E-02
DAV:   6    -0.137528650834E+03    0.13228E-04   -0.21267E-05  6265   0.314E-02    0.753E-03
DAV:   7    -0.137528646753E+03    0.40810E-05   -0.13879E-05  4950   0.195E-02
  62 F= -.13752865E+03 E0= -.13751922E+03  d E =-.269302E-03
       N       E                     dE             d eps       ncg     rms          rms(c)
DAV:   1    -0.137528617290E+03    0.33543E-04   -0.71495E-02  6520   0.112E+00    0.496E-02
DAV:   2    -0.137529246117E+03   -0.62883E-03   -0.21433E-03  7255   0.170E-01    0.261E-01
DAV:   3    -0.137528698046E+03    0.54807E-03   -0.51118E-04  7270   0.522E-02    0.377E-02
DAV:   4    -0.137528722006E+03   -0.23960E-04   -0.47246E-05  6015   0.296E-02    0.168E-02
DAV:   5    -0.137528714193E+03    0.78129E-05   -0.21802E-05  4610   0.207E-02    0.115E-02
DAV:   6    -0.137528704863E+03    0.93297E-05   -0.15415E-05  5935   0.282E-02
  63 F= -.13752870E+03 E0= -.13751928E+03  d E =-.327413E-03
       N       E                     dE             d eps       ncg     rms          rms(c)
DAV:   1    -0.137528906703E+03   -0.19251E-03   -0.71590E-02  6470   0.112E+00    0.497E-02
DAV:   2    -0.137529465263E+03   -0.55856E-03   -0.16856E-03  7195   0.162E-01    0.242E-01
DAV:   3    -0.137529001976E+03    0.46329E-03   -0.58152E-04  7025   0.525E-02    0.562E-02
DAV:   4    -0.137529018419E+03   -0.16443E-04   -0.50878E-05  5785   0.248E-02    0.136E-02
DAV:   5    -0.137529013377E+03    0.50420E-05   -0.22726E-05  4485   0.229E-02    0.165E-02
DAV:   6    -0.137529008715E+03    0.46624E-05   -0.13076E-05  4410   0.181E-02
  64 F= -.13752901E+03 E0= -.13751958E+03  d E =-.303852E-03
       N       E                     dE             d eps       ncg     rms          rms(c)
DAV:   1    -0.137529011827E+03    0.15506E-05   -0.89989E-02  6430   0.126E+00    0.582E-02
DAV:   2    -0.137529906422E+03   -0.89460E-03   -0.21344E-03  7235   0.187E-01    0.318E-01
DAV:   3    -0.137529106098E+03    0.80032E-03   -0.73966E-04  7090   0.665E-02    0.610E-02
DAV:   4    -0.137529134393E+03   -0.28295E-04   -0.72511E-05  6065   0.309E-02    0.161E-02
DAV:   5    -0.137529118564E+03    0.15830E-04   -0.31801E-05  5785   0.314E-02    0.200E-02
DAV:   6    -0.137529104061E+03    0.14503E-04   -0.20784E-05  5145   0.274E-02    0.612E-03
DAV:   7    -0.137529095438E+03    0.86231E-05   -0.69846E-06  4455   0.204E-02
  65 F= -.13752910E+03 E0= -.13751966E+03  d E =-.390574E-03
       N       E                     dE             d eps       ncg     rms          rms(c)
DAV:   1    -0.137529195233E+03   -0.91173E-04   -0.58403E-02  6775   0.103E+00    0.349E-02
DAV:   2    -0.137529315692E+03   -0.12046E-03   -0.12921E-03  7390   0.145E-01    0.616E-02
DAV:   3    -0.137529337352E+03   -0.21660E-04   -0.16378E-04  6650   0.308E-02    0.833E-02
DAV:   4    -0.137529273913E+03    0.63439E-04   -0.26111E-05  5165   0.217E-02    0.136E-02
DAV:   5    -0.137529268838E+03    0.50748E-05   -0.30401E-05  6395   0.304E-02    0.926E-03
DAV:   6    -0.137529265798E+03    0.30402E-05   -0.10910E-05  4465   0.170E-02
  66 F= -.13752927E+03 E0= -.13751982E+03  d E =-.170360E-03
       N       E                     dE             d eps       ncg     rms          rms(c)
DAV:   1    -0.137529266092E+03    0.27458E-05   -0.23693E-02  6705   0.654E-01    0.229E-02
DAV:   2    -0.137529307243E+03   -0.41151E-04   -0.51478E-04  7370   0.935E-02    0.255E-02
DAV:   3    -0.137529336563E+03   -0.29321E-04   -0.30029E-05  5670   0.215E-02    0.679E-02
DAV:   4    -0.137529293074E+03    0.43489E-04   -0.15156E-05  4860   0.155E-02    0.884E-03
DAV:   5    -0.137529291695E+03    0.13794E-05   -0.12479E-05  5045   0.227E-02    0.746E-03
DAV:   6    -0.137529289632E+03    0.20623E-05   -0.61761E-06  4320   0.142E-02
  67 F= -.13752929E+03 E0= -.13751984E+03  d E =-.194195E-03
       N       E                     dE             d eps       ncg     rms          rms(c)
DAV:   1    -0.137529362148E+03   -0.70454E-04   -0.71898E-02  6770   0.116E+00    0.364E-02
DAV:   2    -0.137529559435E+03   -0.19729E-03   -0.16453E-03  7120   0.160E-01    0.884E-02
DAV:   3    -0.137529528517E+03    0.30918E-04   -0.23726E-04  6615   0.308E-02    0.694E-02
DAV:   4    -0.137529491724E+03    0.36792E-04   -0.24324E-05  5395   0.201E-02    0.121E-02
DAV:   5    -0.137529489902E+03    0.18224E-05   -0.17485E-05  4370   0.222E-02    0.122E-02
DAV:   6    -0.137529486804E+03    0.30981E-05   -0.11949E-05  4395   0.173E-02
  68 F= -.13752949E+03 E0= -.13752004E+03  d E =-.197171E-03
       N       E                     dE             d eps       ncg     rms          rms(c)
DAV:   1    -0.137529369237E+03    0.12066E-03   -0.13281E-01  6760   0.158E+00    0.493E-02
DAV:   2    -0.137529734862E+03   -0.36562E-03   -0.29963E-03  7165   0.218E-01    0.126E-01
DAV:   3    -0.137529658358E+03    0.76504E-04   -0.44536E-04  7295   0.432E-02    0.901E-02
DAV:   4    -0.137529590290E+03    0.68068E-04   -0.41161E-05  6005   0.288E-02    0.169E-02
DAV:   5    -0.137529571005E+03    0.19285E-04   -0.35165E-05  6320   0.375E-02    0.168E-02
DAV:   6    -0.137529555339E+03    0.15666E-04   -0.26491E-05  5745   0.308E-02    0.564E-03
DAV:   7    -0.137529547120E+03    0.82183E-05   -0.79885E-06  4250   0.192E-02
  69 F= -.13752955E+03 E0= -.13752011E+03  d E =-.257488E-03
       N       E                     dE             d eps       ncg     rms          rms(c)
DAV:   1    -0.137529605117E+03   -0.49779E-04   -0.66621E-02  6650   0.112E+00    0.479E-02
DAV:   2    -0.137529716940E+03   -0.11182E-03   -0.15378E-03  7320   0.160E-01    0.328E-02
DAV:   3    -0.137529773449E+03   -0.56509E-04   -0.12217E-04  7530   0.358E-02    0.988E-02
DAV:   4    -0.137529686318E+03    0.87131E-04   -0.78882E-05  5455   0.223E-02    0.173E-02
DAV:   5    -0.137529685554E+03    0.76376E-06   -0.18276E-05  4725   0.202E-02    0.134E-02
DAV:   6    -0.137529670658E+03    0.14897E-04   -0.16364E-05  5220   0.293E-02    0.412E-03
DAV:   7    -0.137529666225E+03    0.44326E-05   -0.10277E-05  4545   0.190E-02
  70 F= -.13752967E+03 E0= -.13752023E+03  d E =-.119105E-03
       N       E                     dE             d eps       ncg     rms          rms(c)
DAV:   1    -0.137529657152E+03    0.13506E-04   -0.95679E-03  6930   0.426E-01    0.183E-02
DAV:   2    -0.137529673849E+03   -0.16697E-04   -0.22577E-04  7450   0.627E-02    0.231E-02
DAV:   3    -0.137529692276E+03   -0.18427E-04   -0.54982E-05  5030   0.167E-02    0.556E-02
DAV:   4    -0.137529663241E+03    0.29035E-04   -0.22120E-05  4760   0.127E-02    0.672E-03
DAV:   5    -0.137529663764E+03   -0.52367E-06   -0.32413E-06  4170   0.103E-02    0.674E-03
DAV:   6    -0.137529659492E+03    0.42722E-05   -0.29504E-06  4540   0.157E-02
  71 F= -.13752966E+03 E0= -.13752023E+03  d E =-.112372E-03
       N       E                     dE             d eps       ncg     rms          rms(c)
DAV:   1    -0.137529784779E+03   -0.12101E-03   -0.46635E-02  6750   0.905E-01    0.467E-02
DAV:   2    -0.137529861019E+03   -0.76240E-04   -0.10975E-03  7135   0.126E-01    0.272E-02
DAV:   3    -0.137529849303E+03    0.11716E-04   -0.78042E-05  6535   0.299E-02    0.184E-02
DAV:   4    -0.137529863015E+03   -0.13712E-04   -0.53518E-05  5140   0.169E-02    0.498E-02
DAV:   5    -0.137529837374E+03    0.25641E-04   -0.17680E-05  4400   0.113E-02    0.819E-03
DAV:   6    -0.137529834118E+03    0.32556E-05   -0.66899E-06  4450   0.207E-02
  72 F= -.13752983E+03 E0= -.13752038E+03  d E =-.174626E-03
       N       E                     dE             d eps       ncg     rms          rms(c)
DAV:   1    -0.137529819258E+03    0.18116E-04   -0.38855E-02  6770   0.826E-01    0.432E-02
DAV:   2    -0.137529869748E+03   -0.50490E-04   -0.91420E-04  7230   0.117E-01    0.252E-02
DAV:   3    -0.137529853509E+03    0.16240E-04   -0.63857E-05  7215   0.327E-02    0.170E-02
DAV:   4    -0.137529853089E+03    0.42000E-06   -0.90720E-06  4505   0.166E-02    0.369E-02
DAV:   5    -0.137529837852E+03    0.15236E-04   -0.16058E-05  4860   0.144E-02    0.187E-02
DAV:   6    -0.137529814833E+03    0.23019E-04   -0.10120E-05  5160   0.329E-02    0.596E-03
DAV:   7    -0.137529802536E+03    0.12297E-04   -0.10187E-05  4895   0.246E-02    0.609E-03
DAV:   8    -0.137529778005E+03    0.24531E-04   -0.10223E-05  5435   0.453E-02    0.335E-03
DAV:   9    -0.137529753106E+03    0.24899E-04   -0.30458E-05  6775   0.588E-02    0.360E-03
DAV:  10    -0.137529746303E+03    0.68035E-05   -0.27835E-05  6500   0.329E-02
  73 F= -.13752975E+03 E0= -.13752028E+03  d E =-.868102E-04
       N       E                     dE             d eps       ncg     rms          rms(c)
DAV:   1    -0.137529794226E+03   -0.41120E-04   -0.12376E-02  7165   0.467E-01    0.237E-02
DAV:   2    -0.137529821068E+03   -0.26842E-04   -0.32068E-04  7225   0.674E-02    0.254E-02
DAV:   3    -0.137529849473E+03   -0.28406E-04   -0.10169E-04  5490   0.181E-02    0.694E-02
DAV:   4    -0.137529805438E+03    0.44036E-04   -0.37997E-05  4705   0.145E-02    0.837E-03
DAV:   5    -0.137529812601E+03   -0.71632E-05   -0.52208E-06  3980   0.101E-02    0.515E-03
DAV:   6    -0.137529812430E+03    0.17090E-06   -0.20891E-06  4255   0.105E-02
  74 F= -.13752981E+03 E0= -.13752035E+03  d E =-.152938E-03
       N       E                     dE             d eps       ncg     rms          rms(c)
DAV:   1    -0.137529825678E+03   -0.13077E-04   -0.15554E-03  6965   0.165E-01    0.929E-03
DAV:   2    -0.137529831452E+03   -0.57734E-05   -0.39406E-05  6480   0.242E-02    0.248E-02
DAV:   3    -0.137529829460E+03    0.19914E-05   -0.18236E-05  4335   0.939E-03    0.222E-02
DAV:   4    -0.137529826097E+03    0.33633E-05   -0.40355E-06  3750   0.725E-03    0.346E-03
DAV:   5    -0.137529826016E+03    0.81048E-07   -0.85514E-07  4015   0.579E-03    0.412E-03
DAV:   6    -0.137529824784E+03    0.12324E-05   -0.91861E-07  4195   0.104E-02
  75 F= -.13752982E+03 E0= -.13752036E+03  d E =-.165291E-03
       N       E                     dE             d eps       ncg     rms          rms(c)
DAV:   1    -0.137529828916E+03   -0.28997E-05   -0.53526E-04  6995   0.980E-02    0.535E-03
DAV:   2    -0.137529829594E+03   -0.67884E-06   -0.13813E-05  4975   0.164E-02    0.937E-03
DAV:   3    -0.137529830582E+03   -0.98797E-06   -0.27652E-06  3950   0.657E-03    0.158E-02
DAV:   4    -0.137529828086E+03    0.24964E-05   -0.15366E-06  3905   0.488E-03    0.230E-03
DAV:   5    -0.137529828048E+03    0.38488E-07   -0.35393E-07  3995   0.378E-03    0.304E-03
DAV:   6    -0.137529826629E+03    0.14186E-05   -0.71195E-07  4180   0.984E-03
  76 F= -.13752983E+03 E0= -.13752037E+03  d E =-.167137E-03
       N       E                     dE             d eps       ncg     rms          rms(c)
DAV:   1    -0.137529898611E+03   -0.70564E-04   -0.54586E-02  6860   0.998E-01    0.351E-02
DAV:   2    -0.137529999899E+03   -0.10129E-03   -0.12354E-03  7355   0.142E-01    0.348E-02
DAV:   3    -0.137530068828E+03   -0.68929E-04   -0.10093E-04  6960   0.319E-02    0.104E-01
DAV:   4    -0.137529970245E+03    0.98582E-04   -0.28850E-05  5270   0.220E-02    0.134E-02
DAV:   5    -0.137529972646E+03   -0.24011E-05   -0.20651E-05  5420   0.248E-02    0.915E-03
DAV:   6    -0.137529966958E+03    0.56889E-05   -0.14317E-05  4670   0.228E-02
  77 F= -.13752997E+03 E0= -.13752051E+03  d E =-.140329E-03
