       N       E                     dE             d eps       ncg     rms          rms(c)
DAV:   1     0.585671842994E+03    0.58567E+03   -0.48023E+04  2872   0.137E+03
DAV:   2    -0.100599934394E+03   -0.68627E+03   -0.65292E+03  3724   0.269E+02
DAV:   3    -0.167456050274E+03   -0.66856E+02   -0.66478E+02  3320   0.914E+01
DAV:   4    -0.168596078492E+03   -0.11400E+01   -0.11373E+01  3376   0.129E+01
DAV:   5    -0.168620979734E+03   -0.24901E-01   -0.24879E-01  3424   0.184E+00    0.240E+01
DAV:   6    -0.151368410303E+03    0.17253E+02   -0.96624E+01  3208   0.320E+01    0.815E+00
DAV:   7    -0.151209839064E+03    0.15857E+00   -0.23871E+00  3144   0.578E+00    0.496E+00
DAV:   8    -0.151116701562E+03    0.93138E-01   -0.93470E-01  3296   0.483E+00    0.135E+00
DAV:   9    -0.151080123484E+03    0.36578E-01   -0.17783E-01  3312   0.192E+00    0.683E-01
DAV:  10    -0.151085556323E+03   -0.54328E-02   -0.14388E-01  3260   0.148E+00    0.423E-01
DAV:  11    -0.151083058414E+03    0.24979E-02   -0.20895E-02  3212   0.436E-01    0.338E-01
DAV:  12    -0.151081520034E+03    0.15384E-02   -0.12622E-02  3424   0.509E-01    0.120E-01
DAV:  13    -0.151081734060E+03   -0.21403E-03   -0.22926E-03  3272   0.208E-01    0.910E-02
DAV:  14    -0.151081568305E+03    0.16575E-03   -0.47532E-04  3568   0.126E-01    0.556E-02
DAV:  15    -0.151081488489E+03    0.79816E-04   -0.31255E-04  3288   0.918E-02    0.170E-02
DAV:  16    -0.151081417875E+03    0.70614E-04   -0.41544E-05  2936   0.733E-02    0.163E-02
DAV:  17    -0.151081326420E+03    0.91455E-04   -0.15593E-04  4240   0.133E-01    0.117E-02
DAV:  18    -0.151081274381E+03    0.52039E-04   -0.12269E-04  3848   0.122E-01    0.161E-02
DAV:  19    -0.151081237114E+03    0.37267E-04   -0.71840E-05  3096   0.112E-01    0.738E-03
DAV:  20    -0.151081233340E+03    0.37740E-05   -0.85239E-05  3168   0.723E-02
   1 F= -.15108123E+03 E0= -.15107899E+03  d E =-.151081E+03
       N       E                     dE             d eps       ncg     rms          rms(c)
DAV:   1    -0.151082994919E+03   -0.17578E-02   -0.18410E-02  2928   0.560E-01    0.460E-02
DAV:   2    -0.151082990124E+03    0.47945E-05   -0.14336E-03  3308   0.159E-01    0.379E-02
DAV:   3    -0.151082966373E+03    0.23751E-04   -0.11792E-04  3228   0.470E-02    0.282E-02
DAV:   4    -0.151082947896E+03    0.18477E-04   -0.66555E-05  3040   0.350E-02    0.118E-02
DAV:   5    -0.151082933019E+03    0.14877E-04   -0.31403E-05  2832   0.373E-02    0.101E-02
DAV:   6    -0.151082928541E+03    0.44778E-05   -0.11841E-05  1936   0.232E-02
   2 F= -.15108293E+03 E0= -.15108060E+03  d E =-.169520E-02
       N       E                     dE             d eps       ncg     rms          rms(c)
DAV:   1    -0.151083745611E+03   -0.81259E-03   -0.27378E-02  2900   0.687E-01    0.576E-02
DAV:   2    -0.151083749584E+03   -0.39735E-05   -0.24898E-03  3308   0.199E-01    0.502E-02
DAV:   3    -0.151083693870E+03    0.55715E-04   -0.23707E-04  3276   0.626E-02    0.356E-02
DAV:   4    -0.151083673168E+03    0.20702E-04   -0.64785E-05  3064   0.320E-02    0.204E-02
DAV:   5    -0.151083634024E+03    0.39144E-04   -0.73457E-05  3248   0.491E-02    0.884E-03
DAV:   6    -0.151083623892E+03    0.10132E-04   -0.20589E-05  2464   0.298E-02    0.782E-03
DAV:   7    -0.151083612707E+03    0.11185E-04   -0.78121E-06  1888   0.320E-02    0.329E-03
DAV:   8    -0.151083595860E+03    0.16847E-04   -0.12196E-05  2168   0.614E-02    0.649E-03
DAV:   9    -0.151083585805E+03    0.10056E-04   -0.18513E-05  2408   0.581E-02    0.684E-03
DAV:  10    -0.151083576906E+03    0.88987E-05   -0.21418E-05  2360   0.912E-02
   3 F= -.15108358E+03 E0= -.15108115E+03  d E =-.234357E-02
       N       E                     dE             d eps       ncg     rms          rms(c)
DAV:   1    -0.151084749223E+03   -0.11634E-02   -0.67063E-02  3020   0.111E+00    0.415E-02
DAV:   2    -0.151084870577E+03   -0.12135E-03   -0.18690E-03  3264   0.167E-01    0.254E-02
DAV:   3    -0.151084857166E+03    0.13411E-04   -0.47826E-05  3368   0.356E-02    0.179E-02
DAV:   4    -0.151084848254E+03    0.89117E-05   -0.19574E-05  2112   0.279E-02    0.870E-03
DAV:   5    -0.151084844850E+03    0.34046E-05   -0.11113E-05  2088   0.261E-02    0.467E-03
DAV:   6    -0.151084844989E+03   -0.13886E-06   -0.11041E-05  1888   0.188E-02
   4 F= -.15108484E+03 E0= -.15108234E+03  d E =-.126808E-02
       N       E                     dE             d eps       ncg     rms          rms(c)
DAV:   1    -0.151085860340E+03   -0.10155E-02   -0.59836E-01  2936   0.332E+00    0.129E-01
DAV:   2    -0.151086849742E+03   -0.98940E-03   -0.17182E-02  3280   0.522E-01    0.820E-02
DAV:   3    -0.151086674448E+03    0.17529E-03   -0.73335E-04  3396   0.116E-01    0.593E-02
DAV:   4    -0.151086607960E+03    0.66488E-04   -0.22215E-04  3320   0.562E-02    0.419E-02
DAV:   5    -0.151086496885E+03    0.11108E-03   -0.15086E-04  3324   0.729E-02    0.190E-02
DAV:   6    -0.151086452461E+03    0.44424E-04   -0.85996E-05  3544   0.710E-02    0.116E-02
DAV:   7    -0.151086429235E+03    0.23226E-04   -0.74513E-05  3284   0.752E-02    0.874E-03
DAV:   8    -0.151086418705E+03    0.10531E-04   -0.28800E-05  2648   0.436E-02    0.576E-03
DAV:   9    -0.151086416564E+03    0.21408E-05   -0.12548E-05  2032   0.260E-02
   5 F= -.15108642E+03 E0= -.15108361E+03  d E =-.283966E-02
       N       E                     dE             d eps       ncg     rms          rms(c)
DAV:   1    -0.151087278494E+03   -0.85979E-03   -0.91705E-02  2924   0.126E+00    0.441E-02
DAV:   2    -0.151087468297E+03   -0.18980E-03   -0.24563E-03  3188   0.177E-01    0.239E-02
DAV:   3    -0.151087455443E+03    0.12855E-04   -0.29663E-05  2864   0.292E-02    0.164E-02
DAV:   4    -0.151087447571E+03    0.78716E-05   -0.24859E-05  2616   0.331E-02    0.529E-03
DAV:   5    -0.151087449054E+03   -0.14828E-05   -0.16288E-05  2076   0.177E-02    0.432E-03
DAV:   6    -0.151087449270E+03   -0.21648E-06   -0.22471E-06  1652   0.585E-03
   6 F= -.15108745E+03 E0= -.15108460E+03  d E =-.103271E-02
       N       E                     dE             d eps       ncg     rms          rms(c)
DAV:   1    -0.151088383249E+03   -0.93419E-03   -0.82346E-01  2904   0.377E+00    0.132E-01
DAV:   2    -0.151090060039E+03   -0.16768E-02   -0.21775E-02  3200   0.528E-01    0.735E-02
DAV:   3    -0.151089922797E+03    0.13724E-03   -0.36095E-04  3336   0.850E-02    0.496E-02
DAV:   4    -0.151089875300E+03    0.47497E-04   -0.23613E-04  3320   0.677E-02    0.313E-02
DAV:   5    -0.151089819826E+03    0.55474E-04   -0.15083E-04  3320   0.584E-02    0.109E-02
DAV:   6    -0.151089814410E+03    0.54157E-05   -0.30799E-05  2776   0.316E-02
   7 F= -.15108981E+03 E0= -.15108693E+03  d E =-.339785E-02
       N       E                     dE             d eps       ncg     rms          rms(c)
DAV:   1    -0.151085253365E+03    0.45665E-02   -0.32931E+00  2912   0.754E+00    0.263E-01
DAV:   2    -0.151092175927E+03   -0.69226E-02   -0.87660E-02  3216   0.106E+00    0.150E-01
DAV:   3    -0.151091578750E+03    0.59718E-03   -0.14306E-03  3348   0.167E-01    0.101E-01
DAV:   4    -0.151091314583E+03    0.26417E-03   -0.64747E-04  3320   0.137E-01    0.568E-02
DAV:   5    -0.151091150704E+03    0.16388E-03   -0.51188E-04  3376   0.118E-01    0.195E-02
DAV:   6    -0.151091128646E+03    0.22057E-04   -0.12156E-04  3340   0.621E-02    0.133E-02
DAV:   7    -0.151091106320E+03    0.22326E-04   -0.18614E-05  2392   0.365E-02    0.743E-03
DAV:   8    -0.151091092905E+03    0.13414E-04   -0.14738E-05  2280   0.374E-02    0.476E-03
DAV:   9    -0.151091083813E+03    0.90926E-05   -0.26138E-05  2752   0.473E-02
   8 F= -.15109108E+03 E0= -.15108853E+03  d E =-.466725E-02
       N       E                     dE             d eps       ncg     rms          rms(c)
DAV:   1    -0.151090838215E+03    0.25469E-03   -0.21847E-01  2904   0.195E+00    0.690E-02
DAV:   2    -0.151091299817E+03   -0.46160E-03   -0.57950E-03  3216   0.273E-01    0.383E-02
DAV:   3    -0.151091255729E+03    0.44088E-04   -0.14357E-04  3136   0.445E-02    0.258E-02
DAV:   4    -0.151091242648E+03    0.13081E-04   -0.41873E-05  2768   0.307E-02    0.169E-02
DAV:   5    -0.151091229600E+03    0.13047E-04   -0.33151E-05  2760   0.358E-02    0.513E-03
DAV:   6    -0.151091229928E+03   -0.32778E-06   -0.15768E-05  2148   0.212E-02
   9 F= -.15109123E+03 E0= -.15108856E+03  d E =-.481336E-02
       N       E                     dE             d eps       ncg     rms          rms(c)
DAV:   1    -0.151092249632E+03   -0.10200E-02   -0.23075E-01  2876   0.204E+00    0.683E-02
DAV:   2    -0.151092621967E+03   -0.37234E-03   -0.53224E-03  3292   0.293E-01    0.410E-02
DAV:   3    -0.151092577215E+03    0.44753E-04   -0.16055E-04  3332   0.474E-02    0.286E-02
DAV:   4    -0.151092561552E+03    0.15662E-04   -0.49849E-05  3184   0.301E-02    0.165E-02
DAV:   5    -0.151092550935E+03    0.10617E-04   -0.30533E-05  2684   0.309E-02    0.667E-03
DAV:   6    -0.151092550624E+03    0.31122E-06   -0.11733E-05  1800   0.226E-02
  10 F= -.15109255E+03 E0= -.15108996E+03  d E =-.132070E-02
       N       E                     dE             d eps       ncg     rms          rms(c)
DAV:   1    -0.151092433605E+03    0.11733E-03   -0.90751E-01  2888   0.405E+00    0.136E-01
DAV:   2    -0.151093913276E+03   -0.14797E-02   -0.20796E-02  3284   0.581E-01    0.797E-02
DAV:   3    -0.151093763492E+03    0.14978E-03   -0.49111E-04  3364   0.927E-02    0.559E-02
DAV:   4    -0.151093692875E+03    0.70617E-04   -0.24764E-04  3336   0.727E-02    0.269E-02
DAV:   5    -0.151093667304E+03    0.25572E-04   -0.95221E-05  3320   0.551E-02    0.155E-02
DAV:   6    -0.151093661618E+03    0.56860E-05   -0.50614E-05  3024   0.500E-02
  11 F= -.15109366E+03 E0= -.15109121E+03  d E =-.243169E-02
       N       E                     dE             d eps       ncg     rms          rms(c)
DAV:   1    -0.151094784746E+03   -0.11174E-02   -0.34776E-01  2936   0.250E+00    0.799E-02
DAV:   2    -0.151095262108E+03   -0.47736E-03   -0.70646E-03  3332   0.343E-01    0.456E-02
DAV:   3    -0.151095196156E+03    0.65952E-04   -0.18809E-04  3428   0.648E-02    0.315E-02
DAV:   4    -0.151095156591E+03    0.39565E-04   -0.77763E-05  3328   0.444E-02    0.157E-02
DAV:   5    -0.151095137020E+03    0.19571E-04   -0.42122E-05  3136   0.427E-02    0.828E-03
DAV:   6    -0.151095133066E+03    0.39537E-05   -0.25919E-05  2432   0.310E-02
  12 F= -.15109513E+03 E0= -.15109268E+03  d E =-.147145E-02
       N       E                     dE             d eps       ncg     rms          rms(c)
DAV:   1    -0.151095253360E+03   -0.11634E-03   -0.35839E-01  2944   0.253E+00    0.810E-02
DAV:   2    -0.151095739276E+03   -0.48592E-03   -0.74007E-03  3324   0.347E-01    0.465E-02
DAV:   3    -0.151095657048E+03    0.82228E-04   -0.17642E-04  3412   0.609E-02    0.315E-02
DAV:   4    -0.151095599343E+03    0.57705E-04   -0.96901E-05  3376   0.510E-02    0.151E-02
DAV:   5    -0.151095568466E+03    0.30877E-04   -0.48542E-05  3136   0.473E-02    0.950E-03
DAV:   6    -0.151095551314E+03    0.17152E-04   -0.26434E-05  2584   0.403E-02    0.738E-03
DAV:   7    -0.151095542090E+03    0.92236E-05   -0.13853E-05  2104   0.307E-02
  13 F= -.15109554E+03 E0= -.15109309E+03  d E =-.188047E-02
       N       E                     dE             d eps       ncg     rms          rms(c)
DAV:   1    -0.151095481198E+03    0.70117E-04   -0.75975E-01  2864   0.377E+00    0.114E-01
DAV:   2    -0.151097041306E+03   -0.15601E-02   -0.17206E-02  3216   0.516E-01    0.620E-02
DAV:   3    -0.151096957076E+03    0.84230E-04   -0.20288E-04  3384   0.770E-02    0.431E-02
DAV:   4    -0.151096877866E+03    0.79210E-04   -0.18392E-04  3312   0.916E-02    0.179E-02
DAV:   5    -0.151096857131E+03    0.20736E-04   -0.87695E-05  3316   0.673E-02    0.188E-02
DAV:   6    -0.151096843065E+03    0.14066E-04   -0.63466E-05  3044   0.458E-02    0.952E-03
DAV:   7    -0.151096816906E+03    0.26158E-04   -0.66022E-06  2020   0.508E-02    0.578E-03
DAV:   8    -0.151096798654E+03    0.18252E-04   -0.12283E-05  2176   0.447E-02    0.644E-03
DAV:   9    -0.151096775950E+03    0.22704E-04   -0.14873E-05  2240   0.693E-02    0.663E-03
DAV:  10    -0.151096721703E+03    0.54247E-04   -0.10121E-04  3552   0.227E-01    0.142E-02
DAV:  11    -0.151096724715E+03   -0.30117E-05   -0.13896E-04  2964   0.435E-02    0.117E-02
DAV:  12    -0.151096723430E+03    0.12852E-05   -0.25960E-05  2464   0.312E-02
  14 F= -.15109672E+03 E0= -.15109429E+03  d E =-.118134E-02
       N       E                     dE             d eps       ncg     rms          rms(c)
DAV:   1    -0.151096099531E+03    0.62518E-03   -0.58151E-01  2864   0.329E+00    0.103E-01
DAV:   2    -0.151097295883E+03   -0.11964E-02   -0.13261E-02  3216   0.457E-01    0.545E-02
DAV:   3    -0.151097242674E+03    0.53209E-04   -0.19814E-04  3376   0.678E-02    0.385E-02
DAV:   4    -0.151097200784E+03    0.41890E-04   -0.13187E-04  3256   0.606E-02    0.169E-02
DAV:   5    -0.151097188046E+03    0.12738E-04   -0.37494E-05  2956   0.480E-02    0.145E-02
DAV:   6    -0.151097178697E+03    0.93485E-05   -0.40085E-05  2712   0.457E-02
  15 F= -.15109718E+03 E0= -.15109475E+03  d E =-.163661E-02
       N       E                     dE             d eps       ncg     rms          rms(c)
DAV:   1    -0.151096843505E+03    0.34454E-03   -0.10728E+00  2920   0.446E+00    0.132E-01
DAV:   2    -0.151099099232E+03   -0.22557E-02   -0.23933E-02  3128   0.600E-01    0.715E-02
DAV:   3    -0.151098986297E+03    0.11293E-03   -0.20323E-04  3392   0.665E-02    0.474E-02
DAV:   4    -0.151098905485E+03    0.80813E-04   -0.22292E-04  3336   0.833E-02    0.112E-02
DAV:   5    -0.151098910058E+03   -0.45729E-05   -0.86786E-05  3164   0.364E-02    0.112E-02
DAV:   6    -0.151098907351E+03    0.27063E-05   -0.10690E-05  1708   0.142E-02
  16 F= -.15109891E+03 E0= -.15109649E+03  d E =-.172865E-02
       N       E                     dE             d eps       ncg     rms          rms(c)
DAV:   1    -0.151083400216E+03    0.15510E-01   -0.96500E+00  2912   0.134E+01    0.394E-01
DAV:   2    -0.151103786336E+03   -0.20386E-01   -0.21740E-01  3128   0.181E+00    0.223E-01
DAV:   3    -0.151102639367E+03    0.11470E-02   -0.18523E-03  3360   0.204E-01    0.146E-01
DAV:   4    -0.151101709433E+03    0.92993E-03   -0.17992E-03  3336   0.266E-01    0.385E-02
DAV:   5    -0.151101631864E+03    0.77570E-04   -0.10003E-03  3284   0.159E-01    0.317E-02
DAV:   6    -0.151101553383E+03    0.78480E-04   -0.12343E-04  3328   0.620E-02    0.178E-02
DAV:   7    -0.151101416478E+03    0.13691E-03   -0.25567E-05  2376   0.891E-02    0.100E-02
DAV:   8    -0.151101266980E+03    0.14950E-03   -0.56774E-05  3192   0.116E-01    0.116E-02
DAV:   9    -0.151100995815E+03    0.27117E-03   -0.16317E-04  4176   0.285E-01    0.186E-02
DAV:  10    -0.151100789164E+03    0.20665E-03   -0.36650E-04  4300   0.359E-01    0.191E-02
DAV:  11    -0.151100739050E+03    0.50114E-04   -0.51672E-04  3836   0.300E-01    0.106E-02
DAV:  12    -0.151100783505E+03   -0.44455E-04   -0.50173E-04  3112   0.756E-02    0.223E-02
DAV:  13    -0.151100784890E+03   -0.13849E-05   -0.10437E-05  1960   0.125E-02
  17 F= -.15110078E+03 E0= -.15109846E+03  d E =-.360619E-02
       N       E                     dE             d eps       ncg     rms          rms(c)
DAV:   1    -0.151100468574E+03    0.31493E-03   -0.21320E-01  2984   0.199E+00    0.634E-02
DAV:   2    -0.151100898839E+03   -0.43026E-03   -0.47602E-03  3140   0.268E-01    0.338E-02
DAV:   3    -0.151100869630E+03    0.29209E-04   -0.44302E-05  3088   0.332E-02    0.215E-02
DAV:   4    -0.151100847102E+03    0.22528E-04   -0.44661E-05  3128   0.384E-02    0.605E-03
DAV:   5    -0.151100845443E+03    0.16594E-05   -0.22873E-05  2416   0.249E-02    0.506E-03
DAV:   6    -0.151100843462E+03    0.19806E-05   -0.46227E-06  1676   0.133E-02
  18 F= -.15110084E+03 E0= -.15109851E+03  d E =-.366476E-02
       N       E                     dE             d eps       ncg     rms          rms(c)
DAV:   1    -0.151100611659E+03    0.23378E-03   -0.62169E-01  2904   0.341E+00    0.102E-01
DAV:   2    -0.151101935722E+03   -0.13241E-02   -0.14017E-02  3096   0.460E-01    0.542E-02
DAV:   3    -0.151101881015E+03    0.54706E-04   -0.14361E-04  3328   0.530E-02    0.368E-02
DAV:   4    -0.151101844655E+03    0.36361E-04   -0.11592E-04  3220   0.522E-02    0.128E-02
DAV:   5    -0.151101844552E+03    0.10292E-06   -0.33934E-05  2736   0.287E-02    0.106E-02
DAV:   6    -0.151101844379E+03    0.17263E-06   -0.22837E-05  2264   0.256E-02
  19 F= -.15110184E+03 E0= -.15109951E+03  d E =-.100092E-02
       N       E                     dE             d eps       ncg     rms          rms(c)
DAV:   1    -0.151092751307E+03    0.90932E-02   -0.55883E+00  2896   0.102E+01    0.307E-01
DAV:   2    -0.151104760300E+03   -0.12009E-01   -0.12691E-01  3052   0.138E+00    0.164E-01
DAV:   3    -0.151104253381E+03    0.50692E-03   -0.12058E-03  3324   0.155E-01    0.108E-01
DAV:   4    -0.151103935749E+03    0.31763E-03   -0.97302E-04  3304   0.155E-01    0.337E-02
DAV:   5    -0.151103944961E+03   -0.92114E-05   -0.32689E-04  3248   0.768E-02    0.260E-02
DAV:   6    -0.151103948242E+03   -0.32813E-05   -0.10442E-04  3268   0.457E-02    0.167E-02
DAV:   7    -0.151103946051E+03    0.21912E-05   -0.10899E-05  1740   0.143E-02
  20 F= -.15110395E+03 E0= -.15110161E+03  d E =-.310259E-02
       N       E                     dE             d eps       ncg     rms          rms(c)
DAV:   1    -0.151058505625E+03    0.45443E-01   -0.22352E+01  2896   0.205E+01    0.620E-01
DAV:   2    -0.151107505653E+03   -0.49000E-01   -0.51974E-01  3068   0.278E+00    0.344E-01
DAV:   3    -0.151105272251E+03    0.22334E-02   -0.52831E-03  3320   0.323E-01    0.222E-01
DAV:   4    -0.151103971902E+03    0.13003E-02   -0.35751E-03  3288   0.290E-01    0.733E-02
DAV:   5    -0.151103961385E+03    0.10516E-04   -0.13814E-03  3208   0.153E-01    0.459E-02
DAV:   6    -0.151103971359E+03   -0.99733E-05   -0.29763E-04  3272   0.697E-02    0.330E-02
DAV:   7    -0.151103961696E+03    0.96624E-05   -0.35554E-05  2516   0.248E-02
  21 F= -.15110396E+03 E0= -.15110162E+03  d E =-.311823E-02
       N       E                     dE             d eps       ncg     rms          rms(c)
DAV:   1    -0.151094211730E+03    0.97596E-02   -0.52871E+00  2888   0.992E+00    0.293E-01
DAV:   2    -0.151105398897E+03   -0.11187E-01   -0.11823E-01  3060   0.134E+00    0.158E-01
DAV:   3    -0.151104943323E+03    0.45557E-03   -0.11770E-03  3332   0.150E-01    0.108E-01
DAV:   4    -0.151104647187E+03    0.29614E-03   -0.11484E-03  3260   0.163E-01    0.379E-02
DAV:   5    -0.151104645968E+03    0.12188E-05   -0.32079E-04  3248   0.785E-02    0.319E-02
DAV:   6    -0.151104645227E+03    0.74153E-06   -0.18008E-04  3276   0.631E-02    0.168E-02
DAV:   7    -0.151104644515E+03    0.71139E-06   -0.21788E-05  2144   0.187E-02
  22 F= -.15110464E+03 E0= -.15110232E+03  d E =-.380105E-02
       N       E                     dE             d eps       ncg     rms          rms(c)
DAV:   1    -0.151104681910E+03   -0.36684E-04   -0.12650E+00  2856   0.486E+00    0.144E-01
DAV:   2    -0.151107168304E+03   -0.24864E-02   -0.27020E-02  3196   0.652E-01    0.777E-02
DAV:   3    -0.151107050668E+03    0.11764E-03   -0.29971E-04  3392   0.810E-02    0.517E-02
DAV:   4    -0.151106947578E+03    0.10309E-03   -0.32749E-04  3312   0.101E-01    0.209E-02
DAV:   5    -0.151106940242E+03    0.73359E-05   -0.12484E-04  3240   0.569E-02    0.219E-02
DAV:   6    -0.151106927023E+03    0.13220E-04   -0.41162E-05  2896   0.347E-02    0.114E-02
DAV:   7    -0.151106908161E+03    0.18862E-04   -0.37211E-06  1996   0.391E-02    0.750E-03
DAV:   8    -0.151106885265E+03    0.22895E-04   -0.12589E-05  2308   0.551E-02    0.592E-03
DAV:   9    -0.151106858603E+03    0.26663E-04   -0.12650E-05  2252   0.723E-02    0.636E-03
DAV:  10    -0.151106803784E+03    0.54819E-04   -0.92619E-05  3396   0.222E-01    0.834E-03
DAV:  11    -0.151106809367E+03   -0.55835E-05   -0.15896E-04  3044   0.876E-02    0.147E-02
DAV:  12    -0.151106810516E+03   -0.11485E-05   -0.47370E-05  2788   0.403E-02
  23 F= -.15110681E+03 E0= -.15110437E+03  d E =-.216600E-02
       N       E                     dE             d eps       ncg     rms          rms(c)
DAV:   1    -0.151105746051E+03    0.10633E-02   -0.96386E-01  2856   0.425E+00    0.130E-01
DAV:   2    -0.151107636437E+03   -0.18904E-02   -0.20816E-02  3196   0.576E-01    0.668E-02
DAV:   3    -0.151107545079E+03    0.91357E-04   -0.23689E-04  3392   0.741E-02    0.451E-02
DAV:   4    -0.151107459904E+03    0.85176E-04   -0.27165E-04  3352   0.101E-01    0.200E-02
DAV:   5    -0.151107451788E+03    0.81161E-05   -0.12049E-04  3200   0.563E-02    0.228E-02
DAV:   6    -0.151107439174E+03    0.12614E-04   -0.34408E-05  2776   0.295E-02    0.127E-02
DAV:   7    -0.151107415823E+03    0.23351E-04   -0.69644E-06  2056   0.420E-02    0.748E-03
DAV:   8    -0.151107392392E+03    0.23431E-04   -0.25841E-05  2556   0.583E-02    0.922E-03
DAV:   9    -0.151107367887E+03    0.24505E-04   -0.17712E-05  2316   0.684E-02    0.113E-02
DAV:  10    -0.151107315466E+03    0.52421E-04   -0.12778E-04  4300   0.206E-01    0.155E-02
DAV:  11    -0.151107328959E+03   -0.13493E-04   -0.14650E-04  2860   0.349E-02    0.256E-02
DAV:  12    -0.151107332603E+03   -0.36441E-05   -0.44353E-06  2004   0.535E-02
  24 F= -.15110733E+03 E0= -.15110479E+03  d E =-.268809E-02
       N       E                     dE             d eps       ncg     rms          rms(c)
DAV:   1    -0.151106797150E+03    0.53181E-03   -0.10861E+00  2972   0.440E+00    0.143E-01
DAV:   2    -0.151108818180E+03   -0.20210E-02   -0.23914E-02  3268   0.615E-01    0.959E-02
DAV:   3    -0.151108626657E+03    0.19152E-03   -0.57894E-04  3396   0.128E-01    0.615E-02
DAV:   4    -0.151108514271E+03    0.11239E-03   -0.35140E-04  3428   0.108E-01    0.299E-02
DAV:   5    -0.151108467266E+03    0.47006E-04   -0.10480E-04  3268   0.796E-02    0.172E-02
DAV:   6    -0.151108445598E+03    0.21668E-04   -0.81540E-05  3168   0.718E-02    0.815E-03
DAV:   7    -0.151108439324E+03    0.62738E-05   -0.42345E-05  2648   0.362E-02
  25 F= -.15110844E+03 E0= -.15110584E+03  d E =-.110672E-02
       N       E                     dE             d eps       ncg     rms          rms(c)
DAV:   1    -0.151106573983E+03    0.18716E-02   -0.11795E+00  2912   0.459E+00    0.134E-01
DAV:   2    -0.151108789239E+03   -0.22153E-02   -0.24551E-02  3268   0.618E-01    0.812E-02
DAV:   3    -0.151108613665E+03    0.17557E-03   -0.23862E-04  3416   0.959E-02    0.555E-02
DAV:   4    -0.151108416854E+03    0.19681E-03   -0.47086E-04  3824   0.174E-01    0.210E-02
DAV:   5    -0.151108421750E+03   -0.48961E-05   -0.33236E-04  3116   0.820E-02    0.264E-02
DAV:   6    -0.151108422104E+03   -0.35371E-06   -0.29728E-05  2436   0.204E-02
  26 F= -.15110842E+03 E0= -.15110578E+03  d E =-.108950E-02
       N       E                     dE             d eps       ncg     rms          rms(c)
DAV:   1    -0.151108260879E+03    0.16087E-03   -0.16438E-01  2936   0.171E+00    0.480E-02
DAV:   2    -0.151108546769E+03   -0.28589E-03   -0.33678E-03  3228   0.228E-01    0.342E-02
DAV:   3    -0.151108517630E+03    0.29138E-04   -0.50750E-05  3064   0.363E-02    0.214E-02
DAV:   4    -0.151108488065E+03    0.29566E-04   -0.23985E-05  2492   0.399E-02    0.713E-03
DAV:   5    -0.151108479426E+03    0.86387E-05   -0.22590E-05  2344   0.356E-02    0.596E-03
DAV:   6    -0.151108470153E+03    0.92733E-05   -0.67432E-06  1996   0.369E-02
  27 F= -.15110847E+03 E0= -.15110585E+03  d E =-.113755E-02
       N       E                     dE             d eps       ncg     rms          rms(c)
DAV:   1    -0.151108389625E+03    0.89802E-04   -0.49515E-02  2984   0.941E-01    0.286E-02
DAV:   2    -0.151108491203E+03   -0.10158E-03   -0.11451E-03  3276   0.132E-01    0.193E-02
DAV:   3    -0.151108482539E+03    0.86647E-05   -0.12095E-05  2032   0.192E-02    0.131E-02
DAV:   4    -0.151108475695E+03    0.68441E-05   -0.38696E-05  2928   0.338E-02    0.658E-03
DAV:   5    -0.151108475039E+03    0.65532E-06   -0.88473E-06  1640   0.143E-02    0.615E-03
DAV:   6    -0.151108473878E+03    0.11617E-05   -0.29633E-06  1636   0.955E-03
  28 F= -.15110847E+03 E0= -.15110586E+03  d E =-.114127E-02
       N       E                     dE             d eps       ncg     rms          rms(c)
DAV:   1    -0.151108556229E+03   -0.81190E-04   -0.23398E-01  2936   0.207E+00    0.621E-02
DAV:   2    -0.151109014079E+03   -0.45785E-03   -0.52440E-03  3224   0.287E-01    0.366E-02
DAV:   3    -0.151108978610E+03    0.35469E-04   -0.60332E-05  3364   0.375E-02    0.262E-02
DAV:   4    -0.151108942926E+03    0.35685E-04   -0.73389E-05  3196   0.547E-02    0.932E-03
DAV:   5    -0.151108934314E+03    0.86120E-05   -0.40803E-05  2904   0.352E-02    0.919E-03
DAV:   6    -0.151108931097E+03    0.32165E-05   -0.10150E-05  1684   0.142E-02
  29 F= -.15110893E+03 E0= -.15110637E+03  d E =-.457220E-03
       N       E                     dE             d eps       ncg     rms          rms(c)
DAV:   1    -0.151108789931E+03    0.14438E-03   -0.13380E-01  2952   0.157E+00    0.477E-02
DAV:   2    -0.151109048349E+03   -0.25842E-03   -0.30204E-03  3224   0.218E-01    0.275E-02
DAV:   3    -0.151109022319E+03    0.26030E-04   -0.31178E-05  2824   0.324E-02    0.197E-02
DAV:   4    -0.151108987433E+03    0.34886E-04   -0.46793E-05  2900   0.554E-02    0.704E-03
DAV:   5    -0.151108975119E+03    0.12314E-04   -0.39324E-05  2944   0.390E-02    0.798E-03
DAV:   6    -0.151108972344E+03    0.27753E-05   -0.12545E-05  1732   0.150E-02
  30 F= -.15110897E+03 E0= -.15110646E+03  d E =-.498466E-03
       N       E                     dE             d eps       ncg     rms          rms(c)
DAV:   1    -0.151109067449E+03   -0.92330E-04   -0.11520E-01  2920   0.142E+00    0.433E-02
DAV:   2    -0.151109257257E+03   -0.18981E-03   -0.24136E-03  3276   0.195E-01    0.263E-02
DAV:   3    -0.151109238862E+03    0.18395E-04   -0.37174E-05  3192   0.318E-02    0.193E-02
DAV:   4    -0.151109223536E+03    0.15326E-04   -0.47656E-05  2976   0.418E-02    0.757E-03
DAV:   5    -0.151109221350E+03    0.21864E-05   -0.22977E-05  2360   0.233E-02    0.724E-03
DAV:   6    -0.151109219445E+03    0.19046E-05   -0.47850E-06  1688   0.104E-02
  31 F= -.15110922E+03 E0= -.15110675E+03  d E =-.247102E-03
       N       E                     dE             d eps       ncg     rms          rms(c)
DAV:   1    -0.151109213646E+03    0.77039E-05   -0.12945E-02  2928   0.479E-01    0.137E-02
DAV:   2    -0.151109234564E+03   -0.20918E-04   -0.26481E-04  3328   0.651E-02    0.964E-03
DAV:   3    -0.151109232105E+03    0.24592E-05   -0.40461E-06  1788   0.116E-02    0.678E-03
DAV:   4    -0.151109229862E+03    0.22428E-05   -0.53951E-06  1916   0.155E-02    0.261E-03
DAV:   5    -0.151109229495E+03    0.36683E-06   -0.39212E-06  1640   0.936E-03    0.224E-03
DAV:   6    -0.151109229192E+03    0.30302E-06   -0.63335E-07  1596   0.467E-03
  32 F= -.15110923E+03 E0= -.15110678E+03  d E =-.256849E-03
       N       E                     dE             d eps       ncg     rms          rms(c)
DAV:   1    -0.151109410197E+03   -0.18070E-03   -0.49709E-02  2936   0.957E-01    0.364E-02
DAV:   2    -0.151109492382E+03   -0.82185E-04   -0.13185E-03  3264   0.147E-01    0.236E-02
DAV:   3    -0.151109472943E+03    0.19438E-04   -0.41595E-05  2840   0.316E-02    0.174E-02
DAV:   4    -0.151109463115E+03    0.98284E-05   -0.17144E-05  1980   0.216E-02    0.108E-02
DAV:   5    -0.151109444897E+03    0.18218E-04   -0.16823E-05  2336   0.355E-02    0.408E-03
DAV:   6    -0.151109437125E+03    0.77720E-05   -0.16970E-05  2160   0.252E-02
  33 F= -.15110944E+03 E0= -.15110697E+03  d E =-.207932E-03
