 vasp.5.3.5 31Mar14 (build Apr 08 2024 10:12:10) complex                        
  
 executed on             LinuxIFC date 2024.07.29  17:00:43
 running on    8 total cores
 distrk:  each k-point on    8 cores,    1 groups
 distr:  one band on NCORES_PER_BAND=   4 cores,    2 groups


--------------------------------------------------------------------------------------------------------


 INCAR:
 POTCAR:    PAW_PBE O 08Apr2002                   
 POTCAR:    PAW_PBE Mg 13Apr2007                  
 POTCAR:    PAW_PBE Al 04Jan2001                  
 POTCAR:    PAW_PBE O 08Apr2002                   
   VRHFIN =O: s2p4                                                              
   LEXCH  = PE                                                                  
   EATOM  =   432.3788 eV,   31.7789 Ry                                         
                                                                                
   TITEL  = PAW_PBE O 08Apr2002                                                 
   LULTRA =        F    use ultrasoft PP ?                                      
   IUNSCR =        1    unscreen: 0-lin 1-nonlin 2-no                           
   RPACOR =    1.200    partial core radius                                     
   POMASS =   16.000; ZVAL   =    6.000    mass and valenz                      
   RCORE  =    1.520    outmost cutoff radius                                   
   RWIGS  =    1.550; RWIGS  =    0.820    wigner-seitz radius (au A)           
   ENMAX  =  400.000; ENMIN  =  300.000 eV                                      
   ICORE  =        2    local potential                                         
   LCOR   =        T    correct aug charges                                     
   LPAW   =        T    paw PP                                                  
   EAUG   =  605.392                                                            
   DEXC   =    0.000                                                            
   RMAX   =    1.553    core radius for proj-oper                               
   RAUG   =    1.300    factor for augmentation sphere                          
   RDEP   =    1.550    radius for radial grids                                 
   RDEPT  =    1.329    core radius for aug-charge                              
                                                                                
   Atomic configuration                                                         
    4 entries                                                                   
     n  l   j            E        occ.                                          
     1  0  0.50      -514.6923   2.0000                                         
     2  0  0.50       -23.9615   2.0000                                         
     2  1  0.50        -9.0305   4.0000                                         
     3  2  1.50        -9.5241   0.0000                                         
   Description                                                                  
     l       E           TYP  RCUT    TYP  RCUT                                 
     0    -23.9615318     23  1.200                                             
     0     -9.5240782     23  1.200                                             
     1     -9.0304911     23  1.520                                             
     1      8.1634956     23  1.520                                             
     2     -9.5240782      7  1.500                                             
  local pseudopotential read in
  partial core-charges read in
  partial kinetic energy density read in
  kinetic energy density of atom read in
  atomic valenz-charges read in
  non local Contribution for L=           0  read in
    real space projection operators read in
  non local Contribution for L=           0  read in
    real space projection operators read in
  non local Contribution for L=           1  read in
    real space projection operators read in
  non local Contribution for L=           1  read in
    real space projection operators read in
    PAW grid and wavefunctions read in
 
   number of l-projection  operators is LMAX  =           4
   number of lm-projection operators is LMMAX =           8
 
 POTCAR:    PAW_PBE Mg 13Apr2007                  
   VRHFIN =Mg: s2p0                                                             
   LEXCH  = PE                                                                  
   EATOM  =    23.0369 eV,    1.6932 Ry                                         
                                                                                
   TITEL  = PAW_PBE Mg 13Apr2007                                                
   LULTRA =        F    use ultrasoft PP ?                                      
   IUNSCR =        1    unscreen: 0-lin 1-nonlin 2-no                           
   RPACOR =    1.500    partial core radius                                     
   POMASS =   24.305; ZVAL   =    2.000    mass and valenz                      
   RCORE  =    2.000    outmost cutoff radius                                   
   RWIGS  =    2.880; RWIGS  =    1.524    wigner-seitz radius (au A)           
   ENMAX  =  200.000; ENMIN  =  100.000 eV                                      
   RCLOC  =    1.506    cutoff for local pot                                    
   LCOR   =        T    correct aug charges                                     
   LPAW   =        T    paw PP                                                  
   EAUG   =  454.734                                                            
   DEXC   =    0.000                                                            
   RMAX   =    2.045    core radius for proj-oper                               
   RAUG   =    1.300    factor for augmentation sphere                          
   RDEP   =    2.025    radius for radial grids                                 
   RDEPT  =    1.942    core radius for aug-charge                              
                                                                                
   Atomic configuration                                                         
    6 entries                                                                   
     n  l   j            E        occ.                                          
     1  0  0.50     -1259.6230   2.0000                                         
     2  0  0.50       -79.8442   2.0000                                         
     2  1  1.50       -46.6121   6.0000                                         
     3  0  0.50        -4.7055   2.0000                                         
     3  1  0.50        -1.3660   0.0000                                         
     3  2  1.50        -1.3606   0.0000                                         
   Description                                                                  
     l       E           TYP  RCUT    TYP  RCUT                                 
     0     -4.7054661     23  2.000                                             
     0     27.2116520     23  2.000                                             
     1      1.3605826     23  2.000                                             
     1     27.2116520     23  2.000                                             
     2     -1.3605826     23  2.000                                             
  local pseudopotential read in
  partial core-charges read in
  partial kinetic energy density read in
  atomic valenz-charges read in
  non local Contribution for L=           0  read in
    real space projection operators read in
  non local Contribution for L=           0  read in
    real space projection operators read in
  non local Contribution for L=           1  read in
    real space projection operators read in
  non local Contribution for L=           1  read in
    real space projection operators read in
  non local Contribution for L=           2  read in
    real space projection operators read in
    PAW grid and wavefunctions read in
 
   number of l-projection  operators is LMAX  =           5
   number of lm-projection operators is LMMAX =          13
 
 POTCAR:    PAW_PBE Al 04Jan2001                  
   VRHFIN =Al: s2p1                                                             
   LEXCH  = PE                                                                  
   EATOM  =    53.5387 eV,    3.9350 Ry                                         
                                                                                
   TITEL  = PAW_PBE Al 04Jan2001                                                
   LULTRA =        F    use ultrasoft PP ?                                      
   IUNSCR =        1    unscreen: 0-lin 1-nonlin 2-no                           
   RPACOR =    1.500    partial core radius                                     
   POMASS =   26.981; ZVAL   =    3.000    mass and valenz                      
   RCORE  =    1.900    outmost cutoff radius                                   
   RWIGS  =    2.650; RWIGS  =    1.402    wigner-seitz radius (au A)           
   ENMAX  =  240.300; ENMIN  =  180.225 eV                                      
   ICORE  =        2    local potential                                         
   LCOR   =        T    correct aug charges                                     
   LPAW   =        T    paw PP                                                  
   EAUG   =  291.052                                                            
   DEXC   =    0.000                                                            
   RMAX   =    1.939    core radius for proj-oper                               
   RAUG   =    1.300    factor for augmentation sphere                          
   RDEP   =    1.966    radius for radial grids                                 
   RDEPT  =    1.856    core radius for aug-charge                              
                                                                                
   Atomic configuration                                                         
    6 entries                                                                   
     n  l   j            E        occ.                                          
     1  0  0.50     -1511.1048   2.0000                                         
     2  0  0.50      -108.1629   2.0000                                         
     2  1  1.50       -69.6402   6.0000                                         
     3  0  0.50        -7.7528   2.0000                                         
     3  1  1.50        -2.7121   1.0000                                         
     3  2  2.50        -2.7212   0.0000                                         
   Description                                                                  
     l       E           TYP  RCUT    TYP  RCUT                                 
     0     -7.7528455     23  1.900                                             
     0     -3.3096929     23  1.900                                             
     1     -2.7120682     23  1.900                                             
     1     13.6058260     23  1.900                                             
     2     -2.7211652      7  1.900                                             
  local pseudopotential read in
  partial core-charges read in
  partial kinetic energy density read in
  atomic valenz-charges read in
  non local Contribution for L=           0  read in
    real space projection operators read in
  non local Contribution for L=           0  read in
    real space projection operators read in
  non local Contribution for L=           1  read in
    real space projection operators read in
  non local Contribution for L=           1  read in
    real space projection operators read in
    PAW grid and wavefunctions read in
 
   number of l-projection  operators is LMAX  =           4
   number of lm-projection operators is LMMAX =           8
 

 ----------------------------------------------------------------------------- 
|                                                                             |
|  ADVICE TO THIS USER RUNNING 'VASP/VAMP'   (HEAR YOUR MASTER'S VOICE ...):  |
|                                                                             |
|      You have a (more or less) 'large supercell' and for larger cells       |
|      it might be more efficient to use real space projection opertators     |
|      So try LREAL= Auto  in the INCAR   file.                               |
|      Mind: At the moment your POTCAR file does not contain real space       |
|       projectors, and has to be modified,  BUT if you                       |
|      want to do an extremely  accurate calculation you might also keep the  |
|      reciprocal projection scheme          (i.e. LREAL=.FALSE.)             |
|                                                                             |
 ----------------------------------------------------------------------------- 

  PAW_PBE O 08Apr2002                   :
 energy of atom  1       EATOM= -432.3788
 kinetic energy error for atom=    0.0208 (will be added to EATOM!!)
  PAW_PBE Mg 13Apr2007                  :
 energy of atom  2       EATOM=  -23.0369
 kinetic energy error for atom=    0.0000 (will be added to EATOM!!)
  PAW_PBE Al 04Jan2001                  :
 energy of atom  3       EATOM=  -53.5387
 kinetic energy error for atom=    0.0002 (will be added to EATOM!!)
 
 
 POSCAR: Layer                                   
  positions in direct lattice
  velocities in cartesian coordinates
 exchange correlation table for  LEXCH =        8
   RHO(1)=    0.500       N(1)  =     2000
   RHO(2)=  100.500       N(2)  =     4000
 


--------------------------------------------------------------------------------------------------------


 ion  position               nearest neighbor table
   1  0.333  0.667  0.253-  12 2.14  12 2.14  12 2.14  23 2.27  23 2.27  23 2.27
   2  0.000  0.000  0.362-  19 2.12  19 2.12  19 2.12  16 2.12  16 2.12  16 2.12
   3  0.333  0.667  0.416-  16 2.12  16 2.12  16 2.12  13 2.12  13 2.12  13 2.12
   4  0.000  0.000  0.525-  17 2.12  17 2.12  17 2.12  20 2.12  20 2.12  20 2.12
   5  0.333  0.667  0.579-  14 2.12  14 2.12  14 2.12  17 2.12  17 2.12  17 2.12
   6  0.000  0.000  0.687-  18 2.12  18 2.12  18 2.12  21 2.12  21 2.12  21 2.12
   7  0.333  0.667  0.741-  15 2.12  15 2.12  15 2.12  18 2.12  18 2.12  18 2.12
   8  0.667  0.333  0.308-  12 2.12  12 2.12  12 2.12  19 2.12  19 2.12  19 2.12
   9  0.667  0.333  0.470-  13 2.12  13 2.12  13 2.12  20 2.12  20 2.12  20 2.12
  10  0.667  0.333  0.633-  21 2.12  21 2.12  21 2.12  14 2.12  14 2.12  14 2.12
  11  0.667  0.333  0.796-  15 2.14  15 2.14  15 2.14  26 2.27  26 2.27  26 2.27
  12  0.000  0.000  0.281-   8 2.12   8 2.12   8 2.12   1 2.14   1 2.14   1 2.14  23 2.77  19 3.03
                            19 3.03  19 3.03
  13  0.000  0.000  0.443-   9 2.12   9 2.12   9 2.12   3 2.12   3 2.12   3 2.12  16 3.03  16 3.03
                            16 3.03  20 3.03  20 3.03  20 3.03
  14  0.000  0.000  0.606-   5 2.12   5 2.12   5 2.12  10 2.12  10 2.12  10 2.12  21 3.03  21 3.03
                            21 3.03  17 3.03  17 3.03  17 3.03
  15  0.000  0.000  0.768-   7 2.12   7 2.12   7 2.12  11 2.14  11 2.14  11 2.14  26 2.77  18 3.03
                            18 3.03  18 3.03
  16  0.667  0.333  0.389-   3 2.12   3 2.12   3 2.12   2 2.12   2 2.12   2 2.12  19 3.03  19 3.03
                            19 3.03  13 3.03  13 3.03  13 3.03
  17  0.667  0.333  0.552-   4 2.12   4 2.12   4 2.12   5 2.12   5 2.12   5 2.12  14 3.03  14 3.03
                            14 3.03  20 3.03  20 3.03  20 3.03
  18  0.667  0.333  0.714-   6 2.12   6 2.12   6 2.12   7 2.12   7 2.12   7 2.12  15 3.03  15 3.03
                            15 3.03  21 3.03  21 3.03  21 3.03
  19  0.333  0.667  0.335-   2 2.12   2 2.12   2 2.12   8 2.12   8 2.12   8 2.12  12 3.03  12 3.03
                            12 3.03  16 3.03  16 3.03  16 3.03
  20  0.333  0.667  0.497-   4 2.12   4 2.12   4 2.12   9 2.12   9 2.12   9 2.12  13 3.03  13 3.03
                            13 3.03  17 3.03  17 3.03  17 3.03
  21  0.333  0.667  0.660-  10 2.12  10 2.12  10 2.12   6 2.12   6 2.12   6 2.12  18 3.03  18 3.03
                            18 3.03  14 3.03  14 3.03  14 3.03
  22  0.000  0.000  0.025-  25 2.90  25 2.90  25 2.90  27 2.90  27 2.90  27 2.90
  23  0.000  0.000  0.221-   1 2.27   1 2.27   1 2.27  12 2.77  24 2.80  24 2.80  24 2.80
  24  0.667  0.333  0.173-  23 2.80  23 2.80  23 2.80
  25  0.333  0.667  0.075-  22 2.90  22 2.90  22 2.90
  26  0.000  0.000  0.828-  11 2.27  11 2.27  11 2.27  15 2.77  28 2.80  28 2.80  28 2.80
  27  0.667  0.333  0.974-  22 2.90  22 2.90  22 2.90
  28  0.333  0.667  0.876-  26 2.80  26 2.80  26 2.80
 
  LATTYP: Found a hexagonal cell.
 ALAT       =     2.9737040142
 C/A-ratio  =    15.5082572010
  
  Lattice vectors:
  
 A1 = (   2.5753034102,  -1.4868516771,   0.0000000000)
 A2 = (   0.0000000000,   2.9737033542,   0.0000000000)
 A3 = (  -0.0000000000,   0.0000000000,  46.1169666920)


Analysis of symmetry for initial positions (statically):
=====================================================================
 Subroutine PRICEL returns:
 Original cell was already a primitive cell.
 

 Routine SETGRP: Setting up the symmetry group for a 
 hexagonal supercell.


 Subroutine GETGRP returns: Found 12 space group operations
 (whereof  6 operations were pure point group operations)
 out of a pool of 24 trial point group operations.


The static configuration has the point symmetry C_3v.
 The point group associated with its full space group is D_3d.


Analysis of symmetry for dynamics (positions and initial velocities):
=====================================================================
 Subroutine PRICEL returns:
 Original cell was already a primitive cell.
 

 Routine SETGRP: Setting up the symmetry group for a 
 hexagonal supercell.


 Subroutine GETGRP returns: Found 12 space group operations
 (whereof  6 operations were pure point group operations)
 out of a pool of 24 trial point group operations.


The dynamic configuration has the point symmetry C_3v.
 The point group associated with its full space group is D_3d.


Analysis of constrained symmetry for selective dynamics:
=====================================================================
 Subroutine PRICEL returns:
 Original cell was already a primitive cell.
 

 Routine SETGRP: Setting up the symmetry group for a 
 hexagonal supercell.


 Subroutine GETGRP returns: Found 12 space group operations
 (whereof  6 operations were pure point group operations)
 out of a pool of 24 trial point group operations.


The constrained configuration has the point symmetry C_3v.
 The point group associated with its full space group is D_3d.
 
 
 KPOINTS: K-Spacing Value to Generate K-Mesh: 0.02

Automatic generation of k-mesh.
Space group operators:
 irot       det(A)        alpha          n_x          n_y          n_z        tau_x        tau_y        tau_z
    1     1.000000     0.000000     1.000000     0.000000     0.000000     0.000000     0.000000     0.000000
    2     1.000000   120.000000     0.000000     0.000000    -1.000000     0.000000     0.000000     0.000000
    3     1.000000   120.000000    -0.000000     0.000000     1.000000     0.000000     0.000000     0.000000
    4    -1.000000   180.000000    -0.866025     0.500000    -0.000000     0.000000     0.000000     0.000000
    5    -1.000000   180.000000     0.000000     1.000000     0.000000     0.000000     0.000000     0.000000
    6    -1.000000   180.000000    -0.866025    -0.500000    -0.000000     0.000000     0.000000     0.000000
    7    -1.000000     0.000000     1.000000     0.000000     0.000000     0.000000     0.000000     0.049083
    8    -1.000000   120.000000     0.000000     0.000000    -1.000000     0.000000     0.000000     0.049083
    9    -1.000000   120.000000    -0.000000     0.000000     1.000000     0.000001     0.000000     0.049083
   10     1.000000   180.000000    -0.866025     0.500000    -0.000000     0.000001     0.000000     0.049083
   11     1.000000   180.000000     0.000000     1.000000     0.000000     0.000000     0.000000     0.049083
   12     1.000000   180.000000    -0.866025    -0.500000    -0.000000     0.000000     0.000000     0.049083
 
 Subroutine IBZKPT returns following result:
 ===========================================
 
 Found     21 irreducible k-points:
 
 Following reciprocal coordinates:
            Coordinates               Weight
  0.000000  0.000000  0.000000      1.000000
  0.076923  0.000000  0.000000      6.000000
  0.153846  0.000000 -0.000000      6.000000
  0.230769  0.000000 -0.000000      6.000000
  0.307692  0.000000 -0.000000      6.000000
  0.384615  0.000000 -0.000000      6.000000
  0.461538  0.000000 -0.000000      6.000000
  0.076923  0.076923 -0.000000      6.000000
  0.153846  0.076923 -0.000000     12.000000
  0.230769  0.076923 -0.000000     12.000000
  0.307692  0.076923  0.000000     12.000000
  0.384615  0.076923 -0.000000     12.000000
  0.461538  0.076923 -0.000000      6.000000
  0.153846  0.153846  0.000000      6.000000
  0.230769  0.153846 -0.000000     12.000000
  0.307692  0.153846 -0.000000     12.000000
  0.384615  0.153846  0.000000     12.000000
  0.230769  0.230769 -0.000000      6.000000
  0.307692  0.230769 -0.000000     12.000000
  0.384615  0.230769 -0.000000      6.000000
  0.307692  0.307692 -0.000000      6.000000
 
 Following cartesian coordinates:
            Coordinates               Weight
  0.000000  0.000000  0.000000      1.000000
  0.029870  0.000000  0.000000      6.000000
  0.059739  0.000000  0.000000      6.000000
  0.089609  0.000000  0.000000      6.000000
  0.119478  0.000000  0.000000      6.000000
  0.149348  0.000000  0.000000      6.000000
  0.179217  0.000000  0.000000      6.000000
  0.044804  0.025868  0.000000      6.000000
  0.074674  0.025868  0.000000     12.000000
  0.104543  0.025868  0.000000     12.000000
  0.134413  0.025868  0.000000     12.000000
  0.164282  0.025868  0.000000     12.000000
  0.194152  0.025868  0.000000      6.000000
  0.089609  0.051736  0.000000      6.000000
  0.119478  0.051736  0.000000     12.000000
  0.149348  0.051736  0.000000     12.000000
  0.179217  0.051736  0.000000     12.000000
  0.134413  0.077603  0.000000      6.000000
  0.164282  0.077603  0.000000     12.000000
  0.194152  0.077603  0.000000      6.000000
  0.179217  0.103471  0.000000      6.000000
 


--------------------------------------------------------------------------------------------------------




 Dimension of arrays:
   k-points           NKPTS =     21   k-points in BZ     NKDIM =     21   number of bands    NBANDS=     68
   number of dos      NEDOS =    301   number of ions     NIONS =     28
   non local maximal  LDIM  =      5   non local SUM 2l+1 LMDIM =     13
   total plane-waves  NPLWV = 201600
   max r-space proj   IRMAX =      1   max aug-charges    IRDMAX= 194166
   dimension x,y,z NGX =    24 NGY =   24 NGZ =  350
   dimension x,y,z NGXF=    48 NGYF=   48 NGZF=  700
   support grid    NGXF=    96 NGYF=   96 NGZF= 1400
   ions per type =              11  10   7
 NGX,Y,Z   is equivalent  to a cutoff of  13.42, 13.42, 12.62 a.u.
 NGXF,Y,Z  is equivalent  to a cutoff of  26.83, 26.83, 25.23 a.u.


 I would recommend the setting:
   dimension x,y,z NGX =    22 NGY =   22 NGZ =  343
 SYSTEM =  unknown system                          
 POSCAR =  Layer                                   

 Startparameter for this run:
   NWRITE =      2    write-flag & timer
   PREC   = accura    normal or accurate (medium, high low for compatibility)
   ISTART =      0    job   : 0-new  1-cont  2-samecut
   ICHARG =      2    charge: 1-file 2-atom 10-const
   ISPIN  =      1    spin polarized calculation?
   LNONCOLLINEAR =      F non collinear calculations
   LSORBIT =      F    spin-orbit coupling
   INIWAV =      1    electr: 0-lowe 1-rand  2-diag
   LASPH  =      F    aspherical Exc in radial PAW
   METAGGA=      F    non-selfconsistent MetaGGA calc.

 Electronic Relaxation 1
   ENCUT  =  520.0 eV  38.22 Ry    6.18 a.u.   5.53  5.53 85.75*2*pi/ulx,y,z
   ENINI  =  520.0     initial cutoff
   ENAUG  =  605.4 eV  augmentation charge cutoff
   NELM   =    100;   NELMIN=  6; NELMDL=  0     # of ELM steps 
   EDIFF  = 0.1E-04   stopping-criterion for ELM
   LREAL  =      F    real-space projection
   NLSPLINE    = F    spline interpolate recip. space projectors
   LCOMPAT=      F    compatible to vasp.4.4
   GGA_COMPAT  = T    GGA compatible to vasp.4.4-vasp.4.6
   LMAXPAW     = -100 max onsite density
   LMAXMIX     =    2 max onsite mixed and CHGCAR
   VOSKOWN=      0    Vosko Wilk Nusair interpolation
   ROPT   =    0.00000   0.00000   0.00000
 Ionic relaxation
   EDIFFG = -.2E-01   stopping-criterion for IOM
   NSW    =    500    number of steps for IOM
   NBLOCK =      1;   KBLOCK =    500    inner block; outer block 
   IBRION =      2    ionic relax: 0-MD 1-quasi-New 2-CG
   NFREE  =      1    steps in history (QN), initial steepest desc. (CG)
   ISIF   =      2    stress and relaxation
   IWAVPR =     11    prediction:  0-non 1-charg 2-wave 3-comb
   ISYM   =      2    0-nonsym 1-usesym 2-fastsym
   LCORR  =      T    Harris-Foulkes like correction to forces

   POTIM  = 0.5000    time-step for ionic-motion
   TEIN   =    0.0    initial temperature
   TEBEG  =    0.0;   TEEND  =   0.0 temperature during run
   SMASS  =  -3.00    Nose mass-parameter (am)
   estimated Nose-frequenzy (Omega)   =  0.10E-29 period in steps =****** mass=  -0.202E-27a.u.
   SCALEE = 1.0000    scale energy and forces
   NPACO  =    256;   APACO  = 16.0  distance and # of slots for P.C.
   PSTRESS=    0.0 pullay stress

  Mass of Ions in am
   POMASS =  16.00 24.30 26.98
  Ionic Valenz
   ZVAL   =   6.00  2.00  3.00
  Atomic Wigner-Seitz radii
   RWIGS  =  -1.00 -1.00 -1.00
  virtual crystal weights 
   VCA    =   1.00  1.00  1.00
   NELECT =     107.0000    total number of electrons
   NUPDOWN=      -1.0000    fix difference up-down

 DOS related values:
   EMIN   =  10.00;   EMAX   =-10.00  energy-range for DOS
   EFERMI =   0.00
   ISMEAR =     0;   SIGMA  =   0.05  broadening in eV -4-tet -1-fermi 0-gaus

 Electronic relaxation 2 (details)
   IALGO  =     38    algorithm
   LDIAG  =      T    sub-space diagonalisation (order eigenvalues)
   LSUBROT=      F    optimize rotation matrix (better conditioning)
   TURBO    =      0    0=normal 1=particle mesh
   IRESTART =      0    0=no restart 2=restart with 2 vectors
   NREBOOT  =      0    no. of reboots
   NMIN     =      0    reboot dimension
   EREF     =   0.00    reference energy to select bands
   IMIX   =      4    mixing-type and parameters
     AMIX     =   0.40;   BMIX     =  1.00
     AMIX_MAG =   1.60;   BMIX_MAG =  1.00
     AMIN     =   0.01
     WC   =   100.;   INIMIX=   1;  MIXPRE=   1;  MAXMIX= -45

 Intra band minimization:
   WEIMIN = 0.0010     energy-eigenvalue tresh-hold
   EBREAK =  0.37E-07  absolut break condition
   DEPER  =   0.30     relativ break condition  

   TIME   =   0.40     timestep for ELM

  volume/ion in A,a.u.               =      12.61        85.12
  Fermi-wavevector in a.u.,A,eV,Ry     =   1.099530  2.077811 16.448990  1.208967
  Thomas-Fermi vector in A             =   2.235926
 
 Write flags
   LWAVE  =      F    write WAVECAR
   LCHARG =      T    write CHGCAR
   LVTOT  =      F    write LOCPOT, total local potential
   LVHAR  =      F    write LOCPOT, Hartree potential only
   LELF   =      F    write electronic localiz. function (ELF)
   LORBIT =      0    0 simple, 1 ext, 2 COOP (PROOUT)


 Dipole corrections
   LMONO  =      F    monopole corrections only (constant potential shift)
   LDIPOL =      F    correct potential (dipole corrections)
   IDIPOL =      0    1-x, 2-y, 3-z, 4-all directions 
   EPSILON=  1.0000000 bulk dielectric constant

 Exchange correlation treatment:
   GGA     =    --    GGA type
   LEXCH   =     8    internal setting for exchange type
   VOSKOWN=      0    Vosko Wilk Nusair interpolation
   LHFCALC =     F    Hartree Fock is set to
   LHFONE  =     F    Hartree Fock one center treatment
   AEXX    =    0.0000 exact exchange contribution

 Linear response parameters
   LEPSILON=     F    determine dielectric tensor
   LRPA    =     F    only Hartree local field effects (RPA)
   LNABLA  =     F    use nabla operator in PAW spheres
   LVEL    =     F    velocity operator in full k-point grid
   LINTERFAST=   F  fast interpolation
   KINTER  =     0    interpolate to denser k-point grid
   CSHIFT  =0.1000    complex shift for real part using Kramers Kronig
   OMEGAMAX=  -1.0    maximum frequency
   DEG_THRESHOLD= 0.2000000E-02 threshold for treating states as degnerate
   RTIME   =    0.100 relaxation time in fs

 Orbital magnetization related:
   ORBITALMAG=     F  switch on orbital magnetization
   LCHIMAG   =     F  perturbation theory with respect to B field
   DQ        =  0.001000  dq finite difference perturbation B field



--------------------------------------------------------------------------------------------------------


 conjugate gradient relaxation of ions
   using selective dynamics as specified on POSCAR
 charge density and potential will be updated during run
 non-spin polarized calculation
 Variant of blocked Davidson
 Davidson routine will perform the subspace rotation
 perform sub-space diagonalisation
    after iterative eigenvector-optimisation
 modified Broyden-mixing scheme, WC =      100.0
 initial mixing is a Kerker type mixing with AMIX =  0.4000 and BMIX =      1.0000
 Hartree-type preconditioning will be used
 using additional bands           14
 reciprocal scheme for non local part
 use partial core corrections
 calculate Harris-corrections to forces 
   (improved forces if not selfconsistent)
 use gradient corrections 
 use of overlap-Matrix (Vanderbilt PP)
 Gauss-broadening in eV      SIGMA  =   0.05


--------------------------------------------------------------------------------------------------------


  energy-cutoff  :      520.00
  volume of cell :      353.17
      direct lattice vectors                 reciprocal lattice vectors
     2.575303410 -1.486851677  0.000000000     0.388303761  0.000000000  0.000000000
     0.000000000  2.973703354  0.000000000     0.194151881  0.336281021  0.000000000
    -0.000000000  0.000000000 46.116966692     0.000000000  0.000000000  0.021683993

  length of vectors
     2.973704014  2.973703354 46.116966692     0.388303761  0.388303847  0.021683993


 
 k-points in units of 2pi/SCALE and weight: K-Spacing Value to Generate K-Mesh: 0.02
   0.00000000  0.00000000  0.00000000       0.006
   0.02986952  0.00000000  0.00000000       0.036
   0.05973904  0.00000000  0.00000000       0.036
   0.08960856  0.00000000  0.00000000       0.036
   0.11947808  0.00000000  0.00000000       0.036
   0.14934760  0.00000000  0.00000000       0.036
   0.17921712  0.00000000  0.00000000       0.036
   0.04480428  0.02586777  0.00000000       0.036
   0.07467380  0.02586777  0.00000000       0.071
   0.10454332  0.02586777  0.00000000       0.071
   0.13441284  0.02586777  0.00000000       0.071
   0.16428236  0.02586777  0.00000000       0.071
   0.19415188  0.02586777  0.00000000       0.036
   0.08960856  0.05173554  0.00000000       0.036
   0.11947808  0.05173554  0.00000000       0.071
   0.14934760  0.05173554  0.00000000       0.071
   0.17921712  0.05173554  0.00000000       0.071
   0.13441284  0.07760331  0.00000000       0.036
   0.16428236  0.07760331  0.00000000       0.071
   0.19415188  0.07760331  0.00000000       0.036
   0.17921712  0.10347108  0.00000000       0.036
 
 k-points in reciprocal lattice and weights: K-Spacing Value to Generate K-Mesh: 0.02
   0.00000000  0.00000000  0.00000000       0.006
   0.07692308  0.00000000  0.00000000       0.036
   0.15384615  0.00000000 -0.00000000       0.036
   0.23076923  0.00000000 -0.00000000       0.036
   0.30769231  0.00000000 -0.00000000       0.036
   0.38461538  0.00000000 -0.00000000       0.036
   0.46153846  0.00000000 -0.00000000       0.036
   0.07692308  0.07692308 -0.00000000       0.036
   0.15384615  0.07692308 -0.00000000       0.071
   0.23076923  0.07692308 -0.00000000       0.071
   0.30769231  0.07692308  0.00000000       0.071
   0.38461538  0.07692308 -0.00000000       0.071
   0.46153846  0.07692308 -0.00000000       0.036
   0.15384615  0.15384615  0.00000000       0.036
   0.23076923  0.15384615 -0.00000000       0.071
   0.30769231  0.15384615 -0.00000000       0.071
   0.38461538  0.15384615  0.00000000       0.071
   0.23076923  0.23076923 -0.00000000       0.036
   0.30769231  0.23076923 -0.00000000       0.071
   0.38461538  0.23076923 -0.00000000       0.036
   0.30769231  0.30769231 -0.00000000       0.036
 
 position of ions in fractional coordinates (direct lattice) 
   0.33333300  0.66666700  0.25308428
   0.00000000  0.00000000  0.36207523
   0.33333300  0.66666700  0.41620916
   0.00000000  0.00000000  0.52454119
   0.33333300  0.66666700  0.57873739
   0.00000000  0.00000000  0.68700303
   0.33333300  0.66666700  0.74115440
   0.66666700  0.33333300  0.30792636
   0.66666700  0.33333300  0.47034493
   0.66666700  0.33333300  0.63287161
   0.66666700  0.33333300  0.79599699
   0.00000000  0.00000000  0.28090881
   0.00000000  0.00000000  0.44329306
   0.00000000  0.00000000  0.60578836
   0.00000000  0.00000000  0.76817251
   0.66666700  0.33333300  0.38915385
   0.66666700  0.33333300  0.55163599
   0.66666700  0.33333300  0.71405910
   0.33333300  0.66666700  0.33502683
   0.33333300  0.66666700  0.49744412
   0.33333300  0.66666700  0.65993166
   0.00000000  0.00000000  0.02454226
   0.00000000  0.00000000  0.22091486
   0.66666700  0.33333300  0.17288490
   0.33333300  0.66666700  0.07523275
   0.00000000  0.00000000  0.82816888
   0.66666700  0.33333300  0.97384998
   0.33333300  0.66666700  0.87619853
 
 position of ions in cartesian coordinates  (Angst):
   0.85843361  1.48685316 11.67147931
  -0.00000000  0.00000000 16.69781153
   0.85843361  1.48685316 19.19430390
  -0.00000000  0.00000000 24.19024844
   0.85843361  1.48685316 26.68961312
  -0.00000000  0.00000000 31.68249578
   0.85843361  1.48685316 34.17979263
   1.71686980 -0.00000149 14.20062979
   1.71686980 -0.00000149 21.69088148
   1.71686980 -0.00000149 29.18611890
   1.71686980 -0.00000149 36.70896664
  -0.00000000  0.00000000 12.95466240
  -0.00000000  0.00000000 20.44333128
  -0.00000000  0.00000000 27.93712154
  -0.00000000  0.00000000 35.42578588
   1.71686980 -0.00000149 17.94659515
   1.71686980 -0.00000149 25.43977854
   1.71686980 -0.00000149 32.93023955
   0.85843361  1.48685316 15.45042125
   0.85843361  1.48685316 22.94061370
   0.85843361  1.48685316 30.43404641
  -0.00000000  0.00000000  1.13181451
  -0.00000000  0.00000000 10.18792307
   1.71686980 -0.00000149  7.97292699
   0.85843361  1.48685316  3.46950607
  -0.00000000  0.00000000 38.19263684
   1.71686980 -0.00000149 44.91100686
   0.85843361  1.48685316 40.40761855
 


--------------------------------------------------------------------------------------------------------


 k-point  1 :   0.0000 0.0000 0.0000  plane waves:    9651
 k-point  2 :   0.0769 0.0000 0.0000  plane waves:    9649
 k-point  3 :   0.1538 0.0000-0.0000  plane waves:    9625
 k-point  4 :   0.2308 0.0000-0.0000  plane waves:    9548
 k-point  5 :   0.3077 0.0000-0.0000  plane waves:    9490
 k-point  6 :   0.3846 0.0000-0.0000  plane waves:    9464
 k-point  7 :   0.4615 0.0000-0.0000  plane waves:    9406
 k-point  8 :   0.0769 0.0769-0.0000  plane waves:    9629
 k-point  9 :   0.1538 0.0769-0.0000  plane waves:    9575
 k-point 10 :   0.2308 0.0769-0.0000  plane waves:    9527
 k-point 11 :   0.3077 0.0769 0.0000  plane waves:    9500
 k-point 12 :   0.3846 0.0769-0.0000  plane waves:    9444
 k-point 13 :   0.4615 0.0769-0.0000  plane waves:    9394
 k-point 14 :   0.1538 0.1538 0.0000  plane waves:    9523
 k-point 15 :   0.2308 0.1538-0.0000  plane waves:    9523
 k-point 16 :   0.3077 0.1538-0.0000  plane waves:    9489
 k-point 17 :   0.3846 0.1538 0.0000  plane waves:    9445
 k-point 18 :   0.2308 0.2308-0.0000  plane waves:    9499
 k-point 19 :   0.3077 0.2308-0.0000  plane waves:    9476
 k-point 20 :   0.3846 0.2308-0.0000  plane waves:    9488
 k-point 21 :   0.3077 0.3077-0.0000  plane waves:    9512

 maximum and minimum number of plane-waves per node :      2424     2341

 maximum number of plane-waves:      9651
 maximum index in each direction: 
   IXMAX=    5   IYMAX=    5   IZMAX=   85
   IXMIN=   -5   IYMIN=   -5   IZMIN=  -85

 NGX is ok and might be reduce to  22
 NGY is ok and might be reduce to  22
 NGZ is ok and might be reduce to 342

 parallel 3D FFT for wavefunctions:
    minimum data exchange during FFTs selected (reduces bandwidth)
 parallel 3D FFT for charge:
    minimum data exchange during FFTs selected (reduces bandwidth)


 total amount of memory used by VASP on root node   160079. kBytes
========================================================================

   base      :      30000. kBytes
   nonl-proj :      16968. kBytes
   fftplans  :      60349. kBytes
   grid      :      24192. kBytes
   one-center:         56. kBytes
   wavefun   :      28514. kBytes
 
     INWAV:  cpu time    0.00: real time    0.00
 Broyden mixing: mesh for mixing (old mesh)
   NGX = 11   NGY = 11   NGZ =171
  (NGX  = 48   NGY  = 48   NGZ  =700)
  gives a total of  20691 points

 initial charge density was supplied:
 charge density of overlapping atoms calculated
 number of electron     107.0000000 magnetization 
 keeping initial charge density in first step


--------------------------------------------------------------------------------------------------------


 Maximum index for augmentation-charges        23321 (set IRDMAX)


--------------------------------------------------------------------------------------------------------


 First call to EWALD:  gamma=   0.251
 Maximum number of real-space cells 7x 7x 1
 Maximum number of reciprocal cells 1x 1x15

 FEWALD executed in parallel
    FEWALD:  cpu time    0.00: real time    0.00


----------------------------------------- Iteration    1(   1)  ---------------------------------------


    POTLOK:  cpu time    0.11: real time    0.11
    SETDIJ:  cpu time    0.11: real time    0.11
     EDDAV:  cpu time    5.04: real time    5.05
       DOS:  cpu time    0.00: real time    0.00
    --------------------------------------------
      LOOP:  cpu time    5.26: real time    5.27

 eigenvalue-minimisations  :  2872
 total energy-change (2. order) : 0.5856718E+03  (-0.4802271E+04)
 number of electron     107.0000000 magnetization 
 augmentation part      107.0000000 magnetization 

 Free energy of the ion-electron system (eV)
  ---------------------------------------------------
  alpha Z        PSCENC =       142.98314856
  Ewald energy   TEWEN  =     23758.40366751
  -Hartree energ DENC   =    -29324.24774687
  -exchange      EXHF   =         0.00000000
  -V(xc)+E(xc)   XCENC  =      -363.20679836
  PAW double counting   =      4928.51229836    -4205.98855578
  entropy T*S    EENTRO =        -0.00368237
  eigenvalues    EBANDS =       288.14382307
  atomic energy  EATOM  =      5361.07568887
  ---------------------------------------------------
  free energy    TOTEN  =       585.67184299 eV

  energy without entropy =      585.67552536  energy(sigma->0) =      585.67368418


--------------------------------------------------------------------------------------------------------




----------------------------------------- Iteration    1(   2)  ---------------------------------------


     EDDAV:  cpu time    6.00: real time    6.00
       DOS:  cpu time    0.00: real time    0.00
    --------------------------------------------
      LOOP:  cpu time    6.00: real time    6.00

 eigenvalue-minimisations  :  3724
 total energy-change (2. order) :-0.6862718E+03  (-0.6529213E+03)
 number of electron     107.0000000 magnetization 
 augmentation part      107.0000000 magnetization 

 Free energy of the ion-electron system (eV)
  ---------------------------------------------------
  alpha Z        PSCENC =       142.98314856
  Ewald energy   TEWEN  =     23758.40366751
  -Hartree energ DENC   =    -29324.24774687
  -exchange      EXHF   =         0.00000000
  -V(xc)+E(xc)   XCENC  =      -363.20679836
  PAW double counting   =      4928.51229836    -4205.98855578
  entropy T*S    EENTRO =        -0.00380802
  eigenvalues    EBANDS =      -398.12782867
  atomic energy  EATOM  =      5361.07568887
  ---------------------------------------------------
  free energy    TOTEN  =      -100.59993439 eV

  energy without entropy =     -100.59612638  energy(sigma->0) =     -100.59803039


--------------------------------------------------------------------------------------------------------




----------------------------------------- Iteration    1(   3)  ---------------------------------------


     EDDAV:  cpu time    5.39: real time    5.40
       DOS:  cpu time    0.00: real time    0.00
    --------------------------------------------
      LOOP:  cpu time    5.40: real time    5.40

 eigenvalue-minimisations  :  3320
 total energy-change (2. order) :-0.6685612E+02  (-0.6647821E+02)
 number of electron     107.0000000 magnetization 
 augmentation part      107.0000000 magnetization 

 Free energy of the ion-electron system (eV)
  ---------------------------------------------------
  alpha Z        PSCENC =       142.98314856
  Ewald energy   TEWEN  =     23758.40366751
  -Hartree energ DENC   =    -29324.24774687
  -exchange      EXHF   =         0.00000000
  -V(xc)+E(xc)   XCENC  =      -363.20679836
  PAW double counting   =      4928.51229836    -4205.98855578
  entropy T*S    EENTRO =        -0.00433887
  eigenvalues    EBANDS =      -464.98341370
  atomic energy  EATOM  =      5361.07568887
  ---------------------------------------------------
  free energy    TOTEN  =      -167.45605027 eV

  energy without entropy =     -167.45171141  energy(sigma->0) =     -167.45388084


--------------------------------------------------------------------------------------------------------




----------------------------------------- Iteration    1(   4)  ---------------------------------------


     EDDAV:  cpu time    5.54: real time    5.55
       DOS:  cpu time    0.00: real time    0.00
    --------------------------------------------
      LOOP:  cpu time    5.55: real time    5.55

 eigenvalue-minimisations  :  3376
 total energy-change (2. order) :-0.1140028E+01  (-0.1137340E+01)
 number of electron     107.0000000 magnetization 
 augmentation part      107.0000000 magnetization 

 Free energy of the ion-electron system (eV)
  ---------------------------------------------------
  alpha Z        PSCENC =       142.98314856
  Ewald energy   TEWEN  =     23758.40366751
  -Hartree energ DENC   =    -29324.24774687
  -exchange      EXHF   =         0.00000000
  -V(xc)+E(xc)   XCENC  =      -363.20679836
  PAW double counting   =      4928.51229836    -4205.98855578
  entropy T*S    EENTRO =        -0.00456646
  eigenvalues    EBANDS =      -466.12321432
  atomic energy  EATOM  =      5361.07568887
  ---------------------------------------------------
  free energy    TOTEN  =      -168.59607849 eV

  energy without entropy =     -168.59151203  energy(sigma->0) =     -168.59379526


--------------------------------------------------------------------------------------------------------




----------------------------------------- Iteration    1(   5)  ---------------------------------------


     EDDAV:  cpu time    5.70: real time    5.70
       DOS:  cpu time    0.00: real time    0.00
    CHARGE:  cpu time    0.45: real time    0.45
    MIXING:  cpu time    0.00: real time    0.00
    --------------------------------------------
      LOOP:  cpu time    6.15: real time    6.16

 eigenvalue-minimisations  :  3424
 total energy-change (2. order) :-0.2490124E-01  (-0.2487894E-01)
 number of electron     107.0000001 magnetization 
 augmentation part        8.4905698 magnetization 

 Broyden mixing:
  rms(total) = 0.23988E+01    rms(broyden)= 0.23983E+01
  rms(prec ) = 0.24496E+01
  weight for this iteration     100.00

 Free energy of the ion-electron system (eV)
  ---------------------------------------------------
  alpha Z        PSCENC =       142.98314856
  Ewald energy   TEWEN  =     23758.40366751
  -Hartree energ DENC   =    -29324.24774687
  -exchange      EXHF   =         0.00000000
  -V(xc)+E(xc)   XCENC  =      -363.20679836
  PAW double counting   =      4928.51229836    -4205.98855578
  entropy T*S    EENTRO =        -0.00459043
  eigenvalues    EBANDS =      -466.14809159
  atomic energy  EATOM  =      5361.07568887
  ---------------------------------------------------
  free energy    TOTEN  =      -168.62097973 eV

  energy without entropy =     -168.61638930  energy(sigma->0) =     -168.61868452


--------------------------------------------------------------------------------------------------------




----------------------------------------- Iteration    1(   6)  ---------------------------------------


    POTLOK:  cpu time    0.11: real time    0.11
    SETDIJ:  cpu time    0.10: real time    0.10
     EDDAV:  cpu time    5.41: real time    5.41
       DOS:  cpu time    0.00: real time    0.00
    CHARGE:  cpu time    0.44: real time    0.44
    MIXING:  cpu time    0.00: real time    0.00
    --------------------------------------------
      LOOP:  cpu time    6.07: real time    6.08

 eigenvalue-minimisations  :  3208
 total energy-change (2. order) : 0.1725257E+02  (-0.9662380E+01)
 number of electron     107.0000002 magnetization 
 augmentation part        6.8889917 magnetization 

 Broyden mixing:
  rms(total) = 0.81493E+00    rms(broyden)= 0.81390E+00
  rms(prec ) = 0.82171E+00
  weight for this iteration     100.00

 eigenvalues of (default mixing * dielectric matrix)
  average eigenvalue GAMMA=   0.8415
  0.8415

 Free energy of the ion-electron system (eV)
  ---------------------------------------------------
  alpha Z        PSCENC =       142.98314856
  Ewald energy   TEWEN  =     23758.40366751
  -Hartree energ DENC   =    -29536.52679731
  -exchange      EXHF   =         0.00000000
  -V(xc)+E(xc)   XCENC  =      -348.76993288
  PAW double counting   =      5840.85355982    -5122.06454971
  entropy T*S    EENTRO =        -0.00139873
  eigenvalues    EBANDS =      -247.32179642
  atomic energy  EATOM  =      5361.07568887
  ---------------------------------------------------
  free energy    TOTEN  =      -151.36841030 eV

  energy without entropy =     -151.36701158  energy(sigma->0) =     -151.36771094


--------------------------------------------------------------------------------------------------------




----------------------------------------- Iteration    1(   7)  ---------------------------------------


    POTLOK:  cpu time    0.11: real time    0.11
    SETDIJ:  cpu time    0.10: real time    0.10
     EDDAV:  cpu time    5.35: real time    5.36
       DOS:  cpu time    0.00: real time    0.00
    CHARGE:  cpu time    0.44: real time    0.44
    MIXING:  cpu time    0.00: real time    0.00
    --------------------------------------------
      LOOP:  cpu time    6.01: real time    6.01

 eigenvalue-minimisations  :  3144
 total energy-change (2. order) : 0.1585712E+00  (-0.2387102E+00)
 number of electron     107.0000002 magnetization 
 augmentation part        6.9237648 magnetization 

 Broyden mixing:
  rms(total) = 0.49613E+00    rms(broyden)= 0.49611E+00
  rms(prec ) = 0.50089E+00
  weight for this iteration     100.00

 eigenvalues of (default mixing * dielectric matrix)
  average eigenvalue GAMMA=   1.5543
  0.9869  2.1218

 Free energy of the ion-electron system (eV)
  ---------------------------------------------------
  alpha Z        PSCENC =       142.98314856
  Ewald energy   TEWEN  =     23758.40366751
  -Hartree energ DENC   =    -29532.40208639
  -exchange      EXHF   =         0.00000000
  -V(xc)+E(xc)   XCENC  =      -348.40639156
  PAW double counting   =      6177.18638069    -5457.91236000
  entropy T*S    EENTRO =        -0.00367830
  eigenvalues    EBANDS =      -252.13420844
  atomic energy  EATOM  =      5361.07568887
  ---------------------------------------------------
  free energy    TOTEN  =      -151.20983906 eV

  energy without entropy =     -151.20616076  energy(sigma->0) =     -151.20799991


--------------------------------------------------------------------------------------------------------




----------------------------------------- Iteration    1(   8)  ---------------------------------------


    POTLOK:  cpu time    0.11: real time    0.11
    SETDIJ:  cpu time    0.10: real time    0.10
     EDDAV:  cpu time    5.56: real time    5.56
       DOS:  cpu time    0.00: real time    0.00
    CHARGE:  cpu time    0.45: real time    0.45
    MIXING:  cpu time    0.00: real time    0.00
    --------------------------------------------
      LOOP:  cpu time    6.22: real time    6.23

 eigenvalue-minimisations  :  3296
 total energy-change (2. order) : 0.9313750E-01  (-0.9346950E-01)
 number of electron     107.0000002 magnetization 
 augmentation part        6.9980843 magnetization 

 Broyden mixing:
  rms(total) = 0.13510E+00    rms(broyden)= 0.13503E+00
  rms(prec ) = 0.13989E+00
  weight for this iteration     100.00

 eigenvalues of (default mixing * dielectric matrix)
  average eigenvalue GAMMA=   1.3317
  2.2817  0.8996  0.8136

 Free energy of the ion-electron system (eV)
  ---------------------------------------------------
  alpha Z        PSCENC =       142.98314856
  Ewald energy   TEWEN  =     23758.40366751
  -Hartree energ DENC   =    -29536.64483134
  -exchange      EXHF   =         0.00000000
  -V(xc)+E(xc)   XCENC  =      -346.99091999
  PAW double counting   =      6681.49940999    -5961.85761123
  entropy T*S    EENTRO =        -0.00562673
  eigenvalues    EBANDS =      -249.57962720
  atomic energy  EATOM  =      5361.07568887
  ---------------------------------------------------
  free energy    TOTEN  =      -151.11670156 eV

  energy without entropy =     -151.11107483  energy(sigma->0) =     -151.11388820


--------------------------------------------------------------------------------------------------------




----------------------------------------- Iteration    1(   9)  ---------------------------------------


    POTLOK:  cpu time    0.11: real time    0.11
    SETDIJ:  cpu time    0.11: real time    0.11
     EDDAV:  cpu time    5.56: real time    5.57
       DOS:  cpu time    0.00: real time    0.00
    CHARGE:  cpu time    0.44: real time    0.44
    MIXING:  cpu time    0.00: real time    0.00
    --------------------------------------------
      LOOP:  cpu time    6.23: real time    6.23

 eigenvalue-minimisations  :  3312
 total energy-change (2. order) : 0.3657808E-01  (-0.1778255E-01)
 number of electron     107.0000002 magnetization 
 augmentation part        6.9639388 magnetization 

 Broyden mixing:
  rms(total) = 0.68289E-01    rms(broyden)= 0.68283E-01
  rms(prec ) = 0.69730E-01
  weight for this iteration     100.00

 eigenvalues of (default mixing * dielectric matrix)
  average eigenvalue GAMMA=   1.4622
  2.4830  0.9523  0.9523  1.4613

 Free energy of the ion-electron system (eV)
  ---------------------------------------------------
  alpha Z        PSCENC =       142.98314856
  Ewald energy   TEWEN  =     23758.40366751
  -Hartree energ DENC   =    -29542.02515197
  -exchange      EXHF   =         0.00000000
  -V(xc)+E(xc)   XCENC  =      -346.49541814
  PAW double counting   =      6709.20865136    -5989.64080731
  entropy T*S    EENTRO =        -0.00443782
  eigenvalues    EBANDS =      -244.58546454
  atomic energy  EATOM  =      5361.07568887
  ---------------------------------------------------
  free energy    TOTEN  =      -151.08012348 eV

  energy without entropy =     -151.07568566  energy(sigma->0) =     -151.07790457


--------------------------------------------------------------------------------------------------------




----------------------------------------- Iteration    1(  10)  ---------------------------------------


    POTLOK:  cpu time    0.11: real time    0.11
    SETDIJ:  cpu time    0.10: real time    0.10
     EDDAV:  cpu time    5.48: real time    5.48
       DOS:  cpu time    0.00: real time    0.00
    CHARGE:  cpu time    0.44: real time    0.44
    MIXING:  cpu time    0.00: real time    0.00
    --------------------------------------------
      LOOP:  cpu time    6.14: real time    6.14

 eigenvalue-minimisations  :  3260
 total energy-change (2. order) :-0.5432839E-02  (-0.1438811E-01)
 number of electron     107.0000002 magnetization 
 augmentation part        6.9404193 magnetization 

 Broyden mixing:
  rms(total) = 0.42337E-01    rms(broyden)= 0.42295E-01
  rms(prec ) = 0.50431E-01
  weight for this iteration     100.00

 eigenvalues of (default mixing * dielectric matrix)
  average eigenvalue GAMMA=   1.2790
  2.5275  1.4491  0.9630  0.7278  0.7278

 Free energy of the ion-electron system (eV)
  ---------------------------------------------------
  alpha Z        PSCENC =       142.98314856
  Ewald energy   TEWEN  =     23758.40366751
  -Hartree energ DENC   =    -29544.25889295
  -exchange      EXHF   =         0.00000000
  -V(xc)+E(xc)   XCENC  =      -346.21270167
  PAW double counting   =      6707.36577039    -5987.82005822
  entropy T*S    EENTRO =        -0.00630066
  eigenvalues    EBANDS =      -242.61587816
  atomic energy  EATOM  =      5361.07568887
  ---------------------------------------------------
  free energy    TOTEN  =      -151.08555632 eV

  energy without entropy =     -151.07925567  energy(sigma->0) =     -151.08240600


--------------------------------------------------------------------------------------------------------




----------------------------------------- Iteration    1(  11)  ---------------------------------------


    POTLOK:  cpu time    0.11: real time    0.11
    SETDIJ:  cpu time    0.11: real time    0.11
     EDDAV:  cpu time    5.44: real time    5.45
       DOS:  cpu time    0.00: real time    0.00
    CHARGE:  cpu time    0.44: real time    0.44
    MIXING:  cpu time    0.00: real time    0.00
    --------------------------------------------
      LOOP:  cpu time    6.10: real time    6.11

 eigenvalue-minimisations  :  3212
 total energy-change (2. order) : 0.2497909E-02  (-0.2089468E-02)
 number of electron     107.0000002 magnetization 
 augmentation part        6.9423610 magnetization 

 Broyden mixing:
  rms(total) = 0.33763E-01    rms(broyden)= 0.33762E-01
  rms(prec ) = 0.34605E-01
  weight for this iteration     100.00

 eigenvalues of (default mixing * dielectric matrix)
  average eigenvalue GAMMA=   1.2674
  2.5439  1.4041  0.9581  0.9581  1.0354  0.7045

 Free energy of the ion-electron system (eV)
  ---------------------------------------------------
  alpha Z        PSCENC =       142.98314856
  Ewald energy   TEWEN  =     23758.40366751
  -Hartree energ DENC   =    -29544.07156460
  -exchange      EXHF   =         0.00000000
  -V(xc)+E(xc)   XCENC  =      -346.16363721
  PAW double counting   =      6700.03190369    -5980.48914404
  entropy T*S    EENTRO =        -0.00423709
  eigenvalues    EBANDS =      -242.84888411
  atomic energy  EATOM  =      5361.07568887
  ---------------------------------------------------
  free energy    TOTEN  =      -151.08305841 eV

  energy without entropy =     -151.07882132  energy(sigma->0) =     -151.08093987


--------------------------------------------------------------------------------------------------------




----------------------------------------- Iteration    1(  12)  ---------------------------------------


    POTLOK:  cpu time    0.11: real time    0.11
    SETDIJ:  cpu time    0.11: real time    0.11
     EDDAV:  cpu time    5.81: real time    5.82
       DOS:  cpu time    0.00: real time    0.00
    CHARGE:  cpu time    0.44: real time    0.44
    MIXING:  cpu time    0.00: real time    0.00
    --------------------------------------------
      LOOP:  cpu time    6.47: real time    6.48

 eigenvalue-minimisations  :  3424
 total energy-change (2. order) : 0.1538380E-02  (-0.1262178E-02)
 number of electron     107.0000002 magnetization 
 augmentation part        6.9447296 magnetization 

 Broyden mixing:
  rms(total) = 0.11998E-01    rms(broyden)= 0.11983E-01
  rms(prec ) = 0.12606E-01
  weight for this iteration     100.00

 eigenvalues of (default mixing * dielectric matrix)
  average eigenvalue GAMMA=   1.3323
  2.6563  2.3998  0.9142  0.9142  0.9374  0.9374  0.5668

 Free energy of the ion-electron system (eV)
  ---------------------------------------------------
  alpha Z        PSCENC =       142.98314856
  Ewald energy   TEWEN  =     23758.40366751
  -Hartree energ DENC   =    -29543.77026735
  -exchange      EXHF   =         0.00000000
  -V(xc)+E(xc)   XCENC  =      -346.15573172
  PAW double counting   =      6690.18487528    -5970.64458610
  entropy T*S    EENTRO =        -0.00446703
  eigenvalues    EBANDS =      -243.15384806
  atomic energy  EATOM  =      5361.07568887
  ---------------------------------------------------
  free energy    TOTEN  =      -151.08152003 eV

  energy without entropy =     -151.07705301  energy(sigma->0) =     -151.07928652


--------------------------------------------------------------------------------------------------------




----------------------------------------- Iteration    1(  13)  ---------------------------------------


    POTLOK:  cpu time    0.11: real time    0.11
    SETDIJ:  cpu time    0.10: real time    0.10
     EDDAV:  cpu time    5.54: real time    5.55
       DOS:  cpu time    0.00: real time    0.00
    CHARGE:  cpu time    0.44: real time    0.44
    MIXING:  cpu time    0.01: real time    0.01
    --------------------------------------------
      LOOP:  cpu time    6.21: real time    6.22

 eigenvalue-minimisations  :  3272
 total energy-change (2. order) :-0.2140259E-03  (-0.2292614E-03)
 number of electron     107.0000002 magnetization 
 augmentation part        6.9473223 magnetization 

 Broyden mixing:
  rms(total) = 0.90984E-02    rms(broyden)= 0.90971E-02
  rms(prec ) = 0.97070E-02
  weight for this iteration     100.00

 eigenvalues of (default mixing * dielectric matrix)
  average eigenvalue GAMMA=   1.3285
  2.7676  2.4491  0.8899  0.8899  1.1781  0.9351  0.9351  0.5830

 Free energy of the ion-electron system (eV)
  ---------------------------------------------------
  alpha Z        PSCENC =       142.98314856
  Ewald energy   TEWEN  =     23758.40366751
  -Hartree energ DENC   =    -29543.13140080
  -exchange      EXHF   =         0.00000000
  -V(xc)+E(xc)   XCENC  =      -346.15093005
  PAW double counting   =      6669.27508485    -5949.73282623
  entropy T*S    EENTRO =        -0.00451633
  eigenvalues    EBANDS =      -243.79965043
  atomic energy  EATOM  =      5361.07568887
  ---------------------------------------------------
  free energy    TOTEN  =      -151.08173406 eV

  energy without entropy =     -151.07721773  energy(sigma->0) =     -151.07947589


--------------------------------------------------------------------------------------------------------




----------------------------------------- Iteration    1(  14)  ---------------------------------------


    POTLOK:  cpu time    0.11: real time    0.11
    SETDIJ:  cpu time    0.10: real time    0.10
     EDDAV:  cpu time    5.89: real time    5.89
       DOS:  cpu time    0.00: real time    0.00
    CHARGE:  cpu time    0.45: real time    0.45
    MIXING:  cpu time    0.00: real time    0.00
    --------------------------------------------
      LOOP:  cpu time    6.55: real time    6.56

 eigenvalue-minimisations  :  3568
 total energy-change (2. order) : 0.1657544E-03  (-0.4753235E-04)
 number of electron     107.0000002 magnetization 
 augmentation part        6.9489398 magnetization 

 Broyden mixing:
  rms(total) = 0.55591E-02    rms(broyden)= 0.55583E-02
  rms(prec ) = 0.63163E-02
  weight for this iteration     100.00

 eigenvalues of (default mixing * dielectric matrix)
  average eigenvalue GAMMA=   1.2912
  2.8571  2.4618  0.9505  0.9505  1.1835  0.9211  0.8547  0.8547  0.5868

 Free energy of the ion-electron system (eV)
  ---------------------------------------------------
  alpha Z        PSCENC =       142.98314856
  Ewald energy   TEWEN  =     23758.40366751
  -Hartree energ DENC   =    -29542.83545396
  -exchange      EXHF   =         0.00000000
  -V(xc)+E(xc)   XCENC  =      -346.15279154
  PAW double counting   =      6666.23714993    -5946.69241935
  entropy T*S    EENTRO =        -0.00453542
  eigenvalues    EBANDS =      -244.09602290
  atomic energy  EATOM  =      5361.07568887
  ---------------------------------------------------
  free energy    TOTEN  =      -151.08156831 eV

  energy without entropy =     -151.07703289  energy(sigma->0) =     -151.07930060


--------------------------------------------------------------------------------------------------------




----------------------------------------- Iteration    1(  15)  ---------------------------------------


    POTLOK:  cpu time    0.11: real time    0.11
    SETDIJ:  cpu time    0.11: real time    0.11
     EDDAV:  cpu time    5.53: real time    5.53
       DOS:  cpu time    0.00: real time    0.00
    CHARGE:  cpu time    0.44: real time    0.44
    MIXING:  cpu time    0.01: real time    0.01
    --------------------------------------------
      LOOP:  cpu time    6.19: real time    6.20

 eigenvalue-minimisations  :  3288
 total energy-change (2. order) : 0.7981635E-04  (-0.3125526E-04)
 number of electron     107.0000002 magnetization 
 augmentation part        6.9475823 magnetization 

 Broyden mixing:
  rms(total) = 0.17019E-02    rms(broyden)= 0.16997E-02
  rms(prec ) = 0.32068E-02
  weight for this iteration     100.00

 eigenvalues of (default mixing * dielectric matrix)
  average eigenvalue GAMMA=   1.3154
  2.8169  2.5348  1.3984  1.0045  1.0045  0.9503  0.9503  1.0252  0.8868  0.5819

 Free energy of the ion-electron system (eV)
  ---------------------------------------------------
  alpha Z        PSCENC =       142.98314856
  Ewald energy   TEWEN  =     23758.40366751
  -Hartree energ DENC   =    -29542.77915821
  -exchange      EXHF   =         0.00000000
  -V(xc)+E(xc)   XCENC  =      -346.14561471
  PAW double counting   =      6666.04997448    -5946.50662908
  entropy T*S    EENTRO =        -0.00453016
  eigenvalues    EBANDS =      -244.15803576
  atomic energy  EATOM  =      5361.07568887
  ---------------------------------------------------
  free energy    TOTEN  =      -151.08148849 eV

  energy without entropy =     -151.07695833  energy(sigma->0) =     -151.07922341


--------------------------------------------------------------------------------------------------------




----------------------------------------- Iteration    1(  16)  ---------------------------------------


    POTLOK:  cpu time    0.11: real time    0.11
    SETDIJ:  cpu time    0.10: real time    0.10
     EDDAV:  cpu time    5.10: real time    5.10
       DOS:  cpu time    0.00: real time    0.00
    CHARGE:  cpu time    0.44: real time    0.44
    MIXING:  cpu time    0.01: real time    0.01
    --------------------------------------------
      LOOP:  cpu time    5.76: real time    5.76

 eigenvalue-minimisations  :  2936
 total energy-change (2. order) : 0.7061366E-04  (-0.4154419E-05)
 number of electron     107.0000002 magnetization 
 augmentation part        6.9478621 magnetization 

 Broyden mixing:
  rms(total) = 0.16343E-02    rms(broyden)= 0.16342E-02
  rms(prec ) = 0.28014E-02
  weight for this iteration     100.00

 eigenvalues of (default mixing * dielectric matrix)
  average eigenvalue GAMMA=   1.3953
  3.0119  2.4675  2.4675  0.9586  0.9586  1.1063  1.1063  0.9095  0.8911  0.8911
  0.5797

 Free energy of the ion-electron system (eV)
  ---------------------------------------------------
  alpha Z        PSCENC =       142.98314856
  Ewald energy   TEWEN  =     23758.40366751
  -Hartree energ DENC   =    -29542.48223506
  -exchange      EXHF   =         0.00000000
  -V(xc)+E(xc)   XCENC  =      -346.14786584
  PAW double counting   =      6666.00437832    -5946.45871668
  entropy T*S    EENTRO =        -0.00452536
  eigenvalues    EBANDS =      -244.45495820
  atomic energy  EATOM  =      5361.07568887
  ---------------------------------------------------
  free energy    TOTEN  =      -151.08141788 eV

  energy without entropy =     -151.07689251  energy(sigma->0) =     -151.07915519


--------------------------------------------------------------------------------------------------------




----------------------------------------- Iteration    1(  17)  ---------------------------------------


    POTLOK:  cpu time    0.11: real time    0.11
    SETDIJ:  cpu time    0.10: real time    0.10
     EDDAV:  cpu time    6.72: real time    6.73
       DOS:  cpu time    0.00: real time    0.00
    CHARGE:  cpu time    0.45: real time    0.45
    MIXING:  cpu time    0.01: real time    0.01
    --------------------------------------------
      LOOP:  cpu time    7.39: real time    7.40

 eigenvalue-minimisations  :  4240
 total energy-change (2. order) : 0.9145470E-04  (-0.1559307E-04)
 number of electron     107.0000002 magnetization 
 augmentation part        6.9474877 magnetization 

 Broyden mixing:
  rms(total) = 0.11734E-02    rms(broyden)= 0.11728E-02
  rms(prec ) = 0.20846E-02
  weight for this iteration     100.00

 eigenvalues of (default mixing * dielectric matrix)
  average eigenvalue GAMMA=   1.3906
  3.0487  2.6730  2.4224  0.9835  0.9835  0.5806  1.0442  1.0442  0.9871  0.9871
  1.0673  0.8654

 Free energy of the ion-electron system (eV)
  ---------------------------------------------------
  alpha Z        PSCENC =       142.98314856
  Ewald energy   TEWEN  =     23758.40366751
  -Hartree energ DENC   =    -29542.15923408
  -exchange      EXHF   =         0.00000000
  -V(xc)+E(xc)   XCENC  =      -346.14099964
  PAW double counting   =      6666.72054112    -5947.17485282
  entropy T*S    EENTRO =        -0.00450778
  eigenvalues    EBANDS =      -244.78477816
  atomic energy  EATOM  =      5361.07568887
  ---------------------------------------------------
  free energy    TOTEN  =      -151.08132642 eV

  energy without entropy =     -151.07681864  energy(sigma->0) =     -151.07907253


--------------------------------------------------------------------------------------------------------




----------------------------------------- Iteration    1(  18)  ---------------------------------------


    POTLOK:  cpu time    0.11: real time    0.11
    SETDIJ:  cpu time    0.12: real time    0.12
     EDDAV:  cpu time    6.24: real time    6.25
       DOS:  cpu time    0.00: real time    0.00
    CHARGE:  cpu time    0.44: real time    0.44
    MIXING:  cpu time    0.01: real time    0.01
    --------------------------------------------
      LOOP:  cpu time    6.93: real time    6.93

 eigenvalue-minimisations  :  3848
 total energy-change (2. order) : 0.5203930E-04  (-0.1226920E-04)
 number of electron     107.0000002 magnetization 
 augmentation part        6.9471525 magnetization 

 Broyden mixing:
  rms(total) = 0.16081E-02    rms(broyden)= 0.16077E-02
  rms(prec ) = 0.20171E-02
  weight for this iteration     100.00

 eigenvalues of (default mixing * dielectric matrix)
  average eigenvalue GAMMA=   1.5455
  4.5898  2.8717  2.4166  1.8020  0.9535  0.9535  1.1251  1.1251  0.9294  0.9294
  1.0054  0.5802  0.8102

 Free energy of the ion-electron system (eV)
  ---------------------------------------------------
  alpha Z        PSCENC =       142.98314856
  Ewald energy   TEWEN  =     23758.40366751
  -Hartree energ DENC   =    -29541.75288621
  -exchange      EXHF   =         0.00000000
  -V(xc)+E(xc)   XCENC  =      -346.13937740
  PAW double counting   =      6666.54190404    -5946.99791016
  entropy T*S    EENTRO =        -0.00449483
  eigenvalues    EBANDS =      -245.19101475
  atomic energy  EATOM  =      5361.07568887
  ---------------------------------------------------
  free energy    TOTEN  =      -151.08127438 eV

  energy without entropy =     -151.07677955  energy(sigma->0) =     -151.07902697


--------------------------------------------------------------------------------------------------------




----------------------------------------- Iteration    1(  19)  ---------------------------------------


    POTLOK:  cpu time    0.11: real time    0.11
    SETDIJ:  cpu time    0.11: real time    0.11
     EDDAV:  cpu time    5.29: real time    5.29
       DOS:  cpu time    0.00: real time    0.00
    CHARGE:  cpu time    0.45: real time    0.45
    MIXING:  cpu time    0.01: real time    0.01
    --------------------------------------------
      LOOP:  cpu time    5.96: real time    5.96

 eigenvalue-minimisations  :  3096
 total energy-change (2. order) : 0.3726668E-04  (-0.7183999E-05)
 number of electron     107.0000002 magnetization 
 augmentation part        6.9474113 magnetization 

 Broyden mixing:
  rms(total) = 0.73790E-03    rms(broyden)= 0.73764E-03
  rms(prec ) = 0.10622E-02
  weight for this iteration     100.00

 eigenvalues of (default mixing * dielectric matrix)
  average eigenvalue GAMMA=   1.6064
  5.4333  2.8774  2.3831  1.8655  1.3336  1.3336  0.9608  0.9608  0.5803  1.0241
  1.0241  0.8711  0.9207  0.9207

 Free energy of the ion-electron system (eV)
  ---------------------------------------------------
  alpha Z        PSCENC =       142.98314856
  Ewald energy   TEWEN  =     23758.40366751
  -Hartree energ DENC   =    -29541.29105802
  -exchange      EXHF   =         0.00000000
  -V(xc)+E(xc)   XCENC  =      -346.14261327
  PAW double counting   =      6666.51937318    -5946.97441232
  entropy T*S    EENTRO =        -0.00448262
  eigenvalues    EBANDS =      -245.65054900
  atomic energy  EATOM  =      5361.07568887
  ---------------------------------------------------
  free energy    TOTEN  =      -151.08123711 eV

  energy without entropy =     -151.07675450  energy(sigma->0) =     -151.07899581


--------------------------------------------------------------------------------------------------------




----------------------------------------- Iteration    1(  20)  ---------------------------------------


    POTLOK:  cpu time    0.11: real time    0.11
    SETDIJ:  cpu time    0.11: real time    0.11
     EDDAV:  cpu time    5.38: real time    5.39
       DOS:  cpu time    0.00: real time    0.00
    --------------------------------------------
      LOOP:  cpu time    5.61: real time    5.62

 eigenvalue-minimisations  :  3168
 total energy-change (2. order) : 0.3773984E-05  (-0.8523892E-05)
 number of electron     107.0000002 magnetization 
 augmentation part        6.9474113 magnetization 

 Free energy of the ion-electron system (eV)
  ---------------------------------------------------
  alpha Z        PSCENC =       142.98314856
  Ewald energy   TEWEN  =     23758.40366751
  -Hartree energ DENC   =    -29541.13086476
  -exchange      EXHF   =         0.00000000
  -V(xc)+E(xc)   XCENC  =      -346.14396556
  PAW double counting   =      6666.42777604    -5946.88154933
  entropy T*S    EENTRO =        -0.00447918
  eigenvalues    EBANDS =      -245.81065548
  atomic energy  EATOM  =      5361.07568887
  ---------------------------------------------------
  free energy    TOTEN  =      -151.08123334 eV

  energy without entropy =     -151.07675416  energy(sigma->0) =     -151.07899375


--------------------------------------------------------------------------------------------------------




 average (electrostatic) potential at core
  the test charge radii are     0.7215  1.0714  1.0406
  (the norm of the test charge is              1.0000)
       1 -70.7214       2 -70.6355       3 -70.6183       4 -70.6092       5 -70.6146
       6 -70.6334       7 -70.6523       8 -70.6581       9 -70.6131      10 -70.6199
      11 -70.7105      12 -36.1892      13 -36.1585      14 -36.1615      15 -36.1805
      16 -36.1707      17 -36.1608      18 -36.1869      19 -36.1932      20 -36.1601
      21 -36.1731      22 -74.4595      23 -75.3557      24 -74.4787      25 -74.5228
      26 -75.3452      27 -74.5204      28 -74.4738
 
 
 
 E-fermi :   6.1723     XC(G=0): -10.0478     alpha+bet :-12.0389


 k-point     1 :       0.0000    0.0000    0.0000
  band No.  band energies     occupation 
      1     -14.9967      2.00000
      2     -14.9502      2.00000
      3     -14.8548      2.00000
      4     -14.7329      2.00000
      5     -14.5905      2.00000
      6     -14.4424      2.00000
      7     -14.2949      2.00000
      8     -14.1607      2.00000
      9     -14.0462      2.00000
     10     -13.9528      2.00000
     11     -13.8791      2.00000
     12      -3.7291      2.00000
     13      -3.6931      2.00000
     14      -3.6848      2.00000
     15      -2.4178      2.00000
     16      -2.2251      2.00000
     17      -2.0592      2.00000
     18      -1.9281      2.00000
     19      -1.5935      2.00000
     20      -1.2380      2.00000
     21      -0.8474      2.00000
     22      -0.3736      2.00000
     23       0.1587      2.00000
     24       0.5357      2.00000
     25       0.7406      2.00000
     26       1.3042      2.00000
     27       1.6339      2.00000
     28       1.6339      2.00000
     29       1.6567      2.00000
     30       1.6567      2.00000
     31       1.7137      2.00000
     32       1.7137      2.00000
     33       1.7665      2.00000
     34       1.7845      2.00000
     35       1.7845      2.00000
     36       1.8685      2.00000
     37       1.8685      2.00000
     38       1.9542      2.00000
     39       1.9542      2.00000
     40       2.0403      2.00000
     41       2.0403      2.00000
     42       2.1170      2.00000
     43       2.1170      2.00000
     44       2.1805      2.00000
     45       2.1805      2.00000
     46       2.2221      2.00000
     47       2.2221      2.00000
     48       2.2309      2.00000
     49       2.2309      2.00000
     50       2.3625      2.00000
     51       2.4166      2.00000
     52       3.6360      2.00000
     53       5.9076      2.00000
     54       6.1459      1.54410
     55       6.7893      0.00000
     56       7.2834      0.00000
     57       7.3091      0.00000
     58       7.9251      0.00000
     59       8.3552      0.00000
     60       8.9530      0.00000
     61       9.1608      0.00000
     62       9.5740      0.00000
     63       9.6953      0.00000
     64       9.9553      0.00000
     65       9.9891      0.00000
     66      10.0546      0.00000
     67      11.3993      0.00000
     68      13.1396      0.00000

 k-point     2 :       0.0769    0.0000    0.0000
  band No.  band energies     occupation 
      1     -14.9418      2.00000
      2     -14.8964      2.00000
      3     -14.8028      2.00000
      4     -14.6833      2.00000
      5     -14.5439      2.00000
      6     -14.3991      2.00000
      7     -14.2551      2.00000
      8     -14.1248      2.00000
      9     -14.0145      2.00000
     10     -13.9249      2.00000
     11     -13.8537      2.00000
     12      -3.5989      2.00000
     13      -3.5765      2.00000
     14      -3.5680      2.00000
     15      -2.3364      2.00000
     16      -2.1492      2.00000
     17      -1.9305      2.00000
     18      -1.8568      2.00000
     19      -1.5303      2.00000
     20      -1.1853      2.00000
     21      -0.8161      2.00000
     22      -0.3744      2.00000
     23       0.1230      2.00000
     24       0.6574      2.00000
     25       0.6605      2.00000
     26       1.1698      2.00000
     27       1.3996      2.00000
     28       1.4279      2.00000
     29       1.4918      2.00000
     30       1.5631      2.00000
     31       1.5895      2.00000
     32       1.5895      2.00000
     33       1.6124      2.00000
     34       1.6697      2.00000
     35       1.6752      2.00000
     36       1.7409      2.00000
     37       1.7702      2.00000
     38       1.8158      2.00000
     39       1.8253      2.00000
     40       1.8789      2.00000
     41       1.9114      2.00000
     42       1.9492      2.00000
     43       1.9957      2.00000
     44       1.9980      2.00000
     45       2.0028      2.00000
     46       2.0751      2.00000
     47       2.1389      2.00000
     48       2.1783      2.00000
     49       2.1870      2.00000
     50       2.4676      2.00000
     51       2.5335      2.00000
     52       3.7625      2.00000
     53       6.1287      1.78260
     54       6.3976      0.00000
     55       7.1083      0.00000
     56       7.5032      0.00000
     57       7.5521      0.00000
     58       8.1471      0.00000
     59       8.5706      0.00000
     60       9.1671      0.00000
     61       9.3639      0.00000
     62       9.8106      0.00000
     63       9.9263      0.00000
     64      10.2127      0.00000
     65      10.2319      0.00000
     66      10.3354      0.00000
     67      11.5068      0.00000
     68      13.1791      0.00000

 k-point     3 :       0.1538    0.0000   -0.0000
  band No.  band energies     occupation 
      1     -14.7842      2.00000
      2     -14.7423      2.00000
      3     -14.6544      2.00000
      4     -14.5424      2.00000
      5     -14.4118      2.00000
      6     -14.2767      2.00000
      7     -14.1429      2.00000
      8     -14.0237      2.00000
      9     -13.9254      2.00000
     10     -13.8471      2.00000
     11     -13.7836      2.00000
     12      -3.2385      2.00000
     13      -3.2302      2.00000
     14      -3.1983      2.00000
     15      -2.1017      2.00000
     16      -1.9352      2.00000
     17      -1.6760      2.00000
     18      -1.5336      2.00000
     19      -1.3685      2.00000
     20      -1.0563      2.00000
     21      -0.7529      2.00000
     22      -0.4200      2.00000
     23      -0.0561      2.00000
     24       0.3167      2.00000
     25       0.6397      2.00000
     26       0.8059      2.00000
     27       0.8529      2.00000
     28       0.8762      2.00000
     29       0.9568      2.00000
     30       1.0012      2.00000
     31       1.0547      2.00000
     32       1.0883      2.00000
     33       1.2322      2.00000
     34       1.3815      2.00000
     35       1.4697      2.00000
     36       1.4930      2.00000
     37       1.5223      2.00000
     38       1.5508      2.00000
     39       1.6228      2.00000
     40       1.6410      2.00000
     41       1.7082      2.00000
     42       1.7372      2.00000
     43       1.7953      2.00000
     44       1.8337      2.00000
     45       1.8829      2.00000
     46       1.9610      2.00000
     47       2.0252      2.00000
     48       2.0596      2.00000
     49       2.0683      2.00000
     50       2.7116      2.00000
     51       2.7793      2.00000
     52       4.1304      2.00000
     53       6.6216      0.00000
     54       6.9569      0.00000
     55       7.8429      0.00000
     56       8.0248      0.00000
     57       8.2126      0.00000
     58       8.6960      0.00000
     59       9.0987      0.00000
     60       9.6736      0.00000
     61       9.8696      0.00000
     62      10.3813      0.00000
     63      10.4490      0.00000
     64      10.7852      0.00000
     65      10.9151      0.00000
     66      11.0494      0.00000
[...]
     23      -0.7364      2.00000
     24      -0.6120      2.00000
     25      -0.4573      2.00000
     26      -0.3197      2.00000
     27      -0.1669      2.00000
     28      -0.1019      2.00000
     29      -0.0529      2.00000
     30       0.0198      2.00000
     31       0.0650      2.00000
     32       0.1437      2.00000
     33       0.1705      2.00000
     34       0.2523      2.00000
     35       0.3307      2.00000
     36       0.4535      2.00000
     37       0.6235      2.00000
     38       0.7717      2.00000
     39       0.8605      2.00000
     40       0.9048      2.00000
     41       1.0032      2.00000
     42       1.0208      2.00000
     43       1.0644      2.00000
     44       1.1529      2.00000
     45       1.2425      2.00000
     46       1.9345      2.00000
     47       1.9566      2.00000
     48       2.6971      2.00000
     49       4.2728      2.00000
     50       4.7490      2.00000
     51       4.7713      2.00000
     52       5.3065      2.00000
     53       5.8946      2.00000
     54       5.9142      2.00000
     55       6.0095      2.00000
     56       6.0312      2.00000
     57       6.7120      0.00000
     58       6.7386      0.00000
     59       7.6364      0.00000
     60       8.2121      0.00000
     61       8.7901      0.00000
     62       8.9468      0.00000
     63       9.0189      0.00000
     64      10.1507      0.00000
     65      10.2481      0.00000
     66      10.3493      0.00000
     67      10.6207      0.00000
     68      10.7258      0.00000

 k-point    20 :       0.3846    0.2308   -0.0000
  band No.  band energies     occupation 
      1     -13.7565      2.00000
      2     -13.7465      2.00000
      3     -13.7345      2.00000
      4     -13.7171      2.00000
      5     -13.6980      2.00000
      6     -13.6754      2.00000
      7     -13.6555      2.00000
      8     -13.6366      2.00000
      9     -13.6217      2.00000
     10     -13.4953      2.00000
     11     -13.4685      2.00000
     12      -1.9327      2.00000
     13      -1.8650      2.00000
     14      -1.7571      2.00000
     15      -1.6295      2.00000
     16      -1.5044      2.00000
     17      -1.4700      2.00000
     18      -1.4503      2.00000
     19      -1.4151      2.00000
     20      -1.4076      2.00000
     21      -1.3531      2.00000
     22      -1.3470      2.00000
     23      -0.5298      2.00000
     24      -0.5053      2.00000
     25      -0.4586      2.00000
     26      -0.4219      2.00000
     27      -0.3973      2.00000
     28      -0.3502      2.00000
     29      -0.3469      2.00000
     30      -0.2390      2.00000
     31      -0.0735      2.00000
     32       0.0758      2.00000
     33       0.2013      2.00000
     34       0.3074      2.00000
     35       0.3288      2.00000
     36       0.6228      2.00000
     37       0.6723      2.00000
     38       0.7151      2.00000
     39       0.7828      2.00000
     40       0.8501      2.00000
     41       0.9788      2.00000
     42       1.0581      2.00000
     43       1.1059      2.00000
     44       1.1109      2.00000
     45       2.5078      2.00000
     46       2.5679      2.00000
     47       2.9341      2.00000
     48       2.9563      2.00000
     49       3.5065      2.00000
     50       3.5284      2.00000
     51       3.9943      2.00000
     52       4.4507      2.00000
     53       5.7445      2.00000
     54       6.1176      1.99938
     55       6.1398      1.99484
     56       6.6989      0.00000
     57       7.1105      0.00000
     58       7.3119      0.00000
     59       7.3351      0.00000
     60       7.5850      0.00000
     61       7.7859      0.00000
     62       7.8105      0.00000
     63       9.5940      0.00000
     64       9.8399      0.00000
     65      10.1972      0.00000
     66      10.2479      0.00000
     67      10.4055      0.00000
     68      11.2235      0.00000

 k-point    21 :       0.3077    0.3077   -0.0000
  band No.  band energies     occupation 
      1     -13.7229      2.00000
      2     -13.7123      2.00000
      3     -13.7036      2.00000
      4     -13.6910      2.00000
      5     -13.6773      2.00000
      6     -13.6619      2.00000
      7     -13.6486      2.00000
      8     -13.6358      2.00000
      9     -13.6256      2.00000
     10     -13.4786      2.00000
     11     -13.4517      2.00000
     12      -1.5763      2.00000
     13      -1.5682      2.00000
     14      -1.5263      2.00000
     15      -1.4972      2.00000
     16      -1.4459      2.00000
     17      -1.3874      2.00000
     18      -1.3582      2.00000
     19      -1.2448      2.00000
     20      -1.1622      2.00000
     21      -1.0870      2.00000
     22      -1.0799      2.00000
     23      -0.9808      2.00000
     24      -0.8531      2.00000
     25      -0.7766      2.00000
     26      -0.7040      2.00000
     27      -0.6413      2.00000
     28      -0.5842      2.00000
     29      -0.5408      2.00000
     30      -0.4145      2.00000
     31      -0.3943      2.00000
     32      -0.2665      2.00000
     33      -0.2579      2.00000
     34       0.3222      2.00000
     35       0.3465      2.00000
     36       0.6338      2.00000
     37       0.7441      2.00000
     38       0.8316      2.00000
     39       0.8564      2.00000
     40       0.8833      2.00000
     41       0.9306      2.00000
     42       0.9320      2.00000
     43       0.9779      2.00000
     44       1.0725      2.00000
     45       2.4136      2.00000
     46       3.0533      2.00000
     47       3.0754      2.00000
     48       3.9531      2.00000
     49       4.0116      2.00000
     50       4.1556      2.00000
     51       4.3341      2.00000
     52       4.3566      2.00000
     53       4.9496      2.00000
     54       4.9712      2.00000
     55       5.5777      2.00000
     56       5.9193      2.00000
     57       6.8583      0.00000
     58       7.2980      0.00000
     59       7.3446      0.00000
     60       8.2164      0.00000
     61       8.5542      0.00000
     62       8.6285      0.00000
     63       8.6712      0.00000
     64       9.0536      0.00000
     65       9.0751      0.00000
     66       9.7435      0.00000
     67      11.1288      0.00000
     68      11.2871      0.00000


--------------------------------------------------------------------------------------------------------


 soft charge-density along one line, spin component           1
         0         1         2         3         4         5         6         7         8         9
 total charge-density along one line
 
 pseudopotential strength for first ion, spin component:           1
 12.277   0.000 -14.947   0.000  -0.000   0.000  -0.005   0.000   0.000   0.000   0.000   0.000   0.006   0.000  -0.000   0.000
-14.947   0.000  18.216   0.000   0.000   0.000   0.006   0.000  -0.000   0.000  -0.000   0.000  -0.007   0.000   0.000   0.000
 -0.000   0.000   0.000   0.000  -8.461   0.000  -0.000   0.000   0.000   0.000  10.161   0.000   0.000   0.000  -0.000   0.000
 -0.005   0.000   0.006   0.000  -0.000   0.000  -8.469   0.000   0.000   0.000   0.000   0.000  10.172   0.000  -0.000   0.000
  0.000   0.000  -0.000   0.000   0.000   0.000   0.000   0.000  -8.461   0.000  -0.000   0.000  -0.000   0.000  10.161   0.000
  0.000   0.000  -0.000   0.000  10.161   0.000   0.000   0.000  -0.000   0.000 -12.048   0.000  -0.000   0.000   0.000   0.000
  0.006   0.000  -0.007   0.000   0.000   0.000  10.172   0.000  -0.000   0.000  -0.000   0.000 -12.063   0.000   0.000   0.000
 -0.000   0.000   0.000   0.000  -0.000   0.000  -0.000   0.000  10.161   0.000   0.000   0.000   0.000   0.000 -12.048   0.000
 total augmentation occupancy for first ion, spin component:           1
  2.527   0.327   0.000   0.037  -0.000   0.000   0.006  -0.000
  0.327   0.081   0.000   0.016  -0.000   0.000  -0.007   0.000
  0.000   0.000   2.074   0.000   0.000   0.235   0.000   0.000
  0.037   0.016   0.000   2.074  -0.000   0.000   0.243  -0.000
 -0.000  -0.000   0.000  -0.000   2.074   0.000  -0.000   0.235
  0.000   0.000   0.235   0.000   0.000   0.031   0.000   0.000
  0.006  -0.007   0.000   0.243  -0.000   0.000   0.035  -0.000
 -0.000   0.000   0.000  -0.000   0.235   0.000  -0.000   0.031


------------------------ aborting loop because EDIFF is reached ----------------------------------------


    CHARGE:  cpu time    0.45: real time    0.45
    FORLOC:  cpu time    0.04: real time    0.04
    FORNL :  cpu time    3.65: real time    3.65
    STRESS:  cpu time    4.66: real time    4.67
    FORCOR:  cpu time    0.15: real time    0.15
    FORHAR:  cpu time    0.06: real time    0.06
    MIXING:  cpu time    0.00: real time    0.00
    OFIELD:  cpu time    0.00: real time    0.00

  FORCE on cell =-STRESS in cart. coord.  units (eV):
  Direction    XX          YY          ZZ          XY          YZ          ZX
  --------------------------------------------------------------------------------------
  Alpha Z   142.98315   142.98315   142.98315
  Ewald   28194.21171 28194.21223-31109.94276    -0.00019    -0.00001    -0.00013
  Hartree 30017.70933 30017.70924-28986.49228     0.00000     0.00000     0.00005
  E(xc)    -451.14167  -451.14169  -451.40245    -0.00000     0.00000     0.00000
  Local  -59542.99158-59542.99101 58773.43012    -0.00019    -0.00001     0.00004
  n-local   -73.06980   -86.58320   -79.92966     3.25647    -1.82624     5.16612
  augment    66.95668    66.95642    66.47220     0.00019    -0.00000     0.00000
  Kinetic  1652.15598  1644.44709  1641.15227    -1.90243     0.12598     1.64793
  Fock        0.00000     0.00000     0.00000     0.00000     0.00000     0.00000
  -------------------------------------------------------------------------------------
  Total      -3.79699    -3.79699    -3.72941     0.00000     0.00000     0.00000
  in kB     -17.22516   -17.22515   -16.91857     0.00000     0.00000     0.00000
  external pressure =      -17.12 kB  Pullay stress =        0.00 kB


 VOLUME and BASIS-vectors are now :
 -----------------------------------------------------------------------------
  energy-cutoff  :      520.00
  volume of cell :      353.17
      direct lattice vectors                 reciprocal lattice vectors
     2.575303410 -1.486851677  0.000000000     0.388303761  0.000000000  0.000000000
     0.000000000  2.973703354  0.000000000     0.194151881  0.336281021  0.000000000
    -0.000000000  0.000000000 46.116966692     0.000000000  0.000000000  0.021683993

  length of vectors
     2.973704014  2.973703354 46.116966692     0.388303761  0.388303847  0.021683993


 FORCES acting on ions
    electron-ion (+dipol)            ewald-force                    non-local-force                 convergence-correction
 -----------------------------------------------------------------------------------------------
   0.586E-03 -.102E-02 0.159E+04   0.528E-04 -.625E-04 -.159E+04   -.393E-16 0.139E-16 0.180E+01   0.428E-08 -.726E-08 0.109E+00
   -.471E-03 0.815E-03 0.962E+03   -.142E-06 0.162E-06 -.962E+03   0.161E-18 -.136E-19 -.559E-02   0.325E-08 -.531E-08 0.101E+00
   0.583E-03 -.101E-02 0.642E+03   0.576E-04 -.999E-04 -.642E+03   0.569E-18 0.271E-19 -.287E-01   0.216E-08 -.348E-08 0.680E-01
   -.471E-03 0.815E-03 0.116E-01   0.500E-08 -.565E-08 -.963E-03   -.262E-21 -.169E-20 0.325E-18   0.801E-09 -.139E-08 -.182E-03
   0.583E-03 -.101E-02 -.321E+03   0.576E-04 -.998E-04 0.321E+03   0.928E-19 0.678E-20 -.714E-02   0.161E-08 -.261E-08 -.253E-01
   -.471E-03 0.815E-03 -.962E+03   0.112E-06 -.127E-06 0.962E+03   -.167E-18 0.678E-20 0.559E-02   0.357E-08 -.650E-08 -.101E+00
   0.583E-03 -.101E-02 -.128E+04   0.575E-04 -.992E-04 0.128E+04   0.449E-18 0.542E-19 -.248E-01   -.603E-08 0.995E-08 -.122E+00
   -.152E-02 0.264E-02 0.128E+04   -.575E-04 0.991E-04 -.128E+04   -.498E-18 -.542E-19 0.248E-01   0.154E-07 -.262E-07 0.122E+00
   -.152E-02 0.264E-02 0.321E+03   -.576E-04 0.998E-04 -.321E+03   -.930E-19 -.102E-19 0.714E-02   -.612E-08 0.104E-07 0.249E-01
   -.152E-02 0.264E-02 -.641E+03   -.576E-04 0.998E-04 0.642E+03   -.584E-18 -.271E-19 0.287E-01   -.573E-08 0.967E-08 -.683E-01
   -.153E-02 0.265E-02 -.159E+04   -.528E-04 0.625E-04 0.159E+04   0.463E-16 -.139E-16 -.180E+01   -.111E-07 0.190E-07 -.109E+00
   0.211E-04 -.373E-04 0.479E+03   0.108E-05 -.135E-05 -.479E+03   0.666E-19 0.000E+00 -.391E-01   0.270E-09 -.379E-09 0.410E-01
   0.227E-04 -.394E-04 0.160E+03   0.155E-07 -.173E-07 -.160E+03   0.356E-19 -.474E-19 -.282E-02   -.120E-09 0.216E-09 0.143E-01
   0.227E-04 -.393E-04 -.160E+03   -.159E-07 0.178E-07 0.160E+03   -.396E-19 0.271E-19 0.282E-02   0.172E-09 -.306E-09 -.144E-01
   0.224E-04 -.380E-04 -.479E+03   -.108E-05 0.135E-05 0.479E+03   -.607E-19 0.000E+00 0.391E-01   -.252E-09 0.346E-09 -.410E-01
   0.665E-04 -.115E-03 0.267E+03   -.493E-04 0.855E-04 -.267E+03   0.149E-18 -.271E-19 -.122E-01   -.407E-09 0.652E-09 0.275E-01
   0.666E-04 -.115E-03 -.534E+02   -.494E-04 0.855E-04 0.534E+02   -.948E-19 -.271E-19 0.445E-02   -.844E-10 0.103E-09 -.386E-02
   0.666E-04 -.115E-03 -.374E+03   -.493E-04 0.853E-04 0.374E+03   -.314E-18 -.217E-18 0.227E-01   -.405E-09 0.740E-09 -.385E-01
   -.213E-04 0.367E-04 0.374E+03   0.493E-04 -.853E-04 -.374E+03   0.275E-18 0.217E-18 -.227E-01   0.368E-09 -.675E-09 0.385E-01
   -.213E-04 0.368E-04 0.534E+02   0.494E-04 -.855E-04 -.534E+02   0.103E-18 0.271E-19 -.445E-02   0.105E-09 -.139E-09 0.374E-02
   -.212E-04 0.368E-04 -.267E+03   0.493E-04 -.855E-04 0.267E+03   -.175E-18 0.542E-19 0.122E-01   0.404E-09 -.647E-09 -.276E-01
   0.524E-05 -.908E-05 0.438E-02   -.399E-09 0.397E-09 -.103E-01   -.127E-19 0.000E+00 -.651E-18   0.136E-10 -.235E-10 0.802E-04
   0.218E-04 -.248E-04 0.853E+03   -.221E-04 0.233E-04 -.860E+03   -.178E-15 0.833E-16 0.692E+01   0.280E-09 -.318E-09 0.485E-01
   0.222E-04 -.377E-04 0.727E+03   -.286E-05 0.298E-05 -.726E+03   0.401E-16 -.416E-16 -.116E+01   0.382E-10 -.776E-10 0.387E-01
   -.103E-04 0.173E-04 0.164E+03   0.218E-05 -.207E-05 -.166E+03   -.266E-17 0.000E+00 0.162E+01   -.237E-10 0.357E-10 0.147E-01
   0.363E-05 -.192E-04 -.853E+03   0.221E-04 -.233E-04 0.860E+03   0.164E-15 -.694E-16 -.692E+01   -.170E-09 0.128E-09 -.485E-01
   0.207E-04 -.353E-04 -.164E+03   -.218E-05 0.207E-05 0.166E+03   0.261E-17 0.000E+00 -.162E+01   0.569E-10 -.933E-10 -.146E-01
   -.106E-04 0.177E-04 -.727E+03   0.286E-05 -.298E-05 0.726E+03   -.347E-16 0.416E-16 0.116E+01   -.188E-10 0.440E-10 -.386E-01
 -----------------------------------------------------------------------------------------------
   -.490E-02 0.848E-02 0.658E+00   -.924E-13 -.505E-14 0.182E-11   -.161E-17 0.139E-16 0.333E-14   0.235E-08 -.407E-08 -.884E-03
 
 
 POSITION                                       TOTAL-FORCE (eV/Angst)
 -----------------------------------------------------------------------------------
      0.85843      1.48685     11.79538         0.000000     -0.000000     -0.006839
     -0.00000     -0.00000     16.77030        -0.000000      0.000000      0.005429
      0.85843      1.48685     19.24448         0.000000     -0.000000     -0.009172
     -0.00000      0.00000     24.19025        -0.000000     -0.000000     -0.000000
      0.85843      1.48685     26.66367         0.000000      0.000000     -0.006655
     -0.00000      0.00000     31.61000         0.000000     -0.000000     -0.005429
      0.85843      1.48685     34.08405         0.000000      0.000000     -0.005402
      1.71687     -0.00000     14.29637        -0.000000     -0.000000      0.005402
      1.71687     -0.00000     21.71683        -0.000000     -0.000000      0.006655
      1.71687     -0.00000     29.13594        -0.000000      0.000000      0.009172
      1.71687     -0.00000     36.58507        -0.000000      0.000000      0.006839
     -0.00000      0.00000     13.06421        -0.000000     -0.000000      0.004607
     -0.00000      0.00000     20.48080        -0.000000      0.000000      0.005446
     -0.00000      0.00000     27.89965         0.000000     -0.000000     -0.005446
     -0.00000      0.00000     35.31624         0.000000      0.000000     -0.004607
      1.71687     -0.00000     18.00839         0.000000      0.000000     -0.000796
      1.71687     -0.00000     25.42649        -0.000000      0.000000      0.006439
      1.71687     -0.00000     32.84539         0.000000      0.000000     -0.000166
      0.85843      1.48685     15.53527        -0.000000     -0.000000      0.000166
      0.85843      1.48685     22.95390         0.000000     -0.000000     -0.006439
      0.85843      1.48685     30.37225        -0.000000     -0.000000      0.000796
     -0.00000      0.00000      1.13181         0.000000     -0.000000      0.000000
     -0.00000      0.00000     10.32418        -0.000000     -0.000000      0.014230
      1.71687     -0.00000      8.14301         0.000000      0.000000     -0.000853
      0.85843      1.48685      3.42451         0.000000     -0.000000     -0.009352
     -0.00000      0.00000     38.05638         0.000000     -0.000000     -0.014230
      1.71687     -0.00000     44.95600        -0.000000     -0.000000      0.009352
      0.85843      1.48685     40.23753        -0.000000     -0.000000      0.000853
 -----------------------------------------------------------------------------------
    total drift:                               -0.004898      0.008484      0.657465


--------------------------------------------------------------------------------------------------------



  FREE ENERGIE OF THE ION-ELECTRON SYSTEM (eV)
  ---------------------------------------------------
  free  energy   TOTEN  =      -151.10943712 eV

  energy  without entropy=     -151.10449307  energy(sigma->0) =     -151.10696510
 
 d Force = 0.2180398E-03[ 0.800E-04, 0.356E-03]  d Energy = 0.2079322E-03 0.101E-04
 d Force =-0.6678117E+01[-0.668E+01,-0.668E+01]  d Ewald  =-0.6678118E+01 0.211E-06


--------------------------------------------------------------------------------------------------------


    POTLOK:  cpu time    0.22: real time    0.22


--------------------------------------------------------------------------------------------------------


 Conjugate gradient step on ions:
 trial-energy change:   -0.000208  1 .order   -0.000218   -0.000356   -0.000080
  (g-gl).g = 0.203E-03      g.g   = 0.274E-03  gl.gl    = 0.377E-03
 g(Force)  = 0.274E-03   g(Stress)= 0.000E+00 ortho     =-0.262E-05
 gamma     =   0.53748
 trial     =   1.30627
 opt step  =   1.68465  (harmonic =   1.68465) maximal distance =0.00293721
 next E    =  -151.109459   (d E  =  -0.00023)


--------------------------------------------------------------------------------------------------------


  
 reached required accuracy - stopping structural energy minimisation
     LOOP+:  cpu time   41.64: real time   41.69
    4ORBIT:  cpu time    0.00: real time    0.00

 total amount of memory used by VASP on root node   160079. kBytes
========================================================================

   base      :      30000. kBytes
   nonl-proj :      16968. kBytes
   fftplans  :      60349. kBytes
   grid      :      24192. kBytes
   one-center:         56. kBytes
   wavefun   :      28514. kBytes
 
  
  
 General timing and accounting informations for this job:
 ========================================================
  
                  Total CPU time used (sec):     1772.640
                            User time (sec):     1753.761
                          System time (sec):       18.879
                         Elapsed time (sec):     1774.371
  
                   Maximum memory used (kb):      268104.
                   Average memory used (kb):           0.
  
                          Minor page faults:       459857
                          Major page faults:            0
                 Voluntary context switches:          302
