       N       E                     dE             d eps       ncg     rms          rms(c)
DAV:   1     0.526161883125E+03    0.52616E+03   -0.45345E+04  2788   0.135E+03
DAV:   2    -0.988435977090E+02   -0.62501E+03   -0.59474E+03  3630   0.254E+02
DAV:   3    -0.160292444759E+03   -0.61449E+02   -0.61137E+02  3200   0.865E+01
DAV:   4    -0.161119471415E+03   -0.82703E+00   -0.82583E+00  3216   0.109E+01
DAV:   5    -0.161132620483E+03   -0.13149E-01   -0.13143E-01  3344   0.134E+00    0.231E+01
DAV:   6    -0.145074120602E+03    0.16058E+02   -0.94247E+01  3118   0.302E+01    0.787E+00
DAV:   7    -0.144927740566E+03    0.14638E+00   -0.19971E+00  3076   0.534E+00    0.478E+00
DAV:   8    -0.144826045145E+03    0.10170E+00   -0.66442E-01  3154   0.400E+00    0.850E-01
DAV:   9    -0.144798855174E+03    0.27190E-01   -0.17633E-01  3096   0.124E+00    0.511E-01
DAV:  10    -0.144797831322E+03    0.10239E-02   -0.35467E-02  3156   0.763E-01    0.258E-01
DAV:  11    -0.144798947024E+03   -0.11157E-02   -0.42555E-03  3138   0.267E-01    0.173E-01
DAV:  12    -0.144798974751E+03   -0.27728E-04   -0.12758E-03  3920   0.237E-01    0.851E-02
DAV:  13    -0.144798927947E+03    0.46805E-04   -0.13456E-03  3106   0.162E-01    0.312E-02
DAV:  14    -0.144798915182E+03    0.12765E-04   -0.10669E-04  3070   0.491E-02    0.217E-02
DAV:  15    -0.144798904562E+03    0.10620E-04   -0.12891E-05  1806   0.220E-02    0.141E-02
DAV:  16    -0.144798888931E+03    0.15631E-04   -0.70737E-05  3078   0.604E-02    0.144E-02
DAV:  17    -0.144798886763E+03    0.21684E-05   -0.34888E-05  2508   0.334E-02
   1 F= -.14479889E+03 E0= -.14479614E+03  d E =-.144799E+03
       N       E                     dE             d eps       ncg     rms          rms(c)
DAV:   1    -0.144800248883E+03   -0.13600E-02   -0.17935E-02  2912   0.619E-01    0.346E-02
DAV:   2    -0.144800312937E+03   -0.64055E-04   -0.17184E-03  3202   0.185E-01    0.424E-02
DAV:   3    -0.144800284494E+03    0.28443E-04   -0.12484E-04  3110   0.515E-02    0.324E-02
DAV:   4    -0.144800252699E+03    0.31796E-04   -0.69622E-05  2996   0.371E-02    0.132E-02
DAV:   5    -0.144800226765E+03    0.25933E-04   -0.48901E-05  2940   0.571E-02    0.120E-02
DAV:   6    -0.144800214838E+03    0.11927E-04   -0.25403E-05  2304   0.551E-02    0.121E-02
DAV:   7    -0.144800209421E+03    0.54166E-05   -0.45295E-05  2708   0.530E-02
   2 F= -.14480021E+03 E0= -.14479753E+03  d E =-.132266E-02
       N       E                     dE             d eps       ncg     rms          rms(c)
DAV:   1    -0.144800749848E+03   -0.53501E-03   -0.20562E-02  2830   0.634E-01    0.329E-02
DAV:   2    -0.144800758856E+03   -0.90084E-05   -0.12713E-03  3194   0.165E-01    0.335E-02
DAV:   3    -0.144800730930E+03    0.27926E-04   -0.12523E-04  3110   0.548E-02    0.264E-02
DAV:   4    -0.144800701018E+03    0.29912E-04   -0.40006E-05  2784   0.345E-02    0.133E-02
DAV:   5    -0.144800660647E+03    0.40371E-04   -0.60162E-05  3056   0.741E-02    0.115E-02
DAV:   6    -0.144800646147E+03    0.14500E-04   -0.43339E-05  2816   0.626E-02    0.126E-02
DAV:   7    -0.144800640573E+03    0.55742E-05   -0.60729E-05  2852   0.576E-02
   3 F= -.14480064E+03 E0= -.14479803E+03  d E =-.175381E-02
       N       E                     dE             d eps       ncg     rms          rms(c)
DAV:   1    -0.144801394885E+03   -0.74874E-03   -0.15659E-01  2804   0.171E+00    0.536E-02
DAV:   2    -0.144801743050E+03   -0.34817E-03   -0.39022E-03  3036   0.242E-01    0.336E-02
DAV:   3    -0.144801721589E+03    0.21461E-04   -0.36766E-05  2918   0.360E-02    0.224E-02
DAV:   4    -0.144801710077E+03    0.11512E-04   -0.63624E-05  2910   0.525E-02    0.664E-03
DAV:   5    -0.144801713658E+03   -0.35813E-05   -0.29718E-05  2424   0.226E-02    0.693E-03
DAV:   6    -0.144801713748E+03   -0.89606E-07   -0.18406E-06  1528   0.570E-03
   4 F= -.14480171E+03 E0= -.14479915E+03  d E =-.107317E-02
       N       E                     dE             d eps       ncg     rms          rms(c)
DAV:   1    -0.144800364881E+03    0.13488E-02   -0.14093E+00  2772   0.512E+00    0.159E-01
DAV:   2    -0.144803376223E+03   -0.30113E-02   -0.34953E-02  3092   0.724E-01    0.977E-02
DAV:   3    -0.144803121271E+03    0.25495E-03   -0.31772E-04  3216   0.125E-01    0.662E-02
DAV:   4    -0.144802822375E+03    0.29890E-03   -0.57052E-04  3602   0.224E-01    0.201E-02
DAV:   5    -0.144802798329E+03    0.24045E-04   -0.48365E-04  3106   0.107E-01    0.242E-02
DAV:   6    -0.144802775915E+03    0.22414E-04   -0.53765E-05  2738   0.315E-02    0.192E-02
DAV:   7    -0.144802706509E+03    0.69406E-04   -0.33838E-05  2600   0.500E-02    0.101E-02
DAV:   8    -0.144802577554E+03    0.12896E-03   -0.88068E-05  3204   0.131E-01    0.198E-02
DAV:   9    -0.144802484253E+03    0.93301E-04   -0.12179E-04  3742   0.149E-01    0.176E-02
DAV:  10    -0.144802374779E+03    0.10947E-03   -0.31919E-04  4568   0.304E-01    0.408E-02
DAV:  11    -0.144802295522E+03    0.79257E-04   -0.29459E-04  3662   0.212E-01    0.286E-02
DAV:  12    -0.144802283680E+03    0.11841E-04   -0.30934E-04  3068   0.938E-02    0.221E-02
DAV:  13    -0.144802280063E+03    0.36171E-05   -0.15758E-04  3078   0.546E-02    0.263E-02
DAV:  14    -0.144802261428E+03    0.18636E-04   -0.31792E-05  2638   0.837E-02    0.131E-02
DAV:  15    -0.144802263521E+03   -0.20935E-05   -0.10997E-04  2944   0.529E-02    0.890E-03
DAV:  16    -0.144802262204E+03    0.13170E-05   -0.23252E-05  2222   0.261E-02
   5 F= -.14480226E+03 E0= -.14479983E+03  d E =-.162163E-02
       N       E                     dE             d eps       ncg     rms          rms(c)
DAV:   1    -0.144802311947E+03   -0.48426E-04   -0.20254E-01  2838   0.194E+00    0.567E-02
DAV:   2    -0.144802719698E+03   -0.40775E-03   -0.47649E-03  3070   0.271E-01    0.356E-02
DAV:   3    -0.144802684863E+03    0.34835E-04   -0.38161E-05  2886   0.420E-02    0.247E-02
DAV:   4    -0.144802640165E+03    0.44698E-04   -0.87540E-05  3142   0.886E-02    0.674E-03
DAV:   5    -0.144802639523E+03    0.64264E-06   -0.77282E-05  2864   0.399E-02    0.100E-02
DAV:   6    -0.144802638744E+03    0.77819E-06   -0.59803E-06  1696   0.946E-03
   6 F= -.14480264E+03 E0= -.14480017E+03  d E =-.199817E-02
       N       E                     dE             d eps       ncg     rms          rms(c)
DAV:   1    -0.144803007179E+03   -0.36766E-03   -0.14317E-01  2884   0.160E+00    0.448E-02
DAV:   2    -0.144803281997E+03   -0.27482E-03   -0.31364E-03  3002   0.215E-01    0.279E-02
DAV:   3    -0.144803260055E+03    0.21942E-04   -0.36020E-05  2884   0.315E-02    0.197E-02
DAV:   4    -0.144803236162E+03    0.23893E-04   -0.30010E-05  2666   0.399E-02    0.806E-03
DAV:   5    -0.144803224353E+03    0.11809E-04   -0.22723E-05  2300   0.356E-02    0.555E-03
DAV:   6    -0.144803220473E+03    0.38800E-05   -0.96987E-06  1674   0.177E-02
   7 F= -.14480322E+03 E0= -.14480077E+03  d E =-.581728E-03
       N       E                     dE             d eps       ncg     rms          rms(c)
DAV:   1    -0.144802019898E+03    0.12045E-02   -0.12857E+00  2852   0.480E+00    0.140E-01
DAV:   2    -0.144804623976E+03   -0.26041E-02   -0.28726E-02  2984   0.653E-01    0.806E-02
DAV:   3    -0.144804472182E+03    0.15179E-03   -0.28142E-04  3232   0.799E-02    0.560E-02
DAV:   4    -0.144804352196E+03    0.11999E-03   -0.36402E-04  3170   0.100E-01    0.209E-02
DAV:   5    -0.144804332663E+03    0.19532E-04   -0.13789E-04  3074   0.569E-02    0.162E-02
DAV:   6    -0.144804318657E+03    0.14006E-04   -0.28686E-05  2474   0.306E-02    0.849E-03
DAV:   7    -0.144804294361E+03    0.24296E-04   -0.88147E-06  2024   0.403E-02    0.501E-03
DAV:   8    -0.144804253670E+03    0.40690E-04   -0.20391E-05  2184   0.780E-02    0.748E-03
DAV:   9    -0.144804222456E+03    0.31214E-04   -0.27367E-05  2662   0.749E-02    0.733E-03
DAV:  10    -0.144804164664E+03    0.57792E-04   -0.14318E-04  4030   0.211E-01    0.167E-02
DAV:  11    -0.144804167663E+03   -0.29991E-05   -0.14428E-04  2944   0.630E-02    0.220E-02
DAV:  12    -0.144804166846E+03    0.81718E-06   -0.29068E-05  2258   0.219E-02
   8 F= -.14480417E+03 E0= -.14480178E+03  d E =-.152810E-02
       N       E                     dE             d eps       ncg     rms          rms(c)
DAV:   1    -0.144803956708E+03    0.21096E-03   -0.16236E-01  2848   0.171E+00    0.558E-02
DAV:   2    -0.144804289845E+03   -0.33314E-03   -0.38726E-03  3032   0.243E-01    0.313E-02
DAV:   3    -0.144804273201E+03    0.16645E-04   -0.83862E-05  3116   0.397E-02    0.218E-02
DAV:   4    -0.144804263072E+03    0.10128E-04   -0.30807E-05  2494   0.295E-02    0.104E-02
DAV:   5    -0.144804258634E+03    0.44383E-05   -0.14962E-05  1850   0.207E-02    0.575E-03
DAV:   6    -0.144804256989E+03    0.16446E-05   -0.52790E-06  1626   0.118E-02
   9 F= -.14480426E+03 E0= -.14480188E+03  d E =-.161824E-02
       N       E                     dE             d eps       ncg     rms          rms(c)
DAV:   1    -0.144804732342E+03   -0.47371E-03   -0.83895E-02  2828   0.120E+00    0.343E-02
DAV:   2    -0.144804878379E+03   -0.14604E-03   -0.17218E-03  3150   0.162E-01    0.227E-02
DAV:   3    -0.144804864708E+03    0.13671E-04   -0.22790E-05  2222   0.274E-02    0.162E-02
DAV:   4    -0.144804854133E+03    0.10575E-04   -0.44169E-05  2724   0.391E-02    0.623E-03
DAV:   5    -0.144804852595E+03    0.15379E-05   -0.16714E-05  1680   0.200E-02    0.584E-03
DAV:   6    -0.144804851723E+03    0.87136E-06   -0.35877E-06  1580   0.936E-03
  10 F= -.14480485E+03 E0= -.14480248E+03  d E =-.594734E-03
       N       E                     dE             d eps       ncg     rms          rms(c)
DAV:   1    -0.144804710991E+03    0.14160E-03   -0.75542E-01  2812   0.360E+00    0.102E-01
DAV:   2    -0.144806042182E+03   -0.13312E-02   -0.15572E-02  3126   0.485E-01    0.682E-02
DAV:   3    -0.144805929127E+03    0.11305E-03   -0.20611E-04  3180   0.780E-02    0.492E-02
DAV:   4    -0.144805849958E+03    0.79169E-04   -0.42224E-04  3240   0.114E-01    0.196E-02
DAV:   5    -0.144805846557E+03    0.34007E-05   -0.13900E-04  3104   0.521E-02    0.203E-02
DAV:   6    -0.144805841013E+03    0.55437E-05   -0.17518E-05  1734   0.202E-02
  11 F= -.14480584E+03 E0= -.14480348E+03  d E =-.158402E-02
       N       E                     dE             d eps       ncg     rms          rms(c)
DAV:   1    -0.144805747074E+03    0.99483E-04   -0.10048E-01  2824   0.131E+00    0.390E-02
DAV:   2    -0.144805919938E+03   -0.17286E-03   -0.21239E-03  3144   0.182E-01    0.266E-02
DAV:   3    -0.144805900962E+03    0.18975E-04   -0.41464E-05  2894   0.371E-02    0.193E-02
DAV:   4    -0.144805885273E+03    0.15689E-04   -0.39837E-05  2688   0.381E-02    0.883E-03
DAV:   5    -0.144805876046E+03    0.92274E-05   -0.15418E-05  1870   0.324E-02    0.597E-03
DAV:   6    -0.144805870231E+03    0.58147E-05   -0.10382E-05  1810   0.259E-02
  12 F= -.14480587E+03 E0= -.14480351E+03  d E =-.161324E-02
       N       E                     dE             d eps       ncg     rms          rms(c)
DAV:   1    -0.144806270698E+03   -0.39465E-03   -0.11032E-01  2820   0.141E+00    0.402E-02
DAV:   2    -0.144806471646E+03   -0.20095E-03   -0.23429E-03  3126   0.191E-01    0.257E-02
DAV:   3    -0.144806453406E+03    0.18240E-04   -0.44099E-05  2674   0.371E-02    0.177E-02
DAV:   4    -0.144806440988E+03    0.12418E-04   -0.31982E-05  2550   0.369E-02    0.821E-03
DAV:   5    -0.144806436442E+03    0.45458E-05   -0.18725E-05  1864   0.266E-02    0.434E-03
DAV:   6    -0.144806434977E+03    0.14651E-05   -0.74710E-06  1666   0.140E-02
  13 F= -.14480643E+03 E0= -.14480407E+03  d E =-.564745E-03
       N       E                     dE             d eps       ncg     rms          rms(c)
DAV:   1    -0.144805534093E+03    0.90235E-03   -0.99338E-01  2804   0.423E+00    0.123E-01
DAV:   2    -0.144807363474E+03   -0.18294E-02   -0.21586E-02  3126   0.588E-01    0.758E-02
DAV:   3    -0.144807207760E+03    0.15571E-03   -0.45485E-04  3218   0.113E-01    0.559E-02
DAV:   4    -0.144807090481E+03    0.11728E-03   -0.29497E-04  3144   0.101E-01    0.266E-02
DAV:   5    -0.144807035262E+03    0.55219E-04   -0.16021E-04  3304   0.915E-02    0.192E-02
DAV:   6    -0.144807017987E+03    0.17275E-04   -0.99539E-05  3022   0.670E-02    0.118E-02
DAV:   7    -0.144807006864E+03    0.11123E-04   -0.49146E-05  2842   0.509E-02    0.103E-02
DAV:   8    -0.144806999824E+03    0.70401E-05   -0.17024E-05  1994   0.281E-02
  14 F= -.14480700E+03 E0= -.14480463E+03  d E =-.112959E-02
       N       E                     dE             d eps       ncg     rms          rms(c)
DAV:   1    -0.144807291911E+03   -0.28505E-03   -0.57894E-02  2800   0.104E+00    0.324E-02
DAV:   2    -0.144807408243E+03   -0.11633E-03   -0.13667E-03  3082   0.150E-01    0.178E-02
DAV:   3    -0.144807401573E+03    0.66702E-05   -0.34483E-05  2584   0.252E-02    0.138E-02
DAV:   4    -0.144807394710E+03    0.68629E-05   -0.11214E-05  1690   0.151E-02    0.644E-03
DAV:   5    -0.144807388456E+03    0.62540E-05   -0.95588E-06  1770   0.238E-02    0.699E-03
DAV:   6    -0.144807384892E+03    0.35638E-05   -0.39325E-06  1698   0.206E-02
  15 F= -.14480738E+03 E0= -.14480501E+03  d E =-.385068E-03
       N       E                     dE             d eps       ncg     rms          rms(c)
DAV:   1    -0.144807335544E+03    0.52912E-04   -0.51889E-01  2788   0.310E+00    0.935E-02
DAV:   2    -0.144808388915E+03   -0.10534E-02   -0.11835E-02  3058   0.436E-01    0.514E-02
DAV:   3    -0.144808342445E+03    0.46470E-04   -0.22765E-04  3248   0.626E-02    0.389E-02
DAV:   4    -0.144808306198E+03    0.36247E-04   -0.13510E-04  3128   0.499E-02    0.174E-02
DAV:   5    -0.144808292937E+03    0.13261E-04   -0.47307E-05  2932   0.380E-02    0.180E-02
DAV:   6    -0.144808281291E+03    0.11646E-04   -0.25526E-05  2228   0.406E-02    0.106E-02
DAV:   7    -0.144808277524E+03    0.37674E-05   -0.32499E-05  2304   0.297E-02
  16 F= -.14480828E+03 E0= -.14480590E+03  d E =-.127770E-02
       N       E                     dE             d eps       ncg     rms          rms(c)
DAV:   1    -0.144804887916E+03    0.33934E-02   -0.20760E+00  2772   0.621E+00    0.187E-01
DAV:   2    -0.144809053303E+03   -0.41654E-02   -0.46913E-02  3038   0.869E-01    0.101E-01
DAV:   3    -0.144808884766E+03    0.16854E-03   -0.95817E-04  3260   0.127E-01    0.763E-02
DAV:   4    -0.144808754341E+03    0.13042E-03   -0.41465E-04  3186   0.893E-02    0.360E-02
DAV:   5    -0.144808699040E+03    0.55300E-04   -0.20528E-04  3238   0.766E-02    0.321E-02
DAV:   6    -0.144808664776E+03    0.34265E-04   -0.99539E-05  3212   0.720E-02    0.198E-02
DAV:   7    -0.144808652223E+03    0.12553E-04   -0.94309E-05  2950   0.506E-02    0.138E-02
DAV:   8    -0.144808635260E+03    0.16963E-04   -0.25693E-05  2222   0.259E-02    0.119E-02
DAV:   9    -0.144808596352E+03    0.38908E-04   -0.26181E-05  2444   0.692E-02    0.177E-02
DAV:  10    -0.144808556514E+03    0.39838E-04   -0.32158E-05  2692   0.882E-02    0.149E-02
DAV:  11    -0.144808515599E+03    0.40915E-04   -0.29112E-04  4598   0.236E-01    0.209E-02
DAV:  12    -0.144808528001E+03   -0.12402E-04   -0.25356E-04  3012   0.822E-02    0.295E-02
DAV:  13    -0.144808514825E+03    0.13176E-04   -0.40147E-05  2620   0.333E-02    0.209E-02
DAV:  14    -0.144808511338E+03    0.34876E-05   -0.15222E-05  1734   0.153E-02
  17 F= -.14480851E+03 E0= -.14480611E+03  d E =-.151151E-02
       N       E                     dE             d eps       ncg     rms          rms(c)
DAV:   1    -0.144808161170E+03    0.35365E-03   -0.26452E-01  2784   0.221E+00    0.677E-02
DAV:   2    -0.144808679719E+03   -0.51855E-03   -0.59461E-03  3064   0.312E-01    0.352E-02
DAV:   3    -0.144808661430E+03    0.18289E-04   -0.14088E-04  3204   0.485E-02    0.273E-02
DAV:   4    -0.144808647165E+03    0.14265E-04   -0.45985E-05  2860   0.314E-02    0.137E-02
DAV:   5    -0.144808641124E+03    0.60404E-05   -0.32959E-05  2716   0.293E-02    0.107E-02
DAV:   6    -0.144808638789E+03    0.23349E-05   -0.10213E-05  1690   0.199E-02
  18 F= -.14480864E+03 E0= -.14480625E+03  d E =-.163897E-02
       N       E                     dE             d eps       ncg     rms          rms(c)
DAV:   1    -0.144809010852E+03   -0.36973E-03   -0.25470E-01  2884   0.217E+00    0.594E-02
DAV:   2    -0.144809527058E+03   -0.51621E-03   -0.55590E-03  2994   0.294E-01    0.369E-02
DAV:   3    -0.144809492634E+03    0.34425E-04   -0.51186E-05  2818   0.377E-02    0.251E-02
DAV:   4    -0.144809454370E+03    0.38264E-04   -0.64053E-05  3012   0.661E-02    0.670E-03
DAV:   5    -0.144809450656E+03    0.37134E-05   -0.57525E-05  2880   0.396E-02    0.757E-03
DAV:   6    -0.144809449541E+03    0.11157E-05   -0.88613E-06  1682   0.120E-02
  19 F= -.14480945E+03 E0= -.14480705E+03  d E =-.810751E-03
       N       E                     dE             d eps       ncg     rms          rms(c)
DAV:   1    -0.144806829019E+03    0.26216E-02   -0.22932E+00  2900   0.651E+00    0.187E-01
DAV:   2    -0.144811527535E+03   -0.46985E-02   -0.50675E-02  3014   0.887E-01    0.108E-01
DAV:   3    -0.144811215132E+03    0.31240E-03   -0.47481E-04  3310   0.121E-01    0.730E-02
DAV:   4    -0.144810875555E+03    0.33958E-03   -0.57994E-04  3300   0.210E-01    0.210E-02
DAV:   5    -0.144810839299E+03    0.36256E-04   -0.54334E-04  3120   0.126E-01    0.255E-02
DAV:   6    -0.144810833528E+03    0.57711E-05   -0.10045E-04  2796   0.381E-02    0.263E-02
DAV:   7    -0.144810828910E+03    0.46174E-05   -0.29806E-06  1682   0.826E-03
  20 F= -.14481083E+03 E0= -.14480840E+03  d E =-.219012E-02
       N       E                     dE             d eps       ncg     rms          rms(c)
DAV:   1    -0.144792668930E+03    0.18165E-01   -0.91621E+00  2876   0.130E+01    0.388E-01
DAV:   2    -0.144811162956E+03   -0.18494E-01   -0.20326E-01  3038   0.180E+00    0.223E-01
DAV:   3    -0.144809965125E+03    0.11978E-02   -0.33583E-03  3270   0.299E-01    0.147E-01
DAV:   4    -0.144808976199E+03    0.98893E-03   -0.12537E-03  3236   0.248E-01    0.744E-02
DAV:   5    -0.144808292448E+03    0.68375E-03   -0.10035E-03  3390   0.318E-01    0.393E-02
DAV:   6    -0.144808056391E+03    0.23606E-03   -0.10936E-03  3196   0.221E-01    0.326E-02
DAV:   7    -0.144807801432E+03    0.25496E-03   -0.28429E-04  3280   0.147E-01    0.276E-02
DAV:   8    -0.144807297939E+03    0.50349E-03   -0.17496E-04  4112   0.255E-01    0.289E-02
DAV:   9    -0.144806460416E+03    0.83752E-03   -0.11217E-03  3638   0.527E-01    0.578E-02
DAV:  10    -0.144806045406E+03    0.41501E-03   -0.98312E-04  4098   0.441E-01    0.595E-02
DAV:  11    -0.144805960913E+03    0.84494E-04   -0.15612E-03  3608   0.299E-01    0.393E-02
DAV:  12    -0.144805925505E+03    0.35408E-04   -0.59940E-04  3222   0.179E-01    0.203E-02
DAV:  13    -0.144805933977E+03   -0.84717E-05   -0.24086E-04  3108   0.661E-02    0.195E-02
DAV:  14    -0.144805915812E+03    0.18165E-04   -0.69562E-05  2902   0.523E-02    0.122E-02
DAV:  15    -0.144805910698E+03    0.51137E-05   -0.31096E-05  2486   0.317E-02
  21 F= -.14480591E+03 E0= -.14480343E+03  d E =0.272809E-02
       N       E                     dE             d eps       ncg     rms          rms(c)
DAV:   1    -0.144799020742E+03    0.68951E-02   -0.64515E+00  2876   0.109E+01    0.317E-01
DAV:   2    -0.144812753223E+03   -0.13732E-01   -0.14741E-01  2952   0.150E+00    0.187E-01
DAV:   3    -0.144811894725E+03    0.85850E-03   -0.13294E-03  3304   0.190E-01    0.126E-01
DAV:   4    -0.144811042125E+03    0.85260E-03   -0.21119E-03  3274   0.335E-01    0.330E-02
DAV:   5    -0.144811046318E+03   -0.41932E-05   -0.13592E-03  3130   0.160E-01    0.441E-02
DAV:   6    -0.144811037156E+03    0.91623E-05   -0.82053E-05  2750   0.327E-02
  22 F= -.14481104E+03 E0= -.14480862E+03  d E =-.239837E-02
       N       E                     dE             d eps       ncg     rms          rms(c)
DAV:   1    -0.144811234068E+03   -0.18775E-03   -0.12381E-01  2878   0.151E+00    0.714E-02
DAV:   2    -0.144811364136E+03   -0.13007E-03   -0.30469E-03  3044   0.222E-01    0.264E-02
DAV:   3    -0.144811255440E+03    0.10870E-03   -0.42971E-05  2804   0.792E-02    0.192E-02
DAV:   4    -0.144811102799E+03    0.15264E-03   -0.62389E-05  3142   0.113E-01    0.124E-02
DAV:   5    -0.144810887837E+03    0.21496E-03   -0.10930E-04  3536   0.170E-01    0.105E-02
DAV:   6    -0.144810715547E+03    0.17229E-03   -0.12254E-04  3352   0.153E-01    0.981E-03
DAV:   7    -0.144810420881E+03    0.29467E-03   -0.21578E-04  3720   0.333E-01    0.943E-03
DAV:   8    -0.144810255027E+03    0.16585E-03   -0.50844E-04  3994   0.400E-01    0.142E-02
DAV:   9    -0.144810313190E+03   -0.58164E-04   -0.86123E-04  3036   0.124E-01    0.151E-02
DAV:  10    -0.144810305392E+03    0.77988E-05   -0.12184E-04  3092   0.535E-02    0.238E-02
DAV:  11    -0.144810291749E+03    0.13642E-04   -0.56804E-05  2822   0.378E-02    0.717E-03
DAV:  12    -0.144810286977E+03    0.47726E-05   -0.81995E-06  1990   0.264E-02
  23 F= -.14481029E+03 E0= -.14480786E+03  d E =-.164819E-02
       N       E                     dE             d eps       ncg     rms          rms(c)
DAV:   1    -0.144810633398E+03   -0.34165E-03   -0.17921E-01  2844   0.184E+00    0.551E-02
DAV:   2    -0.144811007545E+03   -0.37415E-03   -0.41207E-03  3094   0.257E-01    0.312E-02
DAV:   3    -0.144810988204E+03    0.19342E-04   -0.55202E-05  3134   0.325E-02    0.221E-02
DAV:   4    -0.144810974385E+03    0.13818E-04   -0.52724E-05  2964   0.352E-02    0.891E-03
DAV:   5    -0.144810973533E+03    0.85197E-06   -0.15415E-05  1716   0.199E-02    0.776E-03
DAV:   6    -0.144810972801E+03    0.73222E-06   -0.81031E-06  1574   0.152E-02
  24 F= -.14481097E+03 E0= -.14480854E+03  d E =-.685825E-03
       N       E                     dE             d eps       ncg     rms          rms(c)
DAV:   1    -0.144808912114E+03    0.20614E-02   -0.16122E+00  2820   0.553E+00    0.166E-01
DAV:   2    -0.144812344884E+03   -0.34328E-02   -0.37546E-02  3098   0.777E-01    0.924E-02
DAV:   3    -0.144812180386E+03    0.16450E-03   -0.49505E-04  3296   0.964E-02    0.660E-02
DAV:   4    -0.144812062412E+03    0.11797E-03   -0.47450E-04  3162   0.979E-02    0.270E-02
DAV:   5    -0.144812052328E+03    0.10084E-04   -0.12162E-04  3166   0.575E-02    0.241E-02
DAV:   6    -0.144812044848E+03    0.74804E-05   -0.86169E-05  2976   0.503E-02
  25 F= -.14481204E+03 E0= -.14480957E+03  d E =-.175787E-02
       N       E                     dE             d eps       ncg     rms          rms(c)
DAV:   1    -0.144811880013E+03    0.17231E-03   -0.10023E-01  2832   0.138E+00    0.447E-02
DAV:   2    -0.144812096957E+03   -0.21694E-03   -0.23887E-03  3100   0.197E-01    0.226E-02
DAV:   3    -0.144812086010E+03    0.10947E-04   -0.31374E-05  2470   0.254E-02    0.160E-02
DAV:   4    -0.144812077405E+03    0.86046E-05   -0.34972E-05  2586   0.268E-02    0.670E-03
DAV:   5    -0.144812076369E+03    0.10366E-05   -0.81255E-06  1712   0.171E-02    0.613E-03
DAV:   6    -0.144812075504E+03    0.86457E-06   -0.73524E-06  1732   0.159E-02
  26 F= -.14481208E+03 E0= -.14480959E+03  d E =-.178853E-02
       N       E                     dE             d eps       ncg     rms          rms(c)
DAV:   1    -0.144812582790E+03   -0.50642E-03   -0.26744E-01  2892   0.225E+00    0.683E-02
DAV:   2    -0.144813089093E+03   -0.50630E-03   -0.61271E-03  3094   0.319E-01    0.423E-02
DAV:   3    -0.144813041110E+03    0.47982E-04   -0.14283E-04  3214   0.665E-02    0.313E-02
DAV:   4    -0.144813004000E+03    0.37110E-04   -0.93923E-05  3050   0.559E-02    0.157E-02
DAV:   5    -0.144812980338E+03    0.23662E-04   -0.28410E-05  2494   0.510E-02    0.112E-02
DAV:   6    -0.144812958673E+03    0.21665E-04   -0.22276E-05  2230   0.617E-02    0.539E-03
DAV:   7    -0.144812955260E+03    0.34136E-05   -0.51574E-05  2682   0.357E-02
  27 F= -.14481296E+03 E0= -.14481046E+03  d E =-.879755E-03
       N       E                     dE             d eps       ncg     rms          rms(c)
DAV:   1    -0.144812940400E+03    0.18274E-04   -0.14722E-01  2876   0.167E+00    0.517E-02
DAV:   2    -0.144813204225E+03   -0.26383E-03   -0.34055E-03  3104   0.240E-01    0.307E-02
DAV:   3    -0.144813165284E+03    0.38941E-04   -0.86011E-05  3188   0.572E-02    0.230E-02
DAV:   4    -0.144813123094E+03    0.42189E-04   -0.46287E-05  2790   0.528E-02    0.122E-02
DAV:   5    -0.144813082071E+03    0.41023E-04   -0.22993E-05  2356   0.648E-02    0.103E-02
DAV:   6    -0.144813022101E+03    0.59970E-04   -0.38280E-05  2722   0.113E-01    0.631E-03
DAV:   7    -0.144813003905E+03    0.18197E-04   -0.86066E-05  2922   0.629E-02    0.108E-02
DAV:   8    -0.144812991032E+03    0.12873E-04   -0.28819E-05  2432   0.282E-02    0.920E-03
DAV:   9    -0.144812917803E+03    0.73228E-04   -0.17922E-04  3550   0.193E-01    0.244E-02
DAV:  10    -0.144812915520E+03    0.22838E-05   -0.83250E-05  3056   0.648E-02
  28 F= -.14481292E+03 E0= -.14481040E+03  d E =-.840015E-03
       N       E                     dE             d eps       ncg     rms          rms(c)
DAV:   1    -0.144812908755E+03    0.90482E-05   -0.20913E-02  2972   0.632E-01    0.275E-02
DAV:   2    -0.144812955976E+03   -0.47221E-04   -0.60526E-04  3052   0.973E-02    0.120E-02
DAV:   3    -0.144812951556E+03    0.44199E-05   -0.76233E-06  1858   0.218E-02    0.825E-03
DAV:   4    -0.144812949202E+03    0.23537E-05   -0.20409E-05  2290   0.302E-02    0.393E-03
DAV:   5    -0.144812949620E+03   -0.41754E-06   -0.81613E-06  1516   0.111E-02    0.515E-03
DAV:   6    -0.144812949753E+03   -0.13306E-06   -0.73724E-07  1470   0.323E-03
  29 F= -.14481295E+03 E0= -.14481044E+03  d E =-.874249E-03
       N       E                     dE             d eps       ncg     rms          rms(c)
DAV:   1    -0.144812950640E+03   -0.10204E-05   -0.44308E-03  2940   0.290E-01    0.103E-02
DAV:   2    -0.144812957693E+03   -0.70529E-05   -0.10690E-04  3072   0.419E-02    0.592E-03
DAV:   3    -0.144812956306E+03    0.13871E-05   -0.18213E-06  1676   0.995E-03    0.449E-03
DAV:   4    -0.144812954473E+03    0.18327E-05   -0.36284E-06  1816   0.169E-02    0.190E-03
DAV:   5    -0.144812954125E+03    0.34871E-06   -0.44354E-06  1634   0.122E-02    0.315E-03
DAV:   6    -0.144812954146E+03   -0.20995E-07   -0.14640E-06  1484   0.464E-03
  30 F= -.14481295E+03 E0= -.14481045E+03  d E =-.878641E-03
       N       E                     dE             d eps       ncg     rms          rms(c)
DAV:   1    -0.144813023105E+03   -0.68980E-04   -0.13528E-01  2892   0.159E+00    0.461E-02
DAV:   2    -0.144813286135E+03   -0.26303E-03   -0.30701E-03  3072   0.222E-01    0.295E-02
DAV:   3    -0.144813261595E+03    0.24540E-04   -0.40491E-05  2898   0.360E-02    0.211E-02
DAV:   4    -0.144813238834E+03    0.22761E-04   -0.48954E-05  2754   0.485E-02    0.858E-03
DAV:   5    -0.144813233742E+03    0.50920E-05   -0.31355E-05  2546   0.328E-02    0.749E-03
DAV:   6    -0.144813231525E+03    0.22171E-05   -0.10025E-05  1674   0.160E-02
  31 F= -.14481323E+03 E0= -.14481072E+03  d E =-.277379E-03
       N       E                     dE             d eps       ncg     rms          rms(c)
DAV:   1    -0.144813106607E+03    0.12713E-03   -0.11182E-01  2856   0.145E+00    0.428E-02
DAV:   2    -0.144813317000E+03   -0.21039E-03   -0.25557E-03  3090   0.205E-01    0.267E-02
DAV:   3    -0.144813292590E+03    0.24411E-04   -0.43250E-05  3046   0.392E-02    0.195E-02
DAV:   4    -0.144813267126E+03    0.25463E-04   -0.30518E-05  2506   0.448E-02    0.936E-03
DAV:   5    -0.144813250799E+03    0.16327E-04   -0.22991E-05  2350   0.456E-02    0.689E-03
DAV:   6    -0.144813241002E+03    0.97971E-05   -0.23449E-05  2244   0.389E-02
  32 F= -.14481324E+03 E0= -.14481072E+03  d E =-.286856E-03
       N       E                     dE             d eps       ncg     rms          rms(c)
DAV:   1    -0.144813225126E+03    0.25673E-04   -0.49307E-03  2976   0.306E-01    0.125E-02
DAV:   2    -0.144813232953E+03   -0.78267E-05   -0.15589E-04  3120   0.546E-02    0.833E-03
DAV:   3    -0.144813229968E+03    0.29854E-05   -0.88360E-06  1668   0.138E-02    0.605E-03
DAV:   4    -0.144813226035E+03    0.39327E-05   -0.21541E-06  1708   0.113E-02    0.298E-03
DAV:   5    -0.144813219821E+03    0.62138E-05   -0.21440E-06  1818   0.230E-02    0.301E-03
DAV:   6    -0.144813207730E+03    0.12092E-04   -0.67106E-06  1958   0.626E-02    0.312E-03
DAV:   7    -0.144813202396E+03    0.53335E-05   -0.14693E-05  2214   0.406E-02
  33 F= -.14481320E+03 E0= -.14481068E+03  d E =-.248250E-03
       N       E                     dE             d eps       ncg     rms          rms(c)
DAV:   1    -0.144813172622E+03    0.35108E-04   -0.17703E-02  3020   0.579E-01    0.199E-02
DAV:   2    -0.144813220502E+03   -0.47880E-04   -0.53580E-04  3092   0.898E-02    0.148E-02
DAV:   3    -0.144813215937E+03    0.45652E-05   -0.65116E-06  1722   0.167E-02    0.105E-02
DAV:   4    -0.144813213444E+03    0.24930E-05   -0.26115E-05  2466   0.287E-02    0.436E-03
DAV:   5    -0.144813213487E+03   -0.42665E-07   -0.63235E-06  1496   0.109E-02    0.420E-03
DAV:   6    -0.144813213335E+03    0.15138E-06   -0.91607E-07  1460   0.405E-03
  34 F= -.14481321E+03 E0= -.14481070E+03  d E =-.259190E-03
       N       E                     dE             d eps       ncg     rms          rms(c)
DAV:   1    -0.144813262446E+03   -0.48959E-04   -0.44497E-02  2924   0.914E-01    0.266E-02
DAV:   2    -0.144813350868E+03   -0.88422E-04   -0.10127E-03  3054   0.128E-01    0.169E-02
DAV:   3    -0.144813341957E+03    0.89109E-05   -0.12919E-05  1958   0.243E-02    0.122E-02
DAV:   4    -0.144813332494E+03    0.94624E-05   -0.20490E-05  2352   0.348E-02    0.440E-03
DAV:   5    -0.144813331500E+03    0.99410E-06   -0.15504E-05  1804   0.218E-02    0.483E-03
DAV:   6    -0.144813332082E+03   -0.58220E-06   -0.48214E-06  1506   0.821E-03
  35 F= -.14481333E+03 E0= -.14481081E+03  d E =-.118747E-03
