 vasp.5.3.5 31Mar14 (build Apr 08 2024 10:12:10) complex                        
  
 executed on             LinuxIFC date 2024.07.29  19:37:46
 running on    8 total cores
 distrk:  each k-point on    8 cores,    1 groups
 distr:  one band on NCORES_PER_BAND=   4 cores,    2 groups


--------------------------------------------------------------------------------------------------------


 INCAR:
 POTCAR:    PAW_PBE O 08Apr2002                   
 POTCAR:    PAW_PBE Mg 13Apr2007                  
 POTCAR:    PAW_PBE Al 04Jan2001                  
 POTCAR:    PAW_PBE O 08Apr2002                   
   VRHFIN =O: s2p4                                                              
   LEXCH  = PE                                                                  
   EATOM  =   432.3788 eV,   31.7789 Ry                                         
                                                                                
   TITEL  = PAW_PBE O 08Apr2002                                                 
   LULTRA =        F    use ultrasoft PP ?                                      
   IUNSCR =        1    unscreen: 0-lin 1-nonlin 2-no                           
   RPACOR =    1.200    partial core radius                                     
   POMASS =   16.000; ZVAL   =    6.000    mass and valenz                      
   RCORE  =    1.520    outmost cutoff radius                                   
   RWIGS  =    1.550; RWIGS  =    0.820    wigner-seitz radius (au A)           
   ENMAX  =  400.000; ENMIN  =  300.000 eV                                      
   ICORE  =        2    local potential                                         
   LCOR   =        T    correct aug charges                                     
   LPAW   =        T    paw PP                                                  
   EAUG   =  605.392                                                            
   DEXC   =    0.000                                                            
   RMAX   =    1.553    core radius for proj-oper                               
   RAUG   =    1.300    factor for augmentation sphere                          
   RDEP   =    1.550    radius for radial grids                                 
   RDEPT  =    1.329    core radius for aug-charge                              
                                                                                
   Atomic configuration                                                         
    4 entries                                                                   
     n  l   j            E        occ.                                          
     1  0  0.50      -514.6923   2.0000                                         
     2  0  0.50       -23.9615   2.0000                                         
     2  1  0.50        -9.0305   4.0000                                         
     3  2  1.50        -9.5241   0.0000                                         
   Description                                                                  
     l       E           TYP  RCUT    TYP  RCUT                                 
     0    -23.9615318     23  1.200                                             
     0     -9.5240782     23  1.200                                             
     1     -9.0304911     23  1.520                                             
     1      8.1634956     23  1.520                                             
     2     -9.5240782      7  1.500                                             
  local pseudopotential read in
  partial core-charges read in
  partial kinetic energy density read in
  kinetic energy density of atom read in
  atomic valenz-charges read in
  non local Contribution for L=           0  read in
    real space projection operators read in
  non local Contribution for L=           0  read in
    real space projection operators read in
  non local Contribution for L=           1  read in
    real space projection operators read in
  non local Contribution for L=           1  read in
    real space projection operators read in
    PAW grid and wavefunctions read in
 
   number of l-projection  operators is LMAX  =           4
   number of lm-projection operators is LMMAX =           8
 
 POTCAR:    PAW_PBE Mg 13Apr2007                  
   VRHFIN =Mg: s2p0                                                             
   LEXCH  = PE                                                                  
   EATOM  =    23.0369 eV,    1.6932 Ry                                         
                                                                                
   TITEL  = PAW_PBE Mg 13Apr2007                                                
   LULTRA =        F    use ultrasoft PP ?                                      
   IUNSCR =        1    unscreen: 0-lin 1-nonlin 2-no                           
   RPACOR =    1.500    partial core radius                                     
   POMASS =   24.305; ZVAL   =    2.000    mass and valenz                      
   RCORE  =    2.000    outmost cutoff radius                                   
   RWIGS  =    2.880; RWIGS  =    1.524    wigner-seitz radius (au A)           
   ENMAX  =  200.000; ENMIN  =  100.000 eV                                      
   RCLOC  =    1.506    cutoff for local pot                                    
   LCOR   =        T    correct aug charges                                     
   LPAW   =        T    paw PP                                                  
   EAUG   =  454.734                                                            
   DEXC   =    0.000                                                            
   RMAX   =    2.045    core radius for proj-oper                               
   RAUG   =    1.300    factor for augmentation sphere                          
   RDEP   =    2.025    radius for radial grids                                 
   RDEPT  =    1.942    core radius for aug-charge                              
                                                                                
   Atomic configuration                                                         
    6 entries                                                                   
     n  l   j            E        occ.                                          
     1  0  0.50     -1259.6230   2.0000                                         
     2  0  0.50       -79.8442   2.0000                                         
     2  1  1.50       -46.6121   6.0000                                         
     3  0  0.50        -4.7055   2.0000                                         
     3  1  0.50        -1.3660   0.0000                                         
     3  2  1.50        -1.3606   0.0000                                         
   Description                                                                  
     l       E           TYP  RCUT    TYP  RCUT                                 
     0     -4.7054661     23  2.000                                             
     0     27.2116520     23  2.000                                             
     1      1.3605826     23  2.000                                             
     1     27.2116520     23  2.000                                             
     2     -1.3605826     23  2.000                                             
  local pseudopotential read in
  partial core-charges read in
  partial kinetic energy density read in
  atomic valenz-charges read in
  non local Contribution for L=           0  read in
    real space projection operators read in
  non local Contribution for L=           0  read in
    real space projection operators read in
  non local Contribution for L=           1  read in
    real space projection operators read in
  non local Contribution for L=           1  read in
    real space projection operators read in
  non local Contribution for L=           2  read in
    real space projection operators read in
    PAW grid and wavefunctions read in
 
   number of l-projection  operators is LMAX  =           5
   number of lm-projection operators is LMMAX =          13
 
 POTCAR:    PAW_PBE Al 04Jan2001                  
   VRHFIN =Al: s2p1                                                             
   LEXCH  = PE                                                                  
   EATOM  =    53.5387 eV,    3.9350 Ry                                         
                                                                                
   TITEL  = PAW_PBE Al 04Jan2001                                                
   LULTRA =        F    use ultrasoft PP ?                                      
   IUNSCR =        1    unscreen: 0-lin 1-nonlin 2-no                           
   RPACOR =    1.500    partial core radius                                     
   POMASS =   26.981; ZVAL   =    3.000    mass and valenz                      
   RCORE  =    1.900    outmost cutoff radius                                   
   RWIGS  =    2.650; RWIGS  =    1.402    wigner-seitz radius (au A)           
   ENMAX  =  240.300; ENMIN  =  180.225 eV                                      
   ICORE  =        2    local potential                                         
   LCOR   =        T    correct aug charges                                     
   LPAW   =        T    paw PP                                                  
   EAUG   =  291.052                                                            
   DEXC   =    0.000                                                            
   RMAX   =    1.939    core radius for proj-oper                               
   RAUG   =    1.300    factor for augmentation sphere                          
   RDEP   =    1.966    radius for radial grids                                 
   RDEPT  =    1.856    core radius for aug-charge                              
                                                                                
   Atomic configuration                                                         
    6 entries                                                                   
     n  l   j            E        occ.                                          
     1  0  0.50     -1511.1048   2.0000                                         
     2  0  0.50      -108.1629   2.0000                                         
     2  1  1.50       -69.6402   6.0000                                         
     3  0  0.50        -7.7528   2.0000                                         
     3  1  1.50        -2.7121   1.0000                                         
     3  2  2.50        -2.7212   0.0000                                         
   Description                                                                  
     l       E           TYP  RCUT    TYP  RCUT                                 
     0     -7.7528455     23  1.900                                             
     0     -3.3096929     23  1.900                                             
     1     -2.7120682     23  1.900                                             
     1     13.6058260     23  1.900                                             
     2     -2.7211652      7  1.900                                             
  local pseudopotential read in
  partial core-charges read in
  partial kinetic energy density read in
  atomic valenz-charges read in
  non local Contribution for L=           0  read in
    real space projection operators read in
  non local Contribution for L=           0  read in
    real space projection operators read in
  non local Contribution for L=           1  read in
    real space projection operators read in
  non local Contribution for L=           1  read in
    real space projection operators read in
    PAW grid and wavefunctions read in
 
   number of l-projection  operators is LMAX  =           4
   number of lm-projection operators is LMMAX =           8
 

 ----------------------------------------------------------------------------- 
|                                                                             |
|  ADVICE TO THIS USER RUNNING 'VASP/VAMP'   (HEAR YOUR MASTER'S VOICE ...):  |
|                                                                             |
|      You have a (more or less) 'large supercell' and for larger cells       |
|      it might be more efficient to use real space projection opertators     |
|      So try LREAL= Auto  in the INCAR   file.                               |
|      Mind: At the moment your POTCAR file does not contain real space       |
|       projectors, and has to be modified,  BUT if you                       |
|      want to do an extremely  accurate calculation you might also keep the  |
|      reciprocal projection scheme          (i.e. LREAL=.FALSE.)             |
|                                                                             |
 ----------------------------------------------------------------------------- 

  PAW_PBE O 08Apr2002                   :
 energy of atom  1       EATOM= -432.3788
 kinetic energy error for atom=    0.0208 (will be added to EATOM!!)
  PAW_PBE Mg 13Apr2007                  :
 energy of atom  2       EATOM=  -23.0369
 kinetic energy error for atom=    0.0000 (will be added to EATOM!!)
  PAW_PBE Al 04Jan2001                  :
 energy of atom  3       EATOM=  -53.5387
 kinetic energy error for atom=    0.0002 (will be added to EATOM!!)
 
 
 POSCAR: Layer                                   
  positions in direct lattice
  velocities in cartesian coordinates
 exchange correlation table for  LEXCH =        8
   RHO(1)=    0.500       N(1)  =     2000
   RHO(2)=  100.500       N(2)  =     4000
 


--------------------------------------------------------------------------------------------------------


 ion  position               nearest neighbor table
   1  0.000  0.000  0.277-  14 2.15  14 2.15  14 2.15  18 2.17  18 2.17  18 2.17
   2  0.333  0.667  0.332-  14 2.15  14 2.15  14 2.15  11 2.15  11 2.15  11 2.15
   3  0.000  0.000  0.442-  19 2.15  19 2.15  19 2.15  15 2.15  15 2.15  15 2.15
   4  0.333  0.667  0.497-  12 2.15  12 2.15  12 2.15  15 2.15  15 2.15  15 2.15
   5  0.000  0.000  0.607-  16 2.15  16 2.15  16 2.15  20 2.15  20 2.15  20 2.15
   6  0.333  0.667  0.662-  13 2.15  13 2.15  13 2.15  16 2.15  16 2.15  16 2.15
   7  0.000  0.000  0.772-  21 2.15  21 2.15  21 2.15  17 2.17  17 2.17  17 2.17
   8  0.667  0.333  0.387-  11 2.15  11 2.15  11 2.15  19 2.15  19 2.15  19 2.15
   9  0.667  0.333  0.552-  12 2.15  12 2.15  12 2.15  20 2.15  20 2.15  20 2.15
  10  0.667  0.333  0.717-  21 2.15  21 2.15  21 2.15  13 2.15  13 2.15  13 2.15
  11  0.000  0.000  0.359-   2 2.15   2 2.15   2 2.15   8 2.15   8 2.15   8 2.15  14 3.08  14 3.08
                            14 3.08  19 3.08  19 3.08  19 3.08
  12  0.000  0.000  0.524-   9 2.15   9 2.15   9 2.15   4 2.15   4 2.15   4 2.15  15 3.08  15 3.08
                            15 3.08  20 3.08  20 3.08  20 3.08
  13  0.000  0.000  0.689-  10 2.15  10 2.15  10 2.15   6 2.15   6 2.15   6 2.15  21 3.08  21 3.08
                            21 3.08  16 3.08  16 3.08  16 3.08
  14  0.667  0.333  0.304-   2 2.15   2 2.15   2 2.15   1 2.15   1 2.15   1 2.15  11 3.08  11 3.08
                            11 3.08  18 3.12  18 3.12  18 3.12
  15  0.667  0.333  0.469-   4 2.15   4 2.15   4 2.15   3 2.15   3 2.15   3 2.15  12 3.08  12 3.08
                            12 3.08  19 3.08  19 3.08  19 3.08
  16  0.667  0.333  0.634-   5 2.15   5 2.15   5 2.15   6 2.15   6 2.15   6 2.15  20 3.08  20 3.08
                            20 3.08  13 3.08  13 3.08  13 3.08
  17  0.667  0.333  0.801-   7 2.17   7 2.17   7 2.17  21 3.12  21 3.12  21 3.12  26 3.22  26 3.22
                            26 3.22
  18  0.333  0.667  0.248-   1 2.17   1 2.17   1 2.17  14 3.12  14 3.12  14 3.12  23 3.22  23 3.22
                            23 3.22
  19  0.333  0.667  0.414-   3 2.15   3 2.15   3 2.15   8 2.15   8 2.15   8 2.15  15 3.08  15 3.08
                            15 3.08  11 3.08  11 3.08  11 3.08
  20  0.333  0.667  0.579-   9 2.15   9 2.15   9 2.15   5 2.15   5 2.15   5 2.15  12 3.08  12 3.08
                            12 3.08  16 3.08  16 3.08  16 3.08
  21  0.333  0.667  0.744-  10 2.15  10 2.15  10 2.15   7 2.15   7 2.15   7 2.15  13 3.08  13 3.08
                            13 3.08  17 3.12  17 3.12  17 3.12
  22  0.000  0.000  0.024-  25 3.04  25 3.04  25 3.04  27 3.04  27 3.04  27 3.04
  23  0.000  0.000  0.189-  24 3.13  24 3.13  24 3.13  18 3.22  18 3.22  18 3.22
  24  0.667  0.333  0.133-  25 3.06  25 3.06  25 3.06  23 3.13  23 3.13  23 3.13
  25  0.333  0.667  0.078-  22 3.04  22 3.04  22 3.04  24 3.06  24 3.06  24 3.06
  26  0.000  0.000  0.859-  28 3.13  28 3.13  28 3.13  17 3.22  17 3.22  17 3.22
  27  0.667  0.333  0.970-  22 3.04  22 3.04  22 3.04  28 3.06  28 3.06  28 3.06
  28  0.333  0.667  0.916-  27 3.06  27 3.06  27 3.06  26 3.13  26 3.13  26 3.13
 
  LATTYP: Found a hexagonal cell.
 ALAT       =     2.9932160299
 C/A-ratio  =    15.4587345515
  
  Lattice vectors:
  
 A1 = (   2.5922013181,  -1.4966076735,   0.0000000000)
 A2 = (   0.0000000000,   2.9932153469,   0.0000000000)
 A3 = (  -0.0000000000,   0.0000000000,  46.2713320623)


Analysis of symmetry for initial positions (statically):
=====================================================================
 Subroutine PRICEL returns:
 Original cell was already a primitive cell.
 

 Routine SETGRP: Setting up the symmetry group for a 
 hexagonal supercell.


 Subroutine GETGRP returns: Found 12 space group operations
 (whereof  6 operations were pure point group operations)
 out of a pool of 24 trial point group operations.


The static configuration has the point symmetry C_3v.
 The point group associated with its full space group is D_3d.


Analysis of symmetry for dynamics (positions and initial velocities):
=====================================================================
 Subroutine PRICEL returns:
 Original cell was already a primitive cell.
 

 Routine SETGRP: Setting up the symmetry group for a 
 hexagonal supercell.


 Subroutine GETGRP returns: Found 12 space group operations
 (whereof  6 operations were pure point group operations)
 out of a pool of 24 trial point group operations.


The dynamic configuration has the point symmetry C_3v.
 The point group associated with its full space group is D_3d.


Analysis of constrained symmetry for selective dynamics:
=====================================================================
 Subroutine PRICEL returns:
 Original cell was already a primitive cell.
 

 Routine SETGRP: Setting up the symmetry group for a 
 hexagonal supercell.


 Subroutine GETGRP returns: Found 12 space group operations
 (whereof  6 operations were pure point group operations)
 out of a pool of 24 trial point group operations.


The constrained configuration has the point symmetry C_3v.
 The point group associated with its full space group is D_3d.
 
 
 KPOINTS: K-Spacing Value to Generate K-Mesh: 0.02

Automatic generation of k-mesh.
Space group operators:
 irot       det(A)        alpha          n_x          n_y          n_z        tau_x        tau_y        tau_z
    1     1.000000     0.000000     1.000000     0.000000     0.000000     0.000000     0.000000     0.000000
    2     1.000000   120.000000     0.000000     0.000000    -1.000000     0.000000     0.000000     0.000000
    3     1.000000   120.000000    -0.000000     0.000000     1.000000     0.000000     0.000000     0.000000
    4    -1.000000   180.000000    -0.866025     0.500000    -0.000000     0.000000     0.000000     0.000000
    5    -1.000000   180.000000     0.000000     1.000000     0.000000     0.000000     0.000000     0.000000
    6    -1.000000   180.000000    -0.866025    -0.500000    -0.000000     0.000000     0.000000     0.000000
    7    -1.000000     0.000000     1.000000     0.000000     0.000000    -0.000000    -0.000000     0.048638
    8    -1.000000   120.000000     0.000000     0.000000    -1.000000    -0.000000    -0.000000     0.048638
    9    -1.000000   120.000000    -0.000000     0.000000     1.000000     0.000001     0.000000     0.048638
   10     1.000000   180.000000    -0.866025     0.500000    -0.000000     0.000001     0.000000     0.048638
   11     1.000000   180.000000     0.000000     1.000000     0.000000    -0.000000    -0.000000     0.048638
   12     1.000000   180.000000    -0.866025    -0.500000    -0.000000    -0.000000    -0.000000     0.048638
 
 Subroutine IBZKPT returns following result:
 ===========================================
 
 Found     21 irreducible k-points:
 
 Following reciprocal coordinates:
            Coordinates               Weight
  0.000000  0.000000  0.000000      1.000000
  0.076923  0.000000  0.000000      6.000000
  0.153846  0.000000  0.000000      6.000000
  0.230769  0.000000  0.000000      6.000000
  0.307692  0.000000  0.000000      6.000000
  0.384615  0.000000  0.000000      6.000000
  0.461538  0.000000  0.000000      6.000000
  0.076923  0.076923  0.000000      6.000000
  0.153846  0.076923  0.000000     12.000000
  0.230769  0.076923  0.000000     12.000000
  0.307692  0.076923  0.000000     12.000000
  0.384615  0.076923 -0.000000     12.000000
  0.461538  0.076923  0.000000      6.000000
  0.153846  0.153846  0.000000      6.000000
  0.230769  0.153846  0.000000     12.000000
  0.307692  0.153846  0.000000     12.000000
  0.384615  0.153846  0.000000     12.000000
  0.230769  0.230769  0.000000      6.000000
  0.307692  0.230769  0.000000     12.000000
  0.384615  0.230769  0.000000      6.000000
  0.307692  0.307692 -0.000000      6.000000
 
 Following cartesian coordinates:
            Coordinates               Weight
  0.000000  0.000000  0.000000      1.000000
  0.029675  0.000000  0.000000      6.000000
  0.059350  0.000000  0.000000      6.000000
  0.089024  0.000000  0.000000      6.000000
  0.118699  0.000000  0.000000      6.000000
  0.148374  0.000000  0.000000      6.000000
  0.178049  0.000000  0.000000      6.000000
  0.044512  0.025699  0.000000      6.000000
  0.074187  0.025699  0.000000     12.000000
  0.103862  0.025699  0.000000     12.000000
  0.133537  0.025699  0.000000     12.000000
  0.163211  0.025699  0.000000     12.000000
  0.192886  0.025699  0.000000      6.000000
  0.089024  0.051398  0.000000      6.000000
  0.118699  0.051398  0.000000     12.000000
  0.148374  0.051398  0.000000     12.000000
  0.178049  0.051398  0.000000     12.000000
  0.133537  0.077097  0.000000      6.000000
  0.163211  0.077097  0.000000     12.000000
  0.192886  0.077097  0.000000      6.000000
  0.178049  0.102797  0.000000      6.000000
 


--------------------------------------------------------------------------------------------------------




 Dimension of arrays:
   k-points           NKPTS =     21   k-points in BZ     NKDIM =     21   number of bands    NBANDS=     66
   number of dos      NEDOS =    301   number of ions     NIONS =     28
   non local maximal  LDIM  =      5   non local SUM 2l+1 LMDIM =     13
   total plane-waves  NPLWV = 201600
   max r-space proj   IRMAX =      1   max aug-charges    IRDMAX= 191006
   dimension x,y,z NGX =    24 NGY =   24 NGZ =  350
   dimension x,y,z NGXF=    48 NGYF=   48 NGZF=  700
   support grid    NGXF=    96 NGYF=   96 NGZF= 1400
   ions per type =              10  11   7
 NGX,Y,Z   is equivalent  to a cutoff of  13.33, 13.33, 12.57 a.u.
 NGXF,Y,Z  is equivalent  to a cutoff of  26.66, 26.66, 25.15 a.u.


 I would recommend the setting:
   dimension x,y,z NGX =    22 NGY =   22 NGZ =  344
 SYSTEM =  unknown system                          
 POSCAR =  Layer                                   

 Startparameter for this run:
   NWRITE =      2    write-flag & timer
   PREC   = accura    normal or accurate (medium, high low for compatibility)
   ISTART =      0    job   : 0-new  1-cont  2-samecut
   ICHARG =      2    charge: 1-file 2-atom 10-const
   ISPIN  =      1    spin polarized calculation?
   LNONCOLLINEAR =      F non collinear calculations
   LSORBIT =      F    spin-orbit coupling
   INIWAV =      1    electr: 0-lowe 1-rand  2-diag
   LASPH  =      F    aspherical Exc in radial PAW
   METAGGA=      F    non-selfconsistent MetaGGA calc.

 Electronic Relaxation 1
   ENCUT  =  520.0 eV  38.22 Ry    6.18 a.u.   5.57  5.57 86.03*2*pi/ulx,y,z
   ENINI  =  520.0     initial cutoff
   ENAUG  =  605.4 eV  augmentation charge cutoff
   NELM   =    100;   NELMIN=  6; NELMDL=  0     # of ELM steps 
   EDIFF  = 0.1E-04   stopping-criterion for ELM
   LREAL  =      F    real-space projection
   NLSPLINE    = F    spline interpolate recip. space projectors
   LCOMPAT=      F    compatible to vasp.4.4
   GGA_COMPAT  = T    GGA compatible to vasp.4.4-vasp.4.6
   LMAXPAW     = -100 max onsite density
   LMAXMIX     =    2 max onsite mixed and CHGCAR
   VOSKOWN=      0    Vosko Wilk Nusair interpolation
   ROPT   =    0.00000   0.00000   0.00000
 Ionic relaxation
   EDIFFG = -.2E-01   stopping-criterion for IOM
   NSW    =    500    number of steps for IOM
   NBLOCK =      1;   KBLOCK =    500    inner block; outer block 
   IBRION =      2    ionic relax: 0-MD 1-quasi-New 2-CG
   NFREE  =      1    steps in history (QN), initial steepest desc. (CG)
   ISIF   =      2    stress and relaxation
   IWAVPR =     11    prediction:  0-non 1-charg 2-wave 3-comb
   ISYM   =      2    0-nonsym 1-usesym 2-fastsym
   LCORR  =      T    Harris-Foulkes like correction to forces

   POTIM  = 0.5000    time-step for ionic-motion
   TEIN   =    0.0    initial temperature
   TEBEG  =    0.0;   TEEND  =   0.0 temperature during run
   SMASS  =  -3.00    Nose mass-parameter (am)
   estimated Nose-frequenzy (Omega)   =  0.10E-29 period in steps =****** mass=  -0.205E-27a.u.
   SCALEE = 1.0000    scale energy and forces
   NPACO  =    256;   APACO  = 16.0  distance and # of slots for P.C.
   PSTRESS=    0.0 pullay stress

  Mass of Ions in am
   POMASS =  16.00 24.30 26.98
  Ionic Valenz
   ZVAL   =   6.00  2.00  3.00
  Atomic Wigner-Seitz radii
   RWIGS  =  -1.00 -1.00 -1.00
  virtual crystal weights 
   VCA    =   1.00  1.00  1.00
   NELECT =     103.0000    total number of electrons
   NUPDOWN=      -1.0000    fix difference up-down

 DOS related values:
   EMIN   =  10.00;   EMAX   =-10.00  energy-range for DOS
   EFERMI =   0.00
   ISMEAR =     0;   SIGMA  =   0.05  broadening in eV -4-tet -1-fermi 0-gaus

 Electronic relaxation 2 (details)
   IALGO  =     38    algorithm
   LDIAG  =      T    sub-space diagonalisation (order eigenvalues)
   LSUBROT=      F    optimize rotation matrix (better conditioning)
   TURBO    =      0    0=normal 1=particle mesh
   IRESTART =      0    0=no restart 2=restart with 2 vectors
   NREBOOT  =      0    no. of reboots
   NMIN     =      0    reboot dimension
   EREF     =   0.00    reference energy to select bands
   IMIX   =      4    mixing-type and parameters
     AMIX     =   0.40;   BMIX     =  1.00
     AMIX_MAG =   1.60;   BMIX_MAG =  1.00
     AMIN     =   0.01
     WC   =   100.;   INIMIX=   1;  MIXPRE=   1;  MAXMIX= -45

 Intra band minimization:
   WEIMIN = 0.0010     energy-eigenvalue tresh-hold
   EBREAK =  0.38E-07  absolut break condition
   DEPER  =   0.30     relativ break condition  

   TIME   =   0.40     timestep for ELM

  volume/ion in A,a.u.               =      12.82        86.53
  Fermi-wavevector in a.u.,A,eV,Ry     =   1.079728  2.040390 15.861841  1.165812
  Thomas-Fermi vector in A             =   2.215701
 
 Write flags
   LWAVE  =      F    write WAVECAR
   LCHARG =      T    write CHGCAR
   LVTOT  =      F    write LOCPOT, total local potential
   LVHAR  =      F    write LOCPOT, Hartree potential only
   LELF   =      F    write electronic localiz. function (ELF)
   LORBIT =      0    0 simple, 1 ext, 2 COOP (PROOUT)


 Dipole corrections
   LMONO  =      F    monopole corrections only (constant potential shift)
   LDIPOL =      F    correct potential (dipole corrections)
   IDIPOL =      0    1-x, 2-y, 3-z, 4-all directions 
   EPSILON=  1.0000000 bulk dielectric constant

 Exchange correlation treatment:
   GGA     =    --    GGA type
   LEXCH   =     8    internal setting for exchange type
   VOSKOWN=      0    Vosko Wilk Nusair interpolation
   LHFCALC =     F    Hartree Fock is set to
   LHFONE  =     F    Hartree Fock one center treatment
   AEXX    =    0.0000 exact exchange contribution

 Linear response parameters
   LEPSILON=     F    determine dielectric tensor
   LRPA    =     F    only Hartree local field effects (RPA)
   LNABLA  =     F    use nabla operator in PAW spheres
   LVEL    =     F    velocity operator in full k-point grid
   LINTERFAST=   F  fast interpolation
   KINTER  =     0    interpolate to denser k-point grid
   CSHIFT  =0.1000    complex shift for real part using Kramers Kronig
   OMEGAMAX=  -1.0    maximum frequency
   DEG_THRESHOLD= 0.2000000E-02 threshold for treating states as degnerate
   RTIME   =    0.100 relaxation time in fs

 Orbital magnetization related:
   ORBITALMAG=     F  switch on orbital magnetization
   LCHIMAG   =     F  perturbation theory with respect to B field
   DQ        =  0.001000  dq finite difference perturbation B field



--------------------------------------------------------------------------------------------------------


 conjugate gradient relaxation of ions
   using selective dynamics as specified on POSCAR
 charge density and potential will be updated during run
 non-spin polarized calculation
 Variant of blocked Davidson
 Davidson routine will perform the subspace rotation
 perform sub-space diagonalisation
    after iterative eigenvector-optimisation
 modified Broyden-mixing scheme, WC =      100.0
 initial mixing is a Kerker type mixing with AMIX =  0.4000 and BMIX =      1.0000
 Hartree-type preconditioning will be used
 using additional bands           14
 reciprocal scheme for non local part
 use partial core corrections
 calculate Harris-corrections to forces 
   (improved forces if not selfconsistent)
 use gradient corrections 
 use of overlap-Matrix (Vanderbilt PP)
 Gauss-broadening in eV      SIGMA  =   0.05


--------------------------------------------------------------------------------------------------------


  energy-cutoff  :      520.00
  volume of cell :      359.02
      direct lattice vectors                 reciprocal lattice vectors
     2.592201318 -1.496607673  0.000000000     0.385772507  0.000000000  0.000000000
     0.000000000  2.993215347  0.000000000     0.192886253  0.334088892  0.000000000
    -0.000000000  0.000000000 46.271332062     0.000000000  0.000000000  0.021611654

  length of vectors
     2.993216030  2.993215347 46.271332062     0.385772507  0.385772595  0.021611654


 
 k-points in units of 2pi/SCALE and weight: K-Spacing Value to Generate K-Mesh: 0.02
   0.00000000  0.00000000  0.00000000       0.006
   0.02967481  0.00000000  0.00000000       0.036
   0.05934962  0.00000000  0.00000000       0.036
   0.08902442  0.00000000  0.00000000       0.036
   0.11869923  0.00000000  0.00000000       0.036
   0.14837404  0.00000000  0.00000000       0.036
   0.17804885  0.00000000  0.00000000       0.036
   0.04451221  0.02569915  0.00000000       0.036
   0.07418702  0.02569915  0.00000000       0.071
   0.10386183  0.02569915  0.00000000       0.071
   0.13353664  0.02569915  0.00000000       0.071
   0.16321145  0.02569915  0.00000000       0.071
   0.19288625  0.02569915  0.00000000       0.036
   0.08902442  0.05139829  0.00000000       0.036
   0.11869923  0.05139829  0.00000000       0.071
   0.14837404  0.05139829  0.00000000       0.071
   0.17804885  0.05139829  0.00000000       0.071
   0.13353664  0.07709744  0.00000000       0.036
   0.16321145  0.07709744  0.00000000       0.071
   0.19288625  0.07709744  0.00000000       0.036
   0.17804885  0.10279658  0.00000000       0.036
 
 k-points in reciprocal lattice and weights: K-Spacing Value to Generate K-Mesh: 0.02
   0.00000000  0.00000000  0.00000000       0.006
   0.07692308  0.00000000  0.00000000       0.036
   0.15384615  0.00000000  0.00000000       0.036
   0.23076923  0.00000000  0.00000000       0.036
   0.30769231  0.00000000  0.00000000       0.036
   0.38461538  0.00000000  0.00000000       0.036
   0.46153846  0.00000000  0.00000000       0.036
   0.07692308  0.07692308  0.00000000       0.036
   0.15384615  0.07692308  0.00000000       0.071
   0.23076923  0.07692308  0.00000000       0.071
   0.30769231  0.07692308  0.00000000       0.071
   0.38461538  0.07692308 -0.00000000       0.071
   0.46153846  0.07692308  0.00000000       0.036
   0.15384615  0.15384615  0.00000000       0.036
   0.23076923  0.15384615  0.00000000       0.071
   0.30769231  0.15384615  0.00000000       0.071
   0.38461538  0.15384615  0.00000000       0.071
   0.23076923  0.23076923  0.00000000       0.036
   0.30769231  0.23076923  0.00000000       0.071
   0.38461538  0.23076923  0.00000000       0.036
   0.30769231  0.30769231 -0.00000000       0.036
 
 position of ions in fractional coordinates (direct lattice) 
   0.00000000  0.00000000  0.27660568
   0.33333300  0.66666700  0.33166695
   0.00000000  0.00000000  0.44179641
   0.33333300  0.66666700  0.49682805
   0.00000000  0.00000000  0.60684078
   0.33333300  0.66666700  0.66190896
   0.00000000  0.00000000  0.77203952
   0.66666700  0.33333300  0.38673128
   0.66666700  0.33333300  0.55180749
   0.66666700  0.33333300  0.71697627
   0.00000000  0.00000000  0.35919443
   0.00000000  0.00000000  0.52431823
   0.00000000  0.00000000  0.68944684
   0.66666700  0.33333300  0.30414585
   0.66666700  0.33333300  0.46932727
   0.66666700  0.33333300  0.63436571
   0.66666700  0.33333300  0.80051941
   0.33333300  0.66666700  0.24812592
   0.33333300  0.66666700  0.41427366
   0.33333300  0.66666700  0.57930987
   0.33333300  0.66666700  0.74449742
   0.00000000  0.00000000  0.02431958
   0.00000000  0.00000000  0.18931376
   0.66666700  0.33333300  0.13285993
   0.33333300  0.66666700  0.07832771
   0.00000000  0.00000000  0.85933250
   0.66666700  0.33333300  0.97031056
   0.33333300  0.66666700  0.91578095
 
 position of ions in cartesian coordinates  (Angst):
  -0.00000000  0.00000000 12.79891305
   0.86406624  1.49660917 15.34667143
  -0.00000000  0.00000000 20.44250830
   0.86406624  1.49660917 22.98889588
  -0.00000000  0.00000000 28.07933138
   0.86406624  1.49660917 30.62740907
  -0.00000000  0.00000000 35.72329685
   1.72813508 -0.00000150 17.89457150
   1.72813508 -0.00000150 25.53286776
   1.72813508 -0.00000150 33.17544722
  -0.00000000  0.00000000 16.62040469
  -0.00000000  0.00000000 24.26090310
  -0.00000000  0.00000000 31.90162375
   1.72813508 -0.00000150 14.07323345
   1.72813508 -0.00000150 21.71639797
   1.72813508 -0.00000150 29.35294652
   1.72813508 -0.00000150 37.04109956
   0.86406624  1.49660917 11.48111691
   0.86406624  1.49660917 19.16899427
   0.86406624  1.49660917 26.80543925
   0.86406624  1.49660917 34.44888746
  -0.00000000  0.00000000  1.12529942
  -0.00000000  0.00000000  8.75979994
   1.72813508 -0.00000150  6.14760599
   0.86406624  1.49660917  3.62432725
  -0.00000000  0.00000000 39.76245924
   1.72813508 -0.00000150 44.89756231
   0.86406624  1.49660917 42.37440458
 


--------------------------------------------------------------------------------------------------------


 k-point  1 :   0.0000 0.0000 0.0000  plane waves:    9797
 k-point  2 :   0.0769 0.0000 0.0000  plane waves:    9789
 k-point  3 :   0.1538 0.0000 0.0000  plane waves:    9763
 k-point  4 :   0.2308 0.0000 0.0000  plane waves:    9720
 k-point  5 :   0.3077 0.0000 0.0000  plane waves:    9672
 k-point  6 :   0.3846 0.0000 0.0000  plane waves:    9610
 k-point  7 :   0.4615 0.0000 0.0000  plane waves:    9624
 k-point  8 :   0.0769 0.0769 0.0000  plane waves:    9771
 k-point  9 :   0.1538 0.0769 0.0000  plane waves:    9734
 k-point 10 :   0.2308 0.0769 0.0000  plane waves:    9673
 k-point 11 :   0.3077 0.0769 0.0000  plane waves:    9664
 k-point 12 :   0.3846 0.0769-0.0000  plane waves:    9624
 k-point 13 :   0.4615 0.0769 0.0000  plane waves:    9586
 k-point 14 :   0.1538 0.1538 0.0000  plane waves:    9701
 k-point 15 :   0.2308 0.1538 0.0000  plane waves:    9664
 k-point 16 :   0.3077 0.1538 0.0000  plane waves:    9658
 k-point 17 :   0.3846 0.1538 0.0000  plane waves:    9596
 k-point 18 :   0.2308 0.2308 0.0000  plane waves:    9650
 k-point 19 :   0.3077 0.2308 0.0000  plane waves:    9619
 k-point 20 :   0.3846 0.2308 0.0000  plane waves:    9654
 k-point 21 :   0.3077 0.3077-0.0000  plane waves:    9652

 maximum and minimum number of plane-waves per node :      2459     2381

 maximum number of plane-waves:      9797
 maximum index in each direction: 
   IXMAX=    5   IYMAX=    5   IZMAX=   86
   IXMIN=   -6   IYMIN=   -5   IZMIN=  -86

 NGX is ok and might be reduce to  24
 NGY is ok and might be reduce to  22
 NGZ is ok and might be reduce to 346

 parallel 3D FFT for wavefunctions:
    minimum data exchange during FFTs selected (reduces bandwidth)
 parallel 3D FFT for charge:
    minimum data exchange during FFTs selected (reduces bandwidth)


 total amount of memory used by VASP on root node   159891. kBytes
========================================================================

   base      :      30000. kBytes
   nonl-proj :      17220. kBytes
   fftplans  :      60349. kBytes
   grid      :      24192. kBytes
   one-center:         56. kBytes
   wavefun   :      28074. kBytes
 
     INWAV:  cpu time    0.00: real time    0.00
 Broyden mixing: mesh for mixing (old mesh)
   NGX = 11   NGY = 11   NGZ =173
  (NGX  = 48   NGY  = 48   NGZ  =700)
  gives a total of  20933 points

 initial charge density was supplied:
 charge density of overlapping atoms calculated
 number of electron     103.0000000 magnetization 
 keeping initial charge density in first step


--------------------------------------------------------------------------------------------------------


 Maximum index for augmentation-charges        23001 (set IRDMAX)


--------------------------------------------------------------------------------------------------------


 First call to EWALD:  gamma=   0.249
 Maximum number of real-space cells 7x 7x 1
 Maximum number of reciprocal cells 1x 1x15

 FEWALD executed in parallel
    FEWALD:  cpu time    0.00: real time    0.00


----------------------------------------- Iteration    1(   1)  ---------------------------------------


    POTLOK:  cpu time    0.12: real time    0.12
    SETDIJ:  cpu time    0.11: real time    0.11
     EDDAV:  cpu time    5.13: real time    5.15
       DOS:  cpu time    0.00: real time    0.00
    --------------------------------------------
      LOOP:  cpu time    5.36: real time    5.38

 eigenvalue-minimisations  :  2788
 total energy-change (2. order) : 0.5261619E+03  (-0.4534541E+04)
 number of electron     103.0000000 magnetization 
 augmentation part      103.0000000 magnetization 

 Free energy of the ion-electron system (eV)
  ---------------------------------------------------
  alpha Z        PSCENC =       135.20790883
  Ewald energy   TEWEN  =     19531.43554456
  -Hartree energ DENC   =    -24733.06815570
  -exchange      EXHF   =         0.00000000
  -V(xc)+E(xc)   XCENC  =      -440.99531071
  PAW double counting   =      4647.26951674    -3871.08436696
  entropy T*S    EENTRO =        -0.00474499
  eigenvalues    EBANDS =       305.64692525
  atomic energy  EATOM  =      4951.75456612
  ---------------------------------------------------
  free energy    TOTEN  =       526.16188313 eV

  energy without entropy =      526.16662812  energy(sigma->0) =      526.16425562


--------------------------------------------------------------------------------------------------------




----------------------------------------- Iteration    1(   2)  ---------------------------------------


     EDDAV:  cpu time    6.14: real time    6.15
       DOS:  cpu time    0.00: real time    0.00
    --------------------------------------------
      LOOP:  cpu time    6.14: real time    6.15

 eigenvalue-minimisations  :  3630
 total energy-change (2. order) :-0.6250055E+03  (-0.5947403E+03)
 number of electron     103.0000000 magnetization 
 augmentation part      103.0000000 magnetization 

 Free energy of the ion-electron system (eV)
  ---------------------------------------------------
  alpha Z        PSCENC =       135.20790883
  Ewald energy   TEWEN  =     19531.43554456
  -Hartree energ DENC   =    -24733.06815570
  -exchange      EXHF   =         0.00000000
  -V(xc)+E(xc)   XCENC  =      -440.99531071
  PAW double counting   =      4647.26951674    -3871.08436696
  entropy T*S    EENTRO =        -0.00367833
  eigenvalues    EBANDS =      -319.35962224
  atomic energy  EATOM  =      4951.75456612
  ---------------------------------------------------
  free energy    TOTEN  =       -98.84359771 eV

  energy without entropy =      -98.83991938  energy(sigma->0) =      -98.84175854


--------------------------------------------------------------------------------------------------------




----------------------------------------- Iteration    1(   3)  ---------------------------------------


     EDDAV:  cpu time    5.55: real time    5.56
       DOS:  cpu time    0.00: real time    0.00
    --------------------------------------------
      LOOP:  cpu time    5.55: real time    5.56

 eigenvalue-minimisations  :  3200
 total energy-change (2. order) :-0.6144885E+02  (-0.6113702E+02)
 number of electron     103.0000000 magnetization 
 augmentation part      103.0000000 magnetization 

 Free energy of the ion-electron system (eV)
  ---------------------------------------------------
  alpha Z        PSCENC =       135.20790883
  Ewald energy   TEWEN  =     19531.43554456
  -Hartree energ DENC   =    -24733.06815570
  -exchange      EXHF   =         0.00000000
  -V(xc)+E(xc)   XCENC  =      -440.99531071
  PAW double counting   =      4647.26951674    -3871.08436696
  entropy T*S    EENTRO =        -0.00371421
  eigenvalues    EBANDS =      -380.80843342
  atomic energy  EATOM  =      4951.75456612
  ---------------------------------------------------
  free energy    TOTEN  =      -160.29244476 eV

  energy without entropy =     -160.28873055  energy(sigma->0) =     -160.29058766


--------------------------------------------------------------------------------------------------------




----------------------------------------- Iteration    1(   4)  ---------------------------------------


     EDDAV:  cpu time    5.63: real time    5.64
       DOS:  cpu time    0.00: real time    0.00
    --------------------------------------------
      LOOP:  cpu time    5.63: real time    5.64

 eigenvalue-minimisations  :  3216
 total energy-change (2. order) :-0.8270267E+00  (-0.8258330E+00)
 number of electron     103.0000000 magnetization 
 augmentation part      103.0000000 magnetization 

 Free energy of the ion-electron system (eV)
  ---------------------------------------------------
  alpha Z        PSCENC =       135.20790883
  Ewald energy   TEWEN  =     19531.43554456
  -Hartree energ DENC   =    -24733.06815570
  -exchange      EXHF   =         0.00000000
  -V(xc)+E(xc)   XCENC  =      -440.99531071
  PAW double counting   =      4647.26951674    -3871.08436696
  entropy T*S    EENTRO =        -0.00366447
  eigenvalues    EBANDS =      -381.63550981
  atomic energy  EATOM  =      4951.75456612
  ---------------------------------------------------
  free energy    TOTEN  =      -161.11947141 eV

  energy without entropy =     -161.11580695  energy(sigma->0) =     -161.11763918


--------------------------------------------------------------------------------------------------------




----------------------------------------- Iteration    1(   5)  ---------------------------------------


     EDDAV:  cpu time    5.73: real time    5.74
       DOS:  cpu time    0.00: real time    0.00
    CHARGE:  cpu time    0.45: real time    0.45
    MIXING:  cpu time    0.00: real time    0.00
    --------------------------------------------
      LOOP:  cpu time    6.19: real time    6.20

 eigenvalue-minimisations  :  3344
 total energy-change (2. order) :-0.1314907E-01  (-0.1314340E-01)
 number of electron     103.0000001 magnetization 
 augmentation part        7.7039103 magnetization 

 Broyden mixing:
  rms(total) = 0.23067E+01    rms(broyden)= 0.23062E+01
  rms(prec ) = 0.23563E+01
  weight for this iteration     100.00

 Free energy of the ion-electron system (eV)
  ---------------------------------------------------
  alpha Z        PSCENC =       135.20790883
  Ewald energy   TEWEN  =     19531.43554456
  -Hartree energ DENC   =    -24733.06815570
  -exchange      EXHF   =         0.00000000
  -V(xc)+E(xc)   XCENC  =      -440.99531071
  PAW double counting   =      4647.26951674    -3871.08436696
  entropy T*S    EENTRO =        -0.00366541
  eigenvalues    EBANDS =      -381.64865794
  atomic energy  EATOM  =      4951.75456612
  ---------------------------------------------------
  free energy    TOTEN  =      -161.13262048 eV

  energy without entropy =     -161.12895507  energy(sigma->0) =     -161.13078778


--------------------------------------------------------------------------------------------------------




----------------------------------------- Iteration    1(   6)  ---------------------------------------


    POTLOK:  cpu time    0.11: real time    0.11
    SETDIJ:  cpu time    0.11: real time    0.11
     EDDAV:  cpu time    5.52: real time    5.53
       DOS:  cpu time    0.00: real time    0.00
    CHARGE:  cpu time    0.45: real time    0.45
    MIXING:  cpu time    0.01: real time    0.01
    --------------------------------------------
      LOOP:  cpu time    6.21: real time    6.22

 eigenvalue-minimisations  :  3118
 total energy-change (2. order) : 0.1605850E+02  (-0.9424701E+01)
 number of electron     103.0000002 magnetization 
 augmentation part        6.2125770 magnetization 

 Broyden mixing:
  rms(total) = 0.78720E+00    rms(broyden)= 0.78627E+00
  rms(prec ) = 0.79381E+00
  weight for this iteration     100.00

 eigenvalues of (default mixing * dielectric matrix)
  average eigenvalue GAMMA=   0.8344
  0.8344

 Free energy of the ion-electron system (eV)
  ---------------------------------------------------
  alpha Z        PSCENC =       135.20790883
  Ewald energy   TEWEN  =     19531.43554456
  -Hartree energ DENC   =    -24925.79075197
  -exchange      EXHF   =         0.00000000
  -V(xc)+E(xc)   XCENC  =      -427.50057847
  PAW double counting   =      5471.64793738    -4698.89082684
  entropy T*S    EENTRO =        -0.00459523
  eigenvalues    EBANDS =      -182.93332497
  atomic energy  EATOM  =      4951.75456612
  ---------------------------------------------------
  free energy    TOTEN  =      -145.07412060 eV

  energy without entropy =     -145.06952537  energy(sigma->0) =     -145.07182299


--------------------------------------------------------------------------------------------------------




----------------------------------------- Iteration    1(   7)  ---------------------------------------


    POTLOK:  cpu time    0.11: real time    0.11
    SETDIJ:  cpu time    0.11: real time    0.11
     EDDAV:  cpu time    5.40: real time    5.41
       DOS:  cpu time    0.00: real time    0.00
    CHARGE:  cpu time    0.44: real time    0.44
    MIXING:  cpu time    0.00: real time    0.00
    --------------------------------------------
      LOOP:  cpu time    6.08: real time    6.09

 eigenvalue-minimisations  :  3076
 total energy-change (2. order) : 0.1463800E+00  (-0.1997107E+00)
 number of electron     103.0000002 magnetization 
 augmentation part        6.2628005 magnetization 

 Broyden mixing:
  rms(total) = 0.47771E+00    rms(broyden)= 0.47770E+00
  rms(prec ) = 0.48222E+00
  weight for this iteration     100.00

 eigenvalues of (default mixing * dielectric matrix)
  average eigenvalue GAMMA=   1.6445
  0.9693  2.3196

 Free energy of the ion-electron system (eV)
  ---------------------------------------------------
  alpha Z        PSCENC =       135.20790883
  Ewald energy   TEWEN  =     19531.43554456
  -Hartree energ DENC   =    -24923.01507157
  -exchange      EXHF   =         0.00000000
  -V(xc)+E(xc)   XCENC  =      -427.21155141
  PAW double counting   =      5741.44238164    -4968.18073216
  entropy T*S    EENTRO =        -0.00621362
  eigenvalues    EBANDS =      -186.35457296
  atomic energy  EATOM  =      4951.75456612
  ---------------------------------------------------
  free energy    TOTEN  =      -144.92774057 eV

  energy without entropy =     -144.92152695  energy(sigma->0) =     -144.92463376


--------------------------------------------------------------------------------------------------------




----------------------------------------- Iteration    1(   8)  ---------------------------------------


    POTLOK:  cpu time    0.11: real time    0.11
    SETDIJ:  cpu time    0.13: real time    0.13
     EDDAV:  cpu time    5.53: real time    5.54
       DOS:  cpu time    0.00: real time    0.00
    CHARGE:  cpu time    0.44: real time    0.44
    MIXING:  cpu time    0.00: real time    0.00
    --------------------------------------------
      LOOP:  cpu time    6.21: real time    6.22

 eigenvalue-minimisations  :  3154
 total energy-change (2. order) : 0.1016954E+00  (-0.6644214E-01)
 number of electron     103.0000002 magnetization 
 augmentation part        6.3163437 magnetization 

 Broyden mixing:
  rms(total) = 0.84950E-01    rms(broyden)= 0.84902E-01
  rms(prec ) = 0.10564E+00
  weight for this iteration     100.00

 eigenvalues of (default mixing * dielectric matrix)
  average eigenvalue GAMMA=   1.3722
  2.4359  0.9146  0.7661

 Free energy of the ion-electron system (eV)
  ---------------------------------------------------
  alpha Z        PSCENC =       135.20790883
  Ewald energy   TEWEN  =     19531.43554456
  -Hartree energ DENC   =    -24928.92414792
  -exchange      EXHF   =         0.00000000
  -V(xc)+E(xc)   XCENC  =      -425.72812871
  PAW double counting   =      6211.14024726    -5437.50392716
  entropy T*S    EENTRO =        -0.00469837
  eigenvalues    EBANDS =      -182.20340975
  atomic energy  EATOM  =      4951.75456612
  ---------------------------------------------------
  free energy    TOTEN  =      -144.82604514 eV

  energy without entropy =     -144.82134678  energy(sigma->0) =     -144.82369596


--------------------------------------------------------------------------------------------------------




----------------------------------------- Iteration    1(   9)  ---------------------------------------


    POTLOK:  cpu time    0.11: real time    0.11
    SETDIJ:  cpu time    0.11: real time    0.11
     EDDAV:  cpu time    5.40: real time    5.41
       DOS:  cpu time    0.00: real time    0.00
    CHARGE:  cpu time    0.44: real time    0.44
    MIXING:  cpu time    0.00: real time    0.00
    --------------------------------------------
      LOOP:  cpu time    6.06: real time    6.07

 eigenvalue-minimisations  :  3096
 total energy-change (2. order) : 0.2718997E-01  (-0.1763341E-01)
 number of electron     103.0000002 magnetization 
 augmentation part        6.2965936 magnetization 

 Broyden mixing:
  rms(total) = 0.51143E-01    rms(broyden)= 0.51142E-01
  rms(prec ) = 0.51892E-01
  weight for this iteration     100.00

 eigenvalues of (default mixing * dielectric matrix)
  average eigenvalue GAMMA=   1.3482
  2.4588  0.9792  0.9773  0.9773

 Free energy of the ion-electron system (eV)
  ---------------------------------------------------
  alpha Z        PSCENC =       135.20790883
  Ewald energy   TEWEN  =     19531.43554456
  -Hartree energ DENC   =    -24933.28141024
  -exchange      EXHF   =         0.00000000
  -V(xc)+E(xc)   XCENC  =      -425.33473429
  PAW double counting   =      6239.09933535    -5465.50051928
  entropy T*S    EENTRO =        -0.00531569
  eigenvalues    EBANDS =      -178.17423053
  atomic energy  EATOM  =      4951.75456612
  ---------------------------------------------------
  free energy    TOTEN  =      -144.79885517 eV

  energy without entropy =     -144.79353948  energy(sigma->0) =     -144.79619733


--------------------------------------------------------------------------------------------------------




----------------------------------------- Iteration    1(  10)  ---------------------------------------


    POTLOK:  cpu time    0.11: real time    0.11
    SETDIJ:  cpu time    0.11: real time    0.11
     EDDAV:  cpu time    5.61: real time    5.62
       DOS:  cpu time    0.00: real time    0.00
    CHARGE:  cpu time    0.44: real time    0.44
    MIXING:  cpu time    0.00: real time    0.00
    --------------------------------------------
      LOOP:  cpu time    6.28: real time    6.29

 eigenvalue-minimisations  :  3156
 total energy-change (2. order) : 0.1023852E-02  (-0.3546724E-02)
 number of electron     103.0000002 magnetization 
 augmentation part        6.2772618 magnetization 

 Broyden mixing:
  rms(total) = 0.25816E-01    rms(broyden)= 0.25798E-01
  rms(prec ) = 0.26210E-01
  weight for this iteration     100.00

 eigenvalues of (default mixing * dielectric matrix)
  average eigenvalue GAMMA=   1.2931
  2.5081  1.7323  0.8891  0.8891  0.4470

 Free energy of the ion-electron system (eV)
  ---------------------------------------------------
  alpha Z        PSCENC =       135.20790883
  Ewald energy   TEWEN  =     19531.43554456
  -Hartree energ DENC   =    -24935.25841423
  -exchange      EXHF   =         0.00000000
  -V(xc)+E(xc)   XCENC  =      -425.16074904
  PAW double counting   =      6226.97974822    -5453.41447079
  entropy T*S    EENTRO =        -0.00542884
  eigenvalues    EBANDS =      -176.33653613
  atomic energy  EATOM  =      4951.75456612
  ---------------------------------------------------
  free energy    TOTEN  =      -144.79783132 eV

  energy without entropy =     -144.79240248  energy(sigma->0) =     -144.79511690


--------------------------------------------------------------------------------------------------------




----------------------------------------- Iteration    1(  11)  ---------------------------------------


    POTLOK:  cpu time    0.11: real time    0.11
    SETDIJ:  cpu time    0.11: real time    0.11
     EDDAV:  cpu time    5.48: real time    5.49
       DOS:  cpu time    0.00: real time    0.00
    CHARGE:  cpu time    0.44: real time    0.44
    MIXING:  cpu time    0.00: real time    0.00
    --------------------------------------------
      LOOP:  cpu time    6.15: real time    6.16

 eigenvalue-minimisations  :  3138
 total energy-change (2. order) :-0.1115702E-02  (-0.4255541E-03)
 number of electron     103.0000002 magnetization 
 augmentation part        6.2771614 magnetization 

 Broyden mixing:
  rms(total) = 0.17325E-01    rms(broyden)= 0.17324E-01
  rms(prec ) = 0.17560E-01
  weight for this iteration     100.00

 eigenvalues of (default mixing * dielectric matrix)
  average eigenvalue GAMMA=   1.3840
  2.7556  2.1945  0.9784  0.7125  0.8316  0.8316

 Free energy of the ion-electron system (eV)
  ---------------------------------------------------
  alpha Z        PSCENC =       135.20790883
  Ewald energy   TEWEN  =     19531.43554456
  -Hartree energ DENC   =    -24935.70799277
  -exchange      EXHF   =         0.00000000
  -V(xc)+E(xc)   XCENC  =      -425.09461370
  PAW double counting   =      6202.64591938    -5429.08991737
  entropy T*S    EENTRO =        -0.00554018
  eigenvalues    EBANDS =      -175.94482189
  atomic energy  EATOM  =      4951.75456612
  ---------------------------------------------------
  free energy    TOTEN  =      -144.79894702 eV

  energy without entropy =     -144.79340685  energy(sigma->0) =     -144.79617693


--------------------------------------------------------------------------------------------------------




----------------------------------------- Iteration    1(  12)  ---------------------------------------


    POTLOK:  cpu time    0.11: real time    0.11
    SETDIJ:  cpu time    0.12: real time    0.12
     EDDAV:  cpu time    6.52: real time    6.53
       DOS:  cpu time    0.00: real time    0.00
    CHARGE:  cpu time    0.44: real time    0.44
    MIXING:  cpu time    0.00: real time    0.00
    --------------------------------------------
      LOOP:  cpu time    7.19: real time    7.20

 eigenvalue-minimisations  :  3920
 total energy-change (2. order) :-0.2772782E-04  (-0.1275821E-03)
 number of electron     103.0000002 magnetization 
 augmentation part        6.2750612 magnetization 

 Broyden mixing:
  rms(total) = 0.85062E-02    rms(broyden)= 0.85055E-02
  rms(prec ) = 0.87249E-02
  weight for this iteration     100.00

 eigenvalues of (default mixing * dielectric matrix)
  average eigenvalue GAMMA=   1.3727
  2.8348  2.4464  0.9411  0.9411  0.9056  0.9056  0.6341

 Free energy of the ion-electron system (eV)
  ---------------------------------------------------
  alpha Z        PSCENC =       135.20790883
  Ewald energy   TEWEN  =     19531.43554456
  -Hartree energ DENC   =    -24936.11298303
  -exchange      EXHF   =         0.00000000
  -V(xc)+E(xc)   XCENC  =      -425.04179915
  PAW double counting   =      6183.65273372    -5410.11240287
  entropy T*S    EENTRO =        -0.00551818
  eigenvalues    EBANDS =      -175.57702474
  atomic energy  EATOM  =      4951.75456612
  ---------------------------------------------------
  free energy    TOTEN  =      -144.79897475 eV

  energy without entropy =     -144.79345657  energy(sigma->0) =     -144.79621566


--------------------------------------------------------------------------------------------------------




----------------------------------------- Iteration    1(  13)  ---------------------------------------


    POTLOK:  cpu time    0.11: real time    0.11
    SETDIJ:  cpu time    0.11: real time    0.11
     EDDAV:  cpu time    5.47: real time    5.48
       DOS:  cpu time    0.00: real time    0.00
    CHARGE:  cpu time    0.47: real time    0.47
    MIXING:  cpu time    0.01: real time    0.01
    --------------------------------------------
      LOOP:  cpu time    6.16: real time    6.17

 eigenvalue-minimisations  :  3106
 total energy-change (2. order) : 0.4680463E-04  (-0.1345619E-03)
 number of electron     103.0000002 magnetization 
 augmentation part        6.2788558 magnetization 

 Broyden mixing:
  rms(total) = 0.31220E-02    rms(broyden)= 0.31161E-02
  rms(prec ) = 0.34149E-02
  weight for this iteration     100.00

 eigenvalues of (default mixing * dielectric matrix)
  average eigenvalue GAMMA=   1.2806
  2.8770  2.4667  0.9215  0.9215  0.8886  0.8886  0.6406  0.6406

 Free energy of the ion-electron system (eV)
  ---------------------------------------------------
  alpha Z        PSCENC =       135.20790883
  Ewald energy   TEWEN  =     19531.43554456
  -Hartree energ DENC   =    -24935.74801062
  -exchange      EXHF   =         0.00000000
  -V(xc)+E(xc)   XCENC  =      -425.06758422
  PAW double counting   =      6174.61527274    -5401.07080966
  entropy T*S    EENTRO =        -0.00548547
  eigenvalues    EBANDS =      -175.92033022
  atomic energy  EATOM  =      4951.75456612
  ---------------------------------------------------
  free energy    TOTEN  =      -144.79892795 eV

  energy without entropy =     -144.79344248  energy(sigma->0) =     -144.79618521


--------------------------------------------------------------------------------------------------------




----------------------------------------- Iteration    1(  14)  ---------------------------------------


    POTLOK:  cpu time    0.12: real time    0.12
    SETDIJ:  cpu time    0.13: real time    0.13
     EDDAV:  cpu time    5.45: real time    5.46
       DOS:  cpu time    0.00: real time    0.00
    CHARGE:  cpu time    0.44: real time    0.44
    MIXING:  cpu time    0.00: real time    0.00
    --------------------------------------------
      LOOP:  cpu time    6.15: real time    6.16

 eigenvalue-minimisations  :  3070
 total energy-change (2. order) : 0.1276470E-04  (-0.1066946E-04)
 number of electron     103.0000002 magnetization 
 augmentation part        6.2790292 magnetization 

 Broyden mixing:
  rms(total) = 0.21713E-02    rms(broyden)= 0.21711E-02
  rms(prec ) = 0.25372E-02
  weight for this iteration     100.00

 eigenvalues of (default mixing * dielectric matrix)
  average eigenvalue GAMMA=   1.3207
  2.8273  2.5173  1.0567  1.0567  0.8549  0.8549  0.6501  1.0340  1.0340

 Free energy of the ion-electron system (eV)
  ---------------------------------------------------
  alpha Z        PSCENC =       135.20790883
  Ewald energy   TEWEN  =     19531.43554456
  -Hartree energ DENC   =    -24935.74328863
  -exchange      EXHF   =         0.00000000
  -V(xc)+E(xc)   XCENC  =      -425.07010754
  PAW double counting   =      6173.40260856    -5399.85811263
  entropy T*S    EENTRO =        -0.00548688
  eigenvalues    EBANDS =      -175.92254755
  atomic energy  EATOM  =      4951.75456612
  ---------------------------------------------------
  free energy    TOTEN  =      -144.79891518 eV

  energy without entropy =     -144.79342830  energy(sigma->0) =     -144.79617174


--------------------------------------------------------------------------------------------------------




----------------------------------------- Iteration    1(  15)  ---------------------------------------


    POTLOK:  cpu time    0.11: real time    0.11
    SETDIJ:  cpu time    0.11: real time    0.11
     EDDAV:  cpu time    3.85: real time    3.86
       DOS:  cpu time    0.00: real time    0.00
    CHARGE:  cpu time    0.44: real time    0.44
    MIXING:  cpu time    0.01: real time    0.01
    --------------------------------------------
      LOOP:  cpu time    4.51: real time    4.52

 eigenvalue-minimisations  :  1806
 total energy-change (2. order) : 0.1061989E-04  (-0.1289147E-05)
 number of electron     103.0000002 magnetization 
 augmentation part        6.2791670 magnetization 

 Broyden mixing:
  rms(total) = 0.14113E-02    rms(broyden)= 0.14113E-02
  rms(prec ) = 0.18835E-02
  weight for this iteration     100.00

 eigenvalues of (default mixing * dielectric matrix)
  average eigenvalue GAMMA=   1.3915
  2.9273  2.4705  2.1145  1.0314  1.0314  0.6601  0.9922  0.9922  0.8479  0.8479

 Free energy of the ion-electron system (eV)
  ---------------------------------------------------
  alpha Z        PSCENC =       135.20790883
  Ewald energy   TEWEN  =     19531.43554456
  -Hartree energ DENC   =    -24935.75770884
  -exchange      EXHF   =         0.00000000
  -V(xc)+E(xc)   XCENC  =      -425.07318889
  PAW double counting   =      6173.03562503    -5399.48959265
  entropy T*S    EENTRO =        -0.00548333
  eigenvalues    EBANDS =      -175.90657538
  atomic energy  EATOM  =      4951.75456612
  ---------------------------------------------------
  free energy    TOTEN  =      -144.79890456 eV

  energy without entropy =     -144.79342124  energy(sigma->0) =     -144.79616290


--------------------------------------------------------------------------------------------------------




----------------------------------------- Iteration    1(  16)  ---------------------------------------


    POTLOK:  cpu time    0.11: real time    0.11
    SETDIJ:  cpu time    0.11: real time    0.11
     EDDAV:  cpu time    5.50: real time    5.50
       DOS:  cpu time    0.00: real time    0.00
    CHARGE:  cpu time    0.44: real time    0.44
    MIXING:  cpu time    0.01: real time    0.01
    --------------------------------------------
      LOOP:  cpu time    6.16: real time    6.17

 eigenvalue-minimisations  :  3078
 total energy-change (2. order) : 0.1563090E-04  (-0.7073689E-05)
 number of electron     103.0000002 magnetization 
 augmentation part        6.2790501 magnetization 

 Broyden mixing:
  rms(total) = 0.14365E-02    rms(broyden)= 0.14359E-02
  rms(prec ) = 0.18196E-02
  weight for this iteration     100.00

 eigenvalues of (default mixing * dielectric matrix)
  average eigenvalue GAMMA=   1.3602
  2.8790  2.3146  2.3146  1.0177  1.0177  1.0468  1.0468  0.6563  0.8817  0.8934
  0.8934

 Free energy of the ion-electron system (eV)
  ---------------------------------------------------
  alpha Z        PSCENC =       135.20790883
  Ewald energy   TEWEN  =     19531.43554456
  -Hartree energ DENC   =    -24935.89491148
  -exchange      EXHF   =         0.00000000
  -V(xc)+E(xc)   XCENC  =      -425.07283994
  PAW double counting   =      6172.65313714    -5399.10615273
  entropy T*S    EENTRO =        -0.00549421
  eigenvalues    EBANDS =      -175.77064721
  atomic energy  EATOM  =      4951.75456612
  ---------------------------------------------------
  free energy    TOTEN  =      -144.79888893 eV

  energy without entropy =     -144.79339472  energy(sigma->0) =     -144.79614183


--------------------------------------------------------------------------------------------------------




----------------------------------------- Iteration    1(  17)  ---------------------------------------


    POTLOK:  cpu time    0.11: real time    0.11
    SETDIJ:  cpu time    0.11: real time    0.11
     EDDAV:  cpu time    4.69: real time    4.70
       DOS:  cpu time    0.00: real time    0.00
    --------------------------------------------
      LOOP:  cpu time    4.91: real time    4.92

 eigenvalue-minimisations  :  2508
 total energy-change (2. order) : 0.2168449E-05  (-0.3488764E-05)
 number of electron     103.0000002 magnetization 
 augmentation part        6.2790501 magnetization 

 Free energy of the ion-electron system (eV)
  ---------------------------------------------------
  alpha Z        PSCENC =       135.20790883
  Ewald energy   TEWEN  =     19531.43554456
  -Hartree energ DENC   =    -24935.94634446
  -exchange      EXHF   =         0.00000000
  -V(xc)+E(xc)   XCENC  =      -425.07228922
  PAW double counting   =      6173.01769856    -5399.47175476
  entropy T*S    EENTRO =        -0.00549360
  eigenvalues    EBANDS =      -175.71872278
  atomic energy  EATOM  =      4951.75456612
  ---------------------------------------------------
  free energy    TOTEN  =      -144.79888676 eV

  energy without entropy =     -144.79339316  energy(sigma->0) =     -144.79613996


--------------------------------------------------------------------------------------------------------




 average (electrostatic) potential at core
  the test charge radii are     0.7215  1.0714  1.0406
  (the norm of the test charge is              1.0000)
       1 -70.2899       2 -70.2146       3 -70.2373       4 -70.2508       5 -70.2232
       6 -70.2036       7 -70.2922       8 -70.2205       9 -70.2455      10 -70.2024
      11 -35.8929      12 -35.9231      13 -35.8762      14 -35.8959      15 -35.9239
      16 -35.8915      17 -36.1828      18 -36.1707      19 -35.9091      20 -35.9133
      21 -35.8891      22 -74.7821      23 -74.7306      24 -74.7749      25 -74.7210
      26 -74.7384      27 -74.7246      28 -74.7831
 
 
 
 E-fermi :   6.0671     XC(G=0): -10.1860     alpha+bet :-12.1104


 k-point     1 :       0.0000    0.0000    0.0000
  band No.  band energies     occupation 
      1     -14.4507      2.00000
      2     -14.3781      2.00000
      3     -14.2987      2.00000
      4     -14.1843      2.00000
      5     -14.0474      2.00000
      6     -13.8980      2.00000
      7     -13.7480      2.00000
      8     -13.6113      2.00000
      9     -13.4919      2.00000
     10     -13.4319      2.00000
     11      -3.8220      2.00000
     12      -3.4566      2.00000
     13      -3.0083      2.00000
     14      -2.4496      2.00000
     15      -1.9868      2.00000
     16      -1.8088      2.00000
     17      -1.7829      2.00000
     18      -1.4039      2.00000
     19      -1.2453      2.00000
     20      -0.6804      2.00000
     21      -0.6746      2.00000
     22      -0.0364      2.00000
     23       0.2475      2.00000
     24       0.7850      2.00000
     25       1.0362      2.00000
     26       1.6866      2.00000
     27       1.9786      2.00000
     28       2.1042      2.00000
     29       2.1042      2.00000
     30       2.1539      2.00000
     31       2.1539      2.00000
     32       2.1950      2.00000
     33       2.1950      2.00000
     34       2.2535      2.00000
     35       2.2535      2.00000
     36       2.2680      2.00000
     37       2.3240      2.00000
     38       2.3240      2.00000
     39       2.3987      2.00000
     40       2.3987      2.00000
     41       2.4720      2.00000
     42       2.4720      2.00000
     43       2.5347      2.00000
     44       2.5347      2.00000
     45       2.5960      2.00000
     46       2.5960      2.00000
     47       2.6191      2.00000
     48       2.6191      2.00000
     49       3.0709      2.00000
     50       4.2124      2.00000
     51       5.4842      2.00000
     52       6.6593      0.00000
     53       6.8556      0.00000
     54       7.4747      0.00000
     55       7.6459      0.00000
     56       8.4294      0.00000
     57       8.5372      0.00000
     58       9.3649      0.00000
     59       9.3685      0.00000
     60       9.9709      0.00000
     61      10.0748      0.00000
     62      10.2922      0.00000
     63      10.3875      0.00000
     64      11.3115      0.00000
     65      12.7522      0.00000
     66      14.0150      0.00000

 k-point     2 :       0.0769    0.0000    0.0000
  band No.  band energies     occupation 
      1     -14.3983      2.00000
      2     -14.3269      2.00000
      3     -14.2496      2.00000
      4     -14.1380      2.00000
      5     -14.0045      2.00000
      6     -13.8590      2.00000
      7     -13.7131      2.00000
      8     -13.5804      2.00000
      9     -13.4643      2.00000
     10     -13.4067      2.00000
     11      -3.6918      2.00000
     12      -3.3266      2.00000
     13      -2.8790      2.00000
     14      -2.3229      2.00000
     15      -1.8993      2.00000
     16      -1.7057      2.00000
     17      -1.7028      2.00000
     18      -1.3232      2.00000
     19      -1.1756      2.00000
     20      -0.6371      2.00000
     21      -0.5875      2.00000
     22      -0.0100      2.00000
     23       0.2745      2.00000
     24       0.8348      2.00000
     25       0.9832      2.00000
     26       1.5829      2.00000
     27       1.8720      2.00000
     28       1.8948      2.00000
     29       1.9271      2.00000
     30       1.9756      2.00000
     31       2.0449      2.00000
     32       2.0603      2.00000
     33       2.1102      2.00000
     34       2.1231      2.00000
     35       2.1517      2.00000
     36       2.2049      2.00000
     37       2.2107      2.00000
     38       2.2459      2.00000
     39       2.2819      2.00000
     40       2.3090      2.00000
     41       2.3136      2.00000
     42       2.3525      2.00000
     43       2.3572      2.00000
     44       2.3949      2.00000
     45       2.4312      2.00000
     46       2.4945      2.00000
     47       2.5564      2.00000
     48       2.5797      2.00000
     49       3.1980      2.00000
     50       4.3482      2.00000
     51       5.6391      2.00000
     52       6.8672      0.00000
     53       7.1895      0.00000
     54       7.7223      0.00000
     55       7.8848      0.00000
     56       8.6214      0.00000
     57       8.7501      0.00000
     58       9.5703      0.00000
     59       9.5767      0.00000
     60      10.2125      0.00000
     61      10.3113      0.00000
     62      10.5723      0.00000
     63      10.6271      0.00000
     64      11.4425      0.00000
     65      12.8045      0.00000
     66      13.9472      0.00000

 k-point     3 :       0.1538    0.0000    0.0000
  band No.  band energies     occupation 
      1     -14.2482      2.00000
      2     -14.1806      2.00000
      3     -14.1091      2.00000
      4     -14.0060      2.00000
      5     -13.8828      2.00000
      6     -13.7489      2.00000
      7     -13.6151      2.00000
      8     -13.4942      2.00000
      9     -13.3876      2.00000
     10     -13.3364      2.00000
     11      -3.3017      2.00000
     12      -2.9374      2.00000
     13      -2.4922      2.00000
     14      -1.9462      2.00000
     15      -1.6535      2.00000
     16      -1.4776      2.00000
     17      -1.4138      2.00000
     18      -1.0794      2.00000
     19      -0.9959      2.00000
     20      -0.5337      2.00000
     21      -0.3798      2.00000
     22       0.0721      2.00000
     23       0.2340      2.00000
     24       0.7299      2.00000
     25       0.9124      2.00000
     26       1.2267      2.00000
     27       1.2863      2.00000
     28       1.3218      2.00000
     29       1.3747      2.00000
     30       1.4167      2.00000
     31       1.4965      2.00000
     32       1.5757      2.00000
     33       1.7326      2.00000
     34       1.8647      2.00000
     35       1.9419      2.00000
     36       1.9923      2.00000
     37       1.9955      2.00000
     38       2.0347      2.00000
     39       2.0950      2.00000
     40       2.0950      2.00000
     41       2.1676      2.00000
     42       2.1753      2.00000
     43       2.2446      2.00000
     44       2.3203      2.00000
     45       2.3852      2.00000
     46       2.4483      2.00000
     47       2.4722      2.00000
     48       2.5700      2.00000
     49       3.5253      2.00000
     50       4.7063      2.00000
     51       6.0298      1.70951
     52       7.3412      0.00000
     53       7.9632      0.00000
     54       8.3452      0.00000
     55       8.4735      0.00000
     56       9.0875      0.00000
     57       9.2867      0.00000
     58      10.0524      0.00000
     59      10.0873      0.00000
     60      10.7729      0.00000
     61      10.8771      0.00000
     62      11.2324      0.00000
     63      11.2752      0.00000
     64      11.3459      0.00000
     65      11.6423      0.00000
     66      11.8281      0.00000

 k-point     4 :       0.2308    0.0000    0.0000
  band No.  band energies     occupation 
      1     -14.0222      2.00000
      2     -13.9606      2.00000
      3     -13.8990      2.00000
      4     -13.8100      2.00000
      5     -13.7034      2.00000
      6     -13.5884      2.00000
      7     -13.4740      2.00000
      8     -13.3716      2.00000
      9     -13.2802      2.00000
     10     -13.2387      2.00000
     11      -2.6538      2.00000
     12      -2.2912      2.00000
     13      -1.8518      2.00000
     14      -1.3472      2.00000
     15      -1.2880      2.00000
     16      -1.1505      2.00000
     17      -1.0498      2.00000
     18      -0.8101      2.00000
     19      -0.7286      2.00000
     20      -0.4320      2.00000
     21      -0.3644      2.00000
     22      -0.0848      2.00000
     23       0.1007      2.00000
     24       0.2695      2.00000
     25       0.4662      2.00000
     26       0.5213      2.00000
     27       0.5681      2.00000
     28       0.6284      2.00000
     29       0.7721      2.00000
     30       0.8965      2.00000
     31       1.1548      2.00000
     32       1.3596      2.00000
     33       1.5687      2.00000
     34       1.7714      2.00000
     35       1.7823      2.00000
     36       1.7824      2.00000
     37       1.8335      2.00000
     38       1.8767      2.00000
     39       1.9384      2.00000
     40       1.9384      2.00000
     41       2.0127      2.00000
     42       2.0543      2.00000
     43       2.0914      2.00000
     44       2.1689      2.00000
     45       2.2356      2.00000
     46       2.3001      2.00000
     47       2.3248      2.00000
     48       3.0864      2.00000
     49       4.0642      2.00000
     50       5.2618      2.00000
     51       6.5919      0.00000
     52       7.9019      0.00000
     53       8.7506      0.00000
     54       8.8806      0.00000
     55       9.0528      0.00000
     56       9.1045      0.00000
     57       9.3629      0.00000
     58       9.5481      0.00000
     59       9.6419      0.00000
     60       9.9930      0.00000
     61      10.1011      0.00000
     62      10.5346      0.00000
     63      10.7522      0.00000
     64      10.7989      0.00000
     65      11.2879      0.00000
     66      11.5755      0.00000

 k-point     5 :       0.3077    0.0000    0.0000
  band No.  band energies     occupation 
      1     -13.7564      2.00000
      2     -13.7032      2.00000
      3     -13.6549      2.00000
      4     -13.5851      2.00000
      5     -13.5010      2.00000
      6     -13.4110      2.00000
      7     -13.3221      2.00000
      8     -13.2439      2.00000
      9     -13.1716      2.00000
     10     -13.1418      2.00000
     11      -1.7512      2.00000
     12      -1.3933      2.00000
     13      -1.0311      2.00000
     14      -0.9765      2.00000
     15      -0.9488      2.00000
     16      -0.9204      2.00000
     17      -0.8597      2.00000
     18      -0.8011      2.00000
     19      -0.7316      2.00000
     20      -0.6535      2.00000
     21      -0.5062      2.00000
     22      -0.4318      2.00000
     23      -0.3007      2.00000
     24      -0.2351      2.00000
     25      -0.1436      2.00000
     26      -0.0220      2.00000
     27       0.3117      2.00000
     28       0.4219      2.00000
     29       0.7061      2.00000
     30       0.9499      2.00000
     31       1.2178      2.00000
     32       1.4597      2.00000
     33       1.4676      2.00000
     34       1.6066      2.00000
     35       1.6216      2.00000
     36       1.6731      2.00000
     37       1.7170      2.00000
     38       1.7798      2.00000
     39       1.7799      2.00000
     40       1.8552      2.00000
     41       1.9060      2.00000
     42       1.9354      2.00000
     43       2.0143      2.00000
     44       2.0824      2.00000
     45       2.1480      2.00000
     46       2.1733      2.00000
     47       2.5551      2.00000
     48       3.8504      2.00000
     49       4.8180      2.00000
     50       5.9374      1.99976
     51       6.4146      0.00000
     52       6.8212      0.00000
     53       7.2388      0.00000
     54       7.4647      0.00000
     55       7.8388      0.00000
     56       8.4566      0.00000
     57       8.8076      0.00000
     58       9.3296      0.00000
     59       9.5764      0.00000
     60       9.7916      0.00000
     61       9.9774      0.00000
     62      10.2108      0.00000
     63      10.3396      0.00000
     64      10.6793      0.00000
     65      10.9020      0.00000
     66      11.1709      0.00000

 k-point     6 :       0.3846    0.0000    0.0000
  band No.  band energies     occupation 
      1     -13.5006      2.00000
      2     -13.4575      2.00000
      3     -13.4250      2.00000
      4     -13.3786      2.00000
      5     -13.3211      2.00000
      6     -13.2600      2.00000
      7     -13.1998      2.00000
      8     -13.1488      2.00000
      9     -13.0975      2.00000
     10     -13.0787      2.00000
     11      -1.4334      2.00000
     12      -1.3275      2.00000
     13      -1.1992      2.00000
     14      -1.1475      2.00000
     15      -1.0535      2.00000
     16      -1.0234      2.00000
     17      -0.9336      2.00000
     18      -0.8580      2.00000
     19      -0.8011      2.00000
     20      -0.7618      2.00000
     21      -0.5964      2.00000
     22      -0.2538      2.00000
     23      -0.1419      2.00000
[...]
     17      -0.8736      2.00000
     18      -0.7959      2.00000
     19      -0.6618      2.00000
     20      -0.5216      2.00000
     21      -0.1269      2.00000
     22       0.0105      2.00000
     23       0.1503      2.00000
     24       0.2974      2.00000
     25       0.4648      2.00000
     26       0.4711      2.00000
     27       0.5517      2.00000
     28       0.6168      2.00000
     29       0.6734      2.00000
     30       0.8003      2.00000
     31       0.8580      2.00000
     32       0.9202      2.00000
     33       1.0044      2.00000
     34       1.0323      2.00000
     35       1.1699      2.00000
     36       1.2895      2.00000
     37       1.3448      2.00000
     38       1.3575      2.00000
     39       1.4401      2.00000
     40       1.5138      2.00000
     41       1.6025      2.00000
     42       1.7063      2.00000
     43       1.8104      2.00000
     44       2.3873      2.00000
     45       3.0873      2.00000
     46       3.9656      2.00000
     47       4.2609      2.00000
     48       4.5720      2.00000
     49       4.8924      2.00000
     50       5.1382      2.00000
     51       5.6174      2.00000
     52       5.8443      2.00000
     53       6.0785      1.38627
     54       6.2870      0.00000
     55       6.4077      0.00000
     56       6.6678      0.00000
     57       6.9801      0.00000
     58       7.3463      0.00000
     59       7.3829      0.00000
     60       7.8879      0.00000
     61       8.1972      0.00000
     62       8.5180      0.00000
     63       8.8173      0.00000
     64       9.2354      0.00000
     65       9.7008      0.00000
     66       9.8749      0.00000

 k-point    20 :       0.3846    0.2308    0.0000
  band No.  band energies     occupation 
      1     -13.2196      2.00000
      2     -13.2004      2.00000
      3     -13.1966      2.00000
      4     -13.1736      2.00000
      5     -13.1548      2.00000
      6     -13.1399      2.00000
      7     -13.1220      2.00000
      8     -13.1053      2.00000
      9     -13.0866      2.00000
     10     -13.0591      2.00000
     11      -1.3003      2.00000
     12      -1.2132      2.00000
     13      -1.0893      2.00000
     14      -0.9330      2.00000
     15      -0.8777      2.00000
     16      -0.8422      2.00000
     17      -0.8121      2.00000
     18      -0.7993      2.00000
     19      -0.7554      2.00000
     20      -0.7333      2.00000
     21       0.0618      2.00000
     22       0.0984      2.00000
     23       0.1384      2.00000
     24       0.1611      2.00000
     25       0.2153      2.00000
     26       0.2438      2.00000
     27       0.2781      2.00000
     28       0.4231      2.00000
     29       0.5766      2.00000
     30       0.7351      2.00000
     31       0.9439      2.00000
     32       0.9650      2.00000
     33       1.1367      2.00000
     34       1.1535      2.00000
     35       1.2493      2.00000
     36       1.2806      2.00000
     37       1.4171      2.00000
     38       1.5075      2.00000
     39       1.5657      2.00000
     40       1.5820      2.00000
     41       2.5185      2.00000
     42       2.5216      2.00000
     43       2.8327      2.00000
     44       2.8659      2.00000
     45       3.2779      2.00000
     46       3.3210      2.00000
     47       3.8425      2.00000
     48       3.8667      2.00000
     49       4.4358      2.00000
     50       4.6774      2.00000
     51       5.3359      2.00000
     52       5.6078      2.00000
     53       5.7344      2.00000
     54       6.0236      1.96038
     55       6.3274      0.00000
     56       6.5362      0.00000
     57       6.6263      0.00000
     58       7.1555      0.00000
     59       7.6697      0.00000
     60       7.7436      0.00000
     61       7.9444      0.00000
     62       8.3880      0.00000
     63       8.6671      0.00000
     64       8.8956      0.00000
     65       9.3994      0.00000
     66       9.9375      0.00000

 k-point    21 :       0.3077    0.3077   -0.0000
  band No.  band energies     occupation 
      1     -13.1911      2.00000
      2     -13.1765      2.00000
      3     -13.1685      2.00000
      4     -13.1486      2.00000
      5     -13.1316      2.00000
      6     -13.1216      2.00000
      7     -13.1113      2.00000
      8     -13.0987      2.00000
      9     -13.0820      2.00000
     10     -13.0596      2.00000
     11      -0.9501      2.00000
     12      -0.9475      2.00000
     13      -0.8752      2.00000
     14      -0.8663      2.00000
     15      -0.7778      2.00000
     16      -0.7639      2.00000
     17      -0.6568      2.00000
     18      -0.5554      2.00000
     19      -0.5167      2.00000
     20      -0.4512      2.00000
     21      -0.3509      2.00000
     22      -0.3011      2.00000
     23      -0.1617      2.00000
     24      -0.1516      2.00000
     25      -0.0167      2.00000
     26       0.0225      2.00000
     27       0.1164      2.00000
     28       0.1867      2.00000
     29       0.2753      2.00000
     30       0.3097      2.00000
     31       0.9417      2.00000
     32       0.9655      2.00000
     33       1.1424      2.00000
     34       1.2622      2.00000
     35       1.3208      2.00000
     36       1.3485      2.00000
     37       1.3954      2.00000
     38       1.4005      2.00000
     39       1.4379      2.00000
     40       1.5389      2.00000
     41       2.3958      2.00000
     42       2.7278      2.00000
     43       3.1731      2.00000
     44       3.7330      2.00000
     45       4.0150      2.00000
     46       4.0179      2.00000
     47       4.3205      2.00000
     48       4.3492      2.00000
     49       4.4194      2.00000
     50       4.7591      2.00000
     51       4.7627      2.00000
     52       5.1615      2.00000
     53       5.3295      2.00000
     54       5.4463      2.00000
     55       5.9844      1.99846
     56       6.0787      1.38319
     57       6.5782      0.00000
     58       6.8633      0.00000
     59       7.1457      0.00000
     60       7.5744      0.00000
     61       7.9367      0.00000
     62       8.1774      0.00000
     63       8.3626      0.00000
     64       9.0394      0.00000
     65       9.3591      0.00000
     66       9.4770      0.00000


--------------------------------------------------------------------------------------------------------


 soft charge-density along one line, spin component           1
         0         1         2         3         4         5         6         7         8         9
 total charge-density along one line
 
 pseudopotential strength for first ion, spin component:           1
 12.213   0.000 -14.863   0.000   0.000   0.000  -0.004   0.000  -0.000   0.000  -0.000   0.000   0.004   0.000   0.000   0.000
-14.863   0.000  18.107   0.000  -0.000   0.000   0.005   0.000   0.000   0.000   0.000   0.000  -0.006   0.000  -0.000   0.000
  0.000   0.000  -0.000   0.000  -8.365   0.000  -0.000   0.000   0.000   0.000  10.026   0.000   0.000   0.000  -0.000   0.000
 -0.004   0.000   0.005   0.000  -0.000   0.000  -8.375   0.000   0.000   0.000   0.000   0.000  10.039   0.000  -0.000   0.000
 -0.000   0.000   0.000   0.000   0.000   0.000   0.000   0.000  -8.365   0.000  -0.000   0.000  -0.000   0.000  10.026   0.000
 -0.000   0.000   0.000   0.000  10.026   0.000   0.000   0.000  -0.000   0.000 -11.858   0.000  -0.000   0.000   0.000   0.000
  0.004   0.000  -0.006   0.000   0.000   0.000  10.039   0.000  -0.000   0.000  -0.000   0.000 -11.876   0.000   0.000   0.000
  0.000   0.000  -0.000   0.000  -0.000   0.000  -0.000   0.000  10.026   0.000   0.000   0.000   0.000   0.000 -11.858   0.000
 total augmentation occupancy for first ion, spin component:           1
  2.572   0.348   0.000   0.011  -0.000   0.000   0.001  -0.000
  0.348   0.075  -0.000   0.009  -0.000  -0.000  -0.003   0.000
  0.000  -0.000   2.129  -0.000  -0.000   0.248  -0.000  -0.000
  0.011   0.009   0.000   2.109  -0.000  -0.000   0.253  -0.000
 -0.000  -0.000  -0.000  -0.000   2.129  -0.000  -0.000   0.248
  0.000  -0.000   0.248  -0.000   0.000   0.032   0.000  -0.000
  0.001  -0.003  -0.000   0.253  -0.000   0.000   0.034  -0.000
 -0.000   0.000  -0.000  -0.000   0.248  -0.000  -0.000   0.032


------------------------ aborting loop because EDIFF is reached ----------------------------------------


    CHARGE:  cpu time    0.43: real time    0.43
    FORLOC:  cpu time    0.04: real time    0.04
    FORNL :  cpu time    3.69: real time    3.70
    STRESS:  cpu time    4.74: real time    4.74
    FORCOR:  cpu time    0.15: real time    0.15
    FORHAR:  cpu time    0.06: real time    0.06
    MIXING:  cpu time    0.00: real time    0.00
    OFIELD:  cpu time    0.00: real time    0.00

  FORCE on cell =-STRESS in cart. coord.  units (eV):
  Direction    XX          YY          ZZ          XY          YZ          ZX
  --------------------------------------------------------------------------------------
  Alpha Z   135.20791   135.20791   135.20791
  Ewald   22966.27233 22966.27272-25654.87657    -0.00009     0.00006    -0.00021
  Hartree 24729.10207 24729.10198-23778.03942    -0.00000     0.00000     0.00004
  E(xc)    -423.17103  -423.17105  -422.93946    -0.00000     0.00000     0.00000
  Local  -48937.53823-48937.53777 48190.15817    -0.00013    -0.00005     0.00010
  n-local   -44.52656   -58.75400   -51.94406     2.99613    -1.54637     5.18750
  augment    60.02114    60.02089    59.22024     0.00018    -0.00000     0.00000
  Kinetic  1535.56913  1494.85115  1500.39316     0.85063    -0.41550     1.66846
  Fock        0.00000     0.00000     0.00000     0.00000     0.00000     0.00000
  -------------------------------------------------------------------------------------
  Total      -6.53572    -6.53572   -22.82004     0.00000     0.00000     0.00000
  in kB     -29.16658   -29.16656  -101.83762     0.00000     0.00000     0.00000
  external pressure =      -53.39 kB  Pullay stress =        0.00 kB


 VOLUME and BASIS-vectors are now :
 -----------------------------------------------------------------------------
  energy-cutoff  :      520.00
  volume of cell :      359.02
      direct lattice vectors                 reciprocal lattice vectors
     2.592201318 -1.496607673  0.000000000     0.385772507  0.000000000  0.000000000
     0.000000000  2.993215347  0.000000000     0.192886253  0.334088892  0.000000000
    -0.000000000  0.000000000 46.271332062     0.000000000  0.000000000  0.021611654

  length of vectors
     2.993216030  2.993215347 46.271332062     0.385772507  0.385772595  0.021611654


 FORCES acting on ions
    electron-ion (+dipol)            ewald-force                    non-local-force                 convergence-correction
 -----------------------------------------------------------------------------------------------
   -.473E-03 0.823E-03 0.148E+04   -.335E-05 0.260E-05 -.149E+04   -.475E-17 0.217E-18 0.122E+01   0.461E-08 -.759E-08 -.204E-01
   0.588E-03 -.102E-02 0.116E+04   0.540E-04 -.935E-04 -.116E+04   0.383E-18 0.217E-18 0.510E-01   0.760E-08 -.128E-07 -.116E-01
   -.474E-03 0.820E-03 0.497E+03   0.709E-08 -.114E-07 -.497E+03   0.894E-19 -.407E-19 -.211E-01   0.618E-08 -.108E-07 0.339E-01
   0.588E-03 -.102E-02 0.166E+03   0.543E-04 -.940E-04 -.166E+03   0.993E-19 -.542E-19 -.358E-01   -.481E-08 0.873E-08 0.196E-01
   -.474E-03 0.820E-03 -.497E+03   -.109E-07 0.157E-07 0.497E+03   -.977E-19 0.407E-19 0.211E-01   0.707E-08 -.121E-07 -.340E-01
   0.588E-03 -.102E-02 -.828E+03   0.540E-04 -.935E-04 0.828E+03   -.217E-19 -.169E-19 0.884E-02   0.141E-07 -.243E-07 -.133E-01
   -.478E-03 0.824E-03 -.148E+04   0.336E-05 -.261E-05 0.148E+04   0.481E-17 0.000E+00 -.122E+01   0.522E-08 -.943E-08 0.204E-01
   -.154E-02 0.266E-02 0.828E+03   -.540E-04 0.935E-04 -.828E+03   0.261E-19 0.136E-19 -.884E-02   -.399E-07 0.690E-07 0.132E-01
   -.154E-02 0.266E-02 -.166E+03   -.543E-04 0.940E-04 0.166E+03   -.107E-18 0.813E-19 0.358E-01   0.139E-07 -.245E-07 -.196E-01
   -.154E-02 0.266E-02 -.116E+04   -.540E-04 0.935E-04 0.116E+04   -.393E-18 -.217E-18 -.510E-01   -.196E-07 0.336E-07 0.116E-01
   0.214E-04 -.371E-04 0.331E+03   0.585E-08 -.656E-08 -.331E+03   -.186E-19 0.271E-19 -.186E-02   0.369E-09 -.757E-09 -.217E-04
   0.216E-04 -.374E-04 -.106E-02   0.202E-08 -.224E-08 0.115E-01   0.447E-20 0.000E+00 -.217E-18   -.202E-10 0.350E-10 -.106E-04
   0.215E-04 -.372E-04 -.331E+03   -.779E-08 0.873E-08 0.331E+03   0.106E-19 -.271E-19 0.186E-02   -.241E-09 0.534E-09 0.167E-04
   0.633E-04 -.110E-03 0.441E+03   -.467E-04 0.808E-04 -.441E+03   0.131E-18 -.434E-18 -.566E-01   0.537E-09 -.111E-08 -.560E-02
   0.633E-04 -.110E-03 0.111E+03   -.468E-04 0.810E-04 -.111E+03   0.573E-20 -.644E-19 -.695E-02   0.185E-08 -.325E-08 0.110E-01
   0.632E-04 -.110E-03 -.221E+03   -.467E-04 0.808E-04 0.221E+03   -.109E-20 0.000E+00 0.136E-02   0.228E-08 -.424E-08 -.738E-02
   0.421E-04 -.588E-04 -.532E+03   -.239E-04 0.257E-04 0.532E+03   0.513E-17 -.347E-17 0.209E+00   0.180E-10 -.802E-10 0.661E-02
   -.189E-04 0.186E-04 0.532E+03   0.239E-04 -.257E-04 -.532E+03   -.513E-17 0.347E-17 -.209E+00   -.669E-10 0.165E-09 -.660E-02
   -.203E-04 0.351E-04 0.221E+03   0.467E-04 -.808E-04 -.221E+03   0.740E-21 -.678E-20 -.136E-02   -.223E-08 0.416E-08 0.736E-02
   -.203E-04 0.352E-04 -.111E+03   0.468E-04 -.810E-04 0.111E+03   -.436E-20 0.542E-19 0.695E-02   -.191E-08 0.335E-08 -.110E-01
   -.203E-04 0.352E-04 -.441E+03   0.467E-04 -.808E-04 0.441E+03   -.126E-18 0.130E-17 0.566E-01   -.538E-09 0.111E-08 0.560E-02
   0.491E-05 -.851E-05 0.133E-02   -.122E-09 0.116E-09 0.536E-02   -.665E-21 0.136E-19 -.542E-19   -.193E-11 0.334E-11 0.160E-04
   0.425E-05 -.760E-05 0.571E+03   0.508E-06 -.459E-06 -.570E+03   0.106E-16 0.000E+00 -.642E+00   -.365E-10 0.505E-10 -.667E-02
   0.195E-04 -.339E-04 0.371E+03   -.180E-05 0.328E-05 -.371E+03   0.135E-18 0.347E-17 0.155E+00   -.253E-10 0.257E-10 -.447E-02
   -.964E-05 0.167E-04 0.185E+03   0.204E-05 -.351E-05 -.185E+03   -.850E-18 -.694E-17 -.344E-01   0.190E-11 -.163E-10 -.247E-02
   0.451E-05 -.757E-05 -.571E+03   -.509E-06 0.459E-06 0.570E+03   -.141E-16 0.000E+00 0.642E+00   -.392E-11 0.195E-10 0.668E-02
   0.194E-04 -.336E-04 -.185E+03   -.204E-05 0.351E-05 0.185E+03   -.441E-18 0.520E-17 0.344E-01   -.665E-11 0.245E-10 0.250E-02
   -.977E-05 0.170E-04 -.371E+03   0.180E-05 -.328E-05 0.371E+03   -.376E-18 -.347E-17 -.155E+00   0.173E-10 -.119E-10 0.450E-02
 -----------------------------------------------------------------------------------------------
   -.449E-02 0.778E-02 -.565E+00   -.698E-13 -.210E-13 0.966E-12   -.497E-17 -.630E-18 -.111E-15   -.563E-08 0.975E-08 -.150E-03
 
 
 POSITION                                       TOTAL-FORCE (eV/Angst)
 -----------------------------------------------------------------------------------
     -0.00000     -0.00000     12.86930        -0.000000     -0.000000      0.001658
      0.86407      1.49661     15.40122         0.000000     -0.000000      0.002764
     -0.00000     -0.00000     20.46726         0.000000     -0.000000     -0.010346
      0.86407      1.49661     22.99787         0.000000      0.000000     -0.019483
     -0.00000      0.00000     28.05458        -0.000000      0.000000      0.010346
      0.86407      1.49661     30.58723         0.000000      0.000000      0.007000
     -0.00000      0.00000     35.65291         0.000000      0.000000     -0.001658
      1.72814     -0.00000     17.93475        -0.000000     -0.000000     -0.007000
      1.72814     -0.00000     25.52389        -0.000000     -0.000000      0.019483
      1.72814     -0.00000     33.12090        -0.000000      0.000000     -0.002764
     -0.00000     -0.00000     16.66805        -0.000000      0.000000      0.007079
     -0.00000      0.00000     24.26090        -0.000000      0.000000     -0.000000
     -0.00000      0.00000     31.85398         0.000000      0.000000     -0.007079
      1.72814     -0.00000     14.13529        -0.000000      0.000000      0.004911
      1.72814     -0.00000     21.73287         0.000000      0.000000     -0.009136
      1.72814     -0.00000     29.32092         0.000000      0.000000     -0.002061
      1.72814     -0.00000     36.96220         0.000000      0.000000     -0.010380
      0.86407      1.49661     11.56002        -0.000000      0.000000      0.010380
      0.86407      1.49661     19.20102        -0.000000      0.000000      0.002061
      0.86407      1.49661     26.78897        -0.000000      0.000000      0.009136
      0.86407      1.49661     34.38683         0.000000      0.000000     -0.004911
     -0.00000      0.00000      1.12530        -0.000000      0.000000     -0.000000
     -0.00000      0.00000      8.82931        -0.000000      0.000000      0.007319
      1.72814     -0.00000      6.20409        -0.000000      0.000000      0.005079
      0.86407      1.49661      3.66052        -0.000000      0.000000      0.001048
     -0.00000      0.00000     39.69295         0.000000      0.000000     -0.007319
      1.72814     -0.00000     44.86137         0.000000      0.000000     -0.001048
      0.86407      1.49661     42.31792         0.000000      0.000000     -0.005079
 -----------------------------------------------------------------------------------
    total drift:                               -0.004491      0.007779     -0.565170


--------------------------------------------------------------------------------------------------------



  FREE ENERGIE OF THE ION-ELECTRON SYSTEM (eV)
  ---------------------------------------------------
  free  energy   TOTEN  =      -144.81333208 eV

  energy  without entropy=     -144.80828633  energy(sigma->0) =     -144.81080921
 
 d Force = 0.1219532E-03[ 0.828E-04, 0.161E-03]  d Energy = 0.1187471E-03 0.321E-05
 d Force =-0.8923594E+01[-0.893E+01,-0.892E+01]  d Ewald  =-0.8923594E+01-0.282E-07


--------------------------------------------------------------------------------------------------------


    POTLOK:  cpu time    0.22: real time    0.22


--------------------------------------------------------------------------------------------------------


 Conjugate gradient step on ions:
 trial-energy change:   -0.000119  1 .order   -0.000122   -0.000161   -0.000083
  (g-gl).g = 0.194E-03      g.g   = 0.169E-03  gl.gl    = 0.438E-03
 g(Force)  = 0.169E-03   g(Stress)= 0.000E+00 ortho     =-0.156E-04
 gamma     =   0.44308
 trial     =   0.99291
 opt step  =   2.04394  (harmonic =   2.04394) maximal distance =0.00247960
 next E    =  -144.813379   (d E  =  -0.00017)


--------------------------------------------------------------------------------------------------------


  
 reached required accuracy - stopping structural energy minimisation
     LOOP+:  cpu time   39.02: real time   39.07
    4ORBIT:  cpu time    0.00: real time    0.00

 total amount of memory used by VASP on root node   159891. kBytes
========================================================================

   base      :      30000. kBytes
   nonl-proj :      17220. kBytes
   fftplans  :      60349. kBytes
   grid      :      24192. kBytes
   one-center:         56. kBytes
   wavefun   :      28074. kBytes
 
  
  
 General timing and accounting informations for this job:
 ========================================================
  
                  Total CPU time used (sec):     1891.026
                            User time (sec):     1870.969
                          System time (sec):       20.057
                         Elapsed time (sec):     1894.027
  
                   Maximum memory used (kb):      268708.
                   Average memory used (kb):           0.
  
                          Minor page faults:       463450
                          Major page faults:            0
                 Voluntary context switches:          117
