       N       E                     dE             d eps       ncg     rms          rms(c)
DAV:   1     0.455114014412E+03    0.45511E+03   -0.41645E+04  2750   0.126E+03
DAV:   2    -0.959838219665E+02   -0.55110E+03   -0.51848E+03  3480   0.241E+02
DAV:   3    -0.146815304574E+03   -0.50831E+02   -0.50514E+02  3260   0.781E+01
DAV:   4    -0.147441898363E+03   -0.62659E+00   -0.62558E+00  3280   0.949E+00
DAV:   5    -0.147451744917E+03   -0.98466E-02   -0.98414E-02  3290   0.118E+00    0.221E+01
DAV:   6    -0.132123063105E+03    0.15329E+02   -0.81056E+01  3030   0.277E+01    0.733E+00
DAV:   7    -0.131978993441E+03    0.14407E+00   -0.15635E+00  3120   0.467E+00    0.452E+00
DAV:   8    -0.131895381196E+03    0.83612E-01   -0.64128E-01  3250   0.328E+00    0.800E-01
DAV:   9    -0.131852822209E+03    0.42559E-01   -0.20493E-01  3170   0.998E-01    0.388E-01
DAV:  10    -0.131852750786E+03    0.71423E-04   -0.27721E-02  3210   0.577E-01    0.254E-01
DAV:  11    -0.131852989411E+03   -0.23863E-03   -0.22034E-03  3155   0.179E-01    0.180E-01
DAV:  12    -0.131853194362E+03   -0.20495E-03   -0.12676E-03  3350   0.176E-01    0.638E-02
DAV:  13    -0.131853218996E+03   -0.24633E-04   -0.42943E-04  3200   0.859E-02    0.170E-02
DAV:  14    -0.131853208182E+03    0.10814E-04   -0.91970E-05  3210   0.367E-02    0.121E-02
DAV:  15    -0.131853205004E+03    0.31778E-05   -0.10979E-05  2070   0.132E-02
   1 F= -.13185321E+03 E0= -.13184954E+03  d E =-.131853E+03
       N       E                     dE             d eps       ncg     rms          rms(c)
DAV:   1    -0.133665995684E+03   -0.18128E+01   -0.62529E+01  2980   0.345E+01    0.560E+00
DAV:   2    -0.133210343042E+03    0.45565E+00   -0.66792E-01  3195   0.339E+00    0.323E+00
DAV:   3    -0.132960904904E+03    0.24944E+00   -0.32016E-01  3295   0.264E+00    0.328E-01
DAV:   4    -0.132960211301E+03    0.69360E-03   -0.51365E-02  3225   0.857E-01    0.275E-01
DAV:   5    -0.132958939749E+03    0.12716E-02   -0.37779E-03  3240   0.263E-01    0.159E-01
DAV:   6    -0.132957514022E+03    0.14257E-02   -0.18432E-03  3250   0.202E-01    0.678E-02
DAV:   7    -0.132956516413E+03    0.99761E-03   -0.72866E-04  3450   0.183E-01    0.326E-02
DAV:   8    -0.132955698084E+03    0.81833E-03   -0.69558E-04  3770   0.193E-01    0.312E-02
DAV:   9    -0.132955176999E+03    0.52109E-03   -0.31315E-04  3445   0.163E-01    0.191E-02
DAV:  10    -0.132954421737E+03    0.75526E-03   -0.10118E-03  4200   0.354E-01    0.273E-02
DAV:  11    -0.132954288405E+03    0.13333E-03   -0.66630E-04  3270   0.151E-01    0.207E-02
DAV:  12    -0.132953995028E+03    0.29338E-03   -0.30210E-04  4135   0.274E-01    0.254E-02
DAV:  13    -0.132953915392E+03    0.79637E-04   -0.21195E-04  3580   0.139E-01    0.186E-02
DAV:  14    -0.132953855467E+03    0.59924E-04   -0.20937E-04  4050   0.171E-01    0.121E-02
DAV:  15    -0.132953832618E+03    0.22849E-04   -0.10331E-04  3370   0.137E-01    0.100E-02
DAV:  16    -0.132953838814E+03   -0.61958E-05   -0.12916E-04  3010   0.583E-02    0.112E-02
DAV:  17    -0.132953837381E+03    0.14324E-05   -0.13494E-05  2020   0.157E-02
   2 F= -.13295384E+03 E0= -.13295127E+03  d E =-.110063E+01
       N       E                     dE             d eps       ncg     rms          rms(c)
DAV:   1    -0.133339864121E+03   -0.38603E+00   -0.20370E+01  2945   0.197E+01    0.321E+00
DAV:   2    -0.133178911442E+03    0.16095E+00   -0.23663E-01  3170   0.199E+00    0.182E+00
DAV:   3    -0.133100840642E+03    0.78071E-01   -0.93366E-02  3370   0.141E+00    0.234E-01
DAV:   4    -0.133099832554E+03    0.10081E-02   -0.15100E-02  3280   0.482E-01    0.141E-01
DAV:   5    -0.133099491188E+03    0.34137E-03   -0.99361E-04  3230   0.135E-01    0.881E-02
DAV:   6    -0.133099081117E+03    0.41007E-03   -0.51467E-04  3260   0.103E-01    0.382E-02
DAV:   7    -0.133098817915E+03    0.26320E-03   -0.19055E-04  3580   0.864E-02    0.197E-02
DAV:   8    -0.133098569634E+03    0.24828E-03   -0.18952E-04  3265   0.970E-02    0.165E-02
DAV:   9    -0.133098363509E+03    0.20612E-03   -0.14912E-04  3750   0.123E-01    0.116E-02
DAV:  10    -0.133098140636E+03    0.22287E-03   -0.33108E-04  3940   0.210E-01    0.133E-02
DAV:  11    -0.133098090106E+03    0.50530E-04   -0.24237E-04  3180   0.105E-01    0.107E-02
DAV:  12    -0.133098027277E+03    0.62829E-04   -0.51060E-05  3285   0.114E-01    0.991E-03
DAV:  13    -0.133097993191E+03    0.34086E-04   -0.73539E-05  3530   0.121E-01    0.619E-03
DAV:  14    -0.133097982832E+03    0.10358E-04   -0.79769E-05  3445   0.111E-01    0.642E-03
DAV:  15    -0.133097988778E+03   -0.59463E-05   -0.85512E-05  2965   0.379E-02
   3 F= -.13309799E+03 E0= -.13309716E+03  d E =-.124478E+01
       N       E                     dE             d eps       ncg     rms          rms(c)
DAV:   1    -0.133101334967E+03   -0.33521E-02   -0.15267E-01  2990   0.169E+00    0.278E-01
DAV:   2    -0.133100074752E+03    0.12602E-02   -0.18599E-03  3170   0.171E-01    0.156E-01
DAV:   3    -0.133099504621E+03    0.57013E-03   -0.74235E-04  3335   0.121E-01    0.249E-02
DAV:   4    -0.133099491575E+03    0.13046E-04   -0.14040E-04  3170   0.441E-02    0.118E-02
DAV:   5    -0.133099488757E+03    0.28177E-05   -0.14238E-05  2050   0.167E-02    0.593E-03
DAV:   6    -0.133099486043E+03    0.27146E-05   -0.33371E-06  1815   0.863E-03
   4 F= -.13309949E+03 E0= -.13309842E+03  d E =-.124628E+01
       N       E                     dE             d eps       ncg     rms          rms(c)
DAV:   1    -0.133264205697E+03   -0.16472E+00   -0.18132E+00  2840   0.512E+00    0.979E-01
DAV:   2    -0.133244883619E+03    0.19322E-01   -0.14586E-01  3070   0.142E+00    0.325E-01
DAV:   3    -0.133244097320E+03    0.78630E-03   -0.82952E-03  3230   0.372E-01    0.174E-01
DAV:   4    -0.133243670843E+03    0.42648E-03   -0.26099E-03  3265   0.226E-01    0.840E-02
DAV:   5    -0.133243516869E+03    0.15397E-03   -0.36796E-04  3630   0.100E-01    0.428E-02
DAV:   6    -0.133243457378E+03    0.59492E-04   -0.34422E-04  3230   0.790E-02    0.241E-02
DAV:   7    -0.133243435866E+03    0.21512E-04   -0.44537E-05  3190   0.403E-02    0.157E-02
DAV:   8    -0.133243408247E+03    0.27619E-04   -0.91571E-05  3260   0.655E-02    0.128E-02
DAV:   9    -0.133243389976E+03    0.18271E-04   -0.25562E-05  2670   0.307E-02    0.953E-03
DAV:  10    -0.133243375588E+03    0.14388E-04   -0.24479E-05  2750   0.283E-02    0.649E-03
DAV:  11    -0.133243352771E+03    0.22817E-04   -0.19047E-05  2305   0.665E-02    0.971E-03
DAV:  12    -0.133243343423E+03    0.93480E-05   -0.26824E-05  2740   0.494E-02
   5 F= -.13324334E+03 E0= -.13324257E+03  d E =-.143857E+00
       N       E                     dE             d eps       ncg     rms          rms(c)
DAV:   1    -0.133309393693E+03   -0.66041E-01   -0.16198E+00  2840   0.482E+00    0.920E-01
DAV:   2    -0.133291724273E+03    0.17669E-01   -0.13288E-01  3075   0.134E+00    0.311E-01
DAV:   3    -0.133290985912E+03    0.73836E-03   -0.83506E-03  3180   0.353E-01    0.160E-01
DAV:   4    -0.133290681826E+03    0.30409E-03   -0.23279E-03  3235   0.198E-01    0.832E-02
DAV:   5    -0.133290550850E+03    0.13098E-03   -0.32022E-04  3720   0.875E-02    0.403E-02
DAV:   6    -0.133290515479E+03    0.35371E-04   -0.22373E-04  3290   0.666E-02    0.201E-02
DAV:   7    -0.133290503508E+03    0.11971E-04   -0.31059E-05  2920   0.318E-02    0.136E-02
DAV:   8    -0.133290489262E+03    0.14245E-04   -0.56062E-05  3000   0.473E-02    0.107E-02
DAV:   9    -0.133290479864E+03    0.93985E-05   -0.13370E-05  2200   0.223E-02
   6 F= -.13329048E+03 E0= -.13328865E+03  d E =-.190994E+00
       N       E                     dE             d eps       ncg     rms          rms(c)
DAV:   1    -0.133508102620E+03   -0.21761E+00   -0.10132E+01  2885   0.137E+01    0.282E+00
DAV:   2    -0.133369703412E+03    0.13840E+00   -0.87782E-01  3135   0.357E+00    0.560E-01
DAV:   3    -0.133367236884E+03    0.24665E-02   -0.36989E-02  3160   0.783E-01    0.270E-01
DAV:   4    -0.133365943836E+03    0.12930E-02   -0.81091E-03  3270   0.371E-01    0.153E-01
DAV:   5    -0.133365499994E+03    0.44384E-03   -0.10515E-03  3280   0.161E-01    0.655E-02
DAV:   6    -0.133365442422E+03    0.57572E-04   -0.70401E-04  3340   0.144E-01    0.357E-02
DAV:   7    -0.133365425407E+03    0.17015E-04   -0.14800E-04  3260   0.607E-02    0.262E-02
DAV:   8    -0.133365403454E+03    0.21953E-04   -0.57623E-05  3070   0.508E-02    0.102E-02
DAV:   9    -0.133365393070E+03    0.10385E-04   -0.23398E-05  2395   0.446E-02    0.895E-03
DAV:  10    -0.133365389899E+03    0.31710E-05   -0.20070E-05  2400   0.253E-02
   7 F= -.13336539E+03 E0= -.13336275E+03  d E =-.749100E-01
       N       E                     dE             d eps       ncg     rms          rms(c)
DAV:   1    -0.133367271598E+03   -0.18785E-02   -0.93908E-02  2885   0.132E+00    0.270E-01
DAV:   2    -0.133366001545E+03    0.12701E-02   -0.80199E-03  3165   0.342E-01    0.557E-02
DAV:   3    -0.133365966646E+03    0.34899E-04   -0.33861E-04  3200   0.796E-02    0.259E-02
DAV:   4    -0.133365952624E+03    0.14021E-04   -0.76225E-05  3230   0.410E-02    0.152E-02
DAV:   5    -0.133365947711E+03    0.49134E-05   -0.99253E-06  2110   0.233E-02    0.702E-03
DAV:   6    -0.133365945203E+03    0.25077E-05   -0.71150E-06  1905   0.234E-02
   8 F= -.13336595E+03 E0= -.13336330E+03  d E =-.754653E-01
       N       E                     dE             d eps       ncg     rms          rms(c)
DAV:   1    -0.133385839599E+03   -0.19892E-01   -0.25219E+00  2775   0.675E+00    0.807E-01
DAV:   2    -0.133379228537E+03    0.66111E-02   -0.98172E-02  3180   0.119E+00    0.274E-01
DAV:   3    -0.133377985206E+03    0.12433E-02   -0.44635E-03  3205   0.298E-01    0.123E-01
DAV:   4    -0.133377609939E+03    0.37527E-03   -0.17423E-03  3210   0.163E-01    0.625E-02
DAV:   5    -0.133377431412E+03    0.17853E-03   -0.37838E-04  3155   0.794E-02    0.233E-02
DAV:   6    -0.133377354499E+03    0.76913E-04   -0.86072E-05  3460   0.605E-02    0.154E-02
DAV:   7    -0.133377301912E+03    0.52587E-04   -0.25749E-05  2640   0.476E-02    0.101E-02
DAV:   8    -0.133377165151E+03    0.13676E-03   -0.54207E-05  3145   0.111E-01    0.110E-02
DAV:   9    -0.133377121418E+03    0.43733E-04   -0.47322E-05  2930   0.498E-02    0.118E-02
DAV:  10    -0.133377014345E+03    0.10707E-03   -0.52191E-05  3020   0.134E-01    0.865E-03
DAV:  11    -0.133376901733E+03    0.11261E-03   -0.21984E-04  4075   0.237E-01    0.106E-02
DAV:  12    -0.133376903201E+03   -0.14681E-05   -0.20122E-04  3210   0.825E-02    0.610E-03
DAV:  13    -0.133376903468E+03   -0.26729E-06   -0.46988E-05  2810   0.518E-02
   9 F= -.13337690E+03 E0= -.13337435E+03  d E =-.109583E-01
       N       E                     dE             d eps       ncg     rms          rms(c)
DAV:   1    -0.133376932513E+03   -0.29312E-04   -0.37764E-03  2930   0.262E-01    0.309E-02
DAV:   2    -0.133376922218E+03    0.10295E-04   -0.15661E-04  3190   0.484E-02    0.106E-02
DAV:   3    -0.133376920598E+03    0.16202E-05   -0.57064E-06  1725   0.123E-02    0.517E-03
DAV:   4    -0.133376919705E+03    0.89295E-06   -0.33377E-06  1655   0.108E-02    0.236E-03
DAV:   5    -0.133376919322E+03    0.38371E-06   -0.11446E-06  1635   0.661E-03    0.149E-03
DAV:   6    -0.133376918879E+03    0.44216E-06   -0.47066E-07  1675   0.666E-03
  10 F= -.13337692E+03 E0= -.13337436E+03  d E =-.109737E-01
       N       E                     dE             d eps       ncg     rms          rms(c)
DAV:   1    -0.133379627180E+03   -0.27079E-02   -0.34262E-01  2915   0.246E+00    0.102E-01
DAV:   2    -0.133380176623E+03   -0.54944E-03   -0.96259E-03  3240   0.391E-01    0.687E-02
DAV:   3    -0.133380086123E+03    0.90500E-04   -0.31679E-04  3285   0.733E-02    0.449E-02
DAV:   4    -0.133380040577E+03    0.45546E-04   -0.13674E-04  3270   0.543E-02    0.274E-02
DAV:   5    -0.133380004178E+03    0.36398E-04   -0.41389E-05  3000   0.473E-02    0.133E-02
DAV:   6    -0.133379977113E+03    0.27065E-04   -0.18065E-05  2355   0.534E-02    0.649E-03
DAV:   7    -0.133379957131E+03    0.19982E-04   -0.21795E-05  2490   0.461E-02    0.580E-03
DAV:   8    -0.133379942933E+03    0.14198E-04   -0.11931E-05  1985   0.330E-02    0.459E-03
DAV:   9    -0.133379893717E+03    0.49216E-04   -0.30870E-05  2715   0.112E-01    0.582E-03
DAV:  10    -0.133379877554E+03    0.16163E-04   -0.37880E-05  3050   0.678E-02    0.720E-03
DAV:  11    -0.133379873735E+03    0.38188E-05   -0.31674E-05  2720   0.418E-02
  11 F= -.13337987E+03 E0= -.13337739E+03  d E =-.295486E-02
       N       E                     dE             d eps       ncg     rms          rms(c)
DAV:   1    -0.133380270548E+03   -0.39299E-03   -0.13816E-01  2920   0.157E+00    0.653E-02
DAV:   2    -0.133380497036E+03   -0.22649E-03   -0.39616E-03  3250   0.251E-01    0.451E-02
DAV:   3    -0.133380455414E+03    0.41622E-04   -0.12409E-04  3295   0.465E-02    0.294E-02
DAV:   4    -0.133380430648E+03    0.24766E-04   -0.62524E-05  3120   0.379E-02    0.171E-02
DAV:   5    -0.133380411018E+03    0.19631E-04   -0.16330E-05  2120   0.337E-02    0.909E-03
DAV:   6    -0.133380392576E+03    0.18442E-04   -0.91799E-06  2095   0.420E-02    0.490E-03
DAV:   7    -0.133380376664E+03    0.15912E-04   -0.11985E-05  2180   0.400E-02    0.465E-03
DAV:   8    -0.133380356732E+03    0.19932E-04   -0.77282E-06  2165   0.488E-02    0.329E-03
DAV:   9    -0.133380317043E+03    0.39689E-04   -0.56153E-05  3345   0.138E-01    0.590E-03
DAV:  10    -0.133380319190E+03   -0.21474E-05   -0.56582E-05  2910   0.295E-02
  12 F= -.13338032E+03 E0= -.13337788E+03  d E =-.340031E-02
       N       E                     dE             d eps       ncg     rms          rms(c)
DAV:   1    -0.133381651960E+03   -0.13349E-02   -0.75257E-01  2775   0.359E+00    0.225E-01
DAV:   2    -0.133382299326E+03   -0.64737E-03   -0.19520E-02  3215   0.541E-01    0.891E-02
DAV:   3    -0.133382093528E+03    0.20580E-03   -0.68932E-04  3315   0.123E-01    0.473E-02
DAV:   4    -0.133382005954E+03    0.87574E-04   -0.32533E-04  3270   0.964E-02    0.278E-02
DAV:   5    -0.133381956567E+03    0.49387E-04   -0.10867E-04  3230   0.718E-02    0.124E-02
DAV:   6    -0.133381916994E+03    0.39574E-04   -0.17219E-05  2305   0.590E-02    0.646E-03
DAV:   7    -0.133381885171E+03    0.31823E-04   -0.15563E-05  2320   0.528E-02    0.622E-03
DAV:   8    -0.133381835703E+03    0.49468E-04   -0.24608E-05  2590   0.874E-02    0.610E-03
DAV:   9    -0.133381775314E+03    0.60389E-04   -0.65271E-05  3580   0.131E-01    0.876E-03
DAV:  10    -0.133381766683E+03    0.86308E-05   -0.69941E-05  2930   0.508E-02
  13 F= -.13338177E+03 E0= -.13337937E+03  d E =-.144749E-02
       N       E                     dE             d eps       ncg     rms          rms(c)
DAV:   1    -0.133381751011E+03    0.24302E-04   -0.94742E-04  3060   0.138E-01    0.751E-03
DAV:   2    -0.133381753103E+03   -0.20917E-05   -0.57696E-05  3000   0.315E-02    0.797E-03
DAV:   3    -0.133381751033E+03    0.20697E-05   -0.31170E-06  1690   0.829E-03    0.509E-03
DAV:   4    -0.133381747614E+03    0.34188E-05   -0.31871E-06  1700   0.114E-02    0.231E-03
DAV:   5    -0.133381745604E+03    0.20108E-05   -0.13196E-06  1775   0.105E-02    0.219E-03
DAV:   6    -0.133381741630E+03    0.39736E-05   -0.12230E-06  1925   0.213E-02
  14 F= -.13338174E+03 E0= -.13337935E+03  d E =-.142244E-02
       N       E                     dE             d eps       ncg     rms          rms(c)
DAV:   1    -0.133382460388E+03   -0.71478E-03   -0.32290E-01  2760   0.241E+00    0.962E-02
DAV:   2    -0.133382984198E+03   -0.52381E-03   -0.78386E-03  3260   0.346E-01    0.521E-02
DAV:   3    -0.133382924201E+03    0.59997E-04   -0.21610E-04  3370   0.585E-02    0.323E-02
DAV:   4    -0.133382899463E+03    0.24738E-04   -0.73087E-05  3170   0.363E-02    0.211E-02
DAV:   5    -0.133382884056E+03    0.15407E-04   -0.31841E-05  2770   0.317E-02    0.807E-03
DAV:   6    -0.133382879300E+03    0.47557E-05   -0.12321E-05  2110   0.266E-02
  15 F= -.13338288E+03 E0= -.13338049E+03  d E =-.113767E-02
       N       E                     dE             d eps       ncg     rms          rms(c)
DAV:   1    -0.133382915376E+03   -0.31320E-04   -0.18624E-01  2770   0.183E+00    0.733E-02
DAV:   2    -0.133383217379E+03   -0.30200E-03   -0.45686E-03  3260   0.265E-01    0.397E-02
DAV:   3    -0.133383180970E+03    0.36410E-04   -0.12312E-04  3350   0.439E-02    0.249E-02
DAV:   4    -0.133383163761E+03    0.17209E-04   -0.39958E-05  2770   0.286E-02    0.165E-02
DAV:   5    -0.133383150056E+03    0.13705E-04   -0.21930E-05  2480   0.321E-02    0.617E-03
DAV:   6    -0.133383144591E+03    0.54656E-05   -0.11207E-05  2100   0.291E-02
  16 F= -.13338314E+03 E0= -.13338076E+03  d E =-.140296E-02
       N       E                     dE             d eps       ncg     rms          rms(c)
DAV:   1    -0.133384129188E+03   -0.97913E-03   -0.11123E-01  2750   0.143E+00    0.617E-02
DAV:   2    -0.133384326735E+03   -0.19755E-03   -0.29560E-03  3160   0.214E-01    0.354E-02
DAV:   3    -0.133384303697E+03    0.23037E-04   -0.10759E-04  3140   0.380E-02    0.228E-02
DAV:   4    -0.133384292806E+03    0.10892E-04   -0.35911E-05  2880   0.267E-02    0.155E-02
DAV:   5    -0.133384282554E+03    0.10251E-04   -0.11114E-05  2140   0.209E-02    0.695E-03
DAV:   6    -0.133384274943E+03    0.76118E-05   -0.65101E-06  2100   0.228E-02
  17 F= -.13338427E+03 E0= -.13338189E+03  d E =-.113035E-02
       N       E                     dE             d eps       ncg     rms          rms(c)
DAV:   1    -0.133384524680E+03   -0.24213E-03   -0.28822E-01  2750   0.230E+00    0.992E-02
DAV:   2    -0.133385005093E+03   -0.48041E-03   -0.76333E-03  3170   0.344E-01    0.566E-02
DAV:   3    -0.133384927580E+03    0.77513E-04   -0.27922E-04  3340   0.650E-02    0.368E-02
DAV:   4    -0.133384870480E+03    0.57100E-04   -0.10190E-04  3290   0.515E-02    0.251E-02
DAV:   5    -0.133384797345E+03    0.73135E-04   -0.39416E-05  2800   0.586E-02    0.124E-02
DAV:   6    -0.133384731770E+03    0.65575E-04   -0.35919E-05  2820   0.696E-02    0.914E-03
DAV:   7    -0.133384665041E+03    0.66729E-04   -0.29661E-05  2685   0.803E-02    0.744E-03
DAV:   8    -0.133384547741E+03    0.11730E-03   -0.12662E-04  4015   0.185E-01    0.787E-03
DAV:   9    -0.133384518201E+03    0.29540E-04   -0.11824E-04  3210   0.975E-02    0.640E-03
DAV:  10    -0.133384502723E+03    0.15478E-04   -0.48270E-05  2970   0.860E-02    0.462E-03
DAV:  11    -0.133384500904E+03    0.18186E-05   -0.48794E-05  2820   0.484E-02
  18 F= -.13338450E+03 E0= -.13338210E+03  d E =-.135631E-02
       N       E                     dE             d eps       ncg     rms          rms(c)
DAV:   1    -0.133384605557E+03   -0.10283E-03   -0.31364E-02  2840   0.757E-01    0.319E-02
DAV:   2    -0.133384657837E+03   -0.52279E-04   -0.80702E-04  3200   0.111E-01    0.196E-02
DAV:   3    -0.133384649439E+03    0.83974E-05   -0.26588E-05  2430   0.214E-02    0.129E-02
DAV:   4    -0.133384643633E+03    0.58064E-05   -0.12964E-05  2025   0.199E-02    0.771E-03
DAV:   5    -0.133384638083E+03    0.55498E-05   -0.74324E-06  2100   0.202E-02    0.390E-03
DAV:   6    -0.133384634834E+03    0.32490E-05   -0.45150E-06  1910   0.167E-02
  19 F= -.13338463E+03 E0= -.13338224E+03  d E =-.149024E-02
       N       E                     dE             d eps       ncg     rms          rms(c)
DAV:   1    -0.133384958063E+03   -0.31998E-03   -0.19262E-01  2740   0.185E+00    0.777E-02
DAV:   2    -0.133385281297E+03   -0.32323E-03   -0.44304E-03  3160   0.261E-01    0.358E-02
DAV:   3    -0.133385246277E+03    0.35020E-04   -0.81077E-05  3230   0.420E-02    0.221E-02
DAV:   4    -0.133385226997E+03    0.19280E-04   -0.51668E-05  2990   0.415E-02    0.111E-02
DAV:   5    -0.133385217369E+03    0.96277E-05   -0.26279E-05  2150   0.344E-02    0.535E-03
DAV:   6    -0.133385210675E+03    0.66944E-05   -0.79811E-06  1835   0.267E-02
  20 F= -.13338521E+03 E0= -.13338280E+03  d E =-.575841E-03
       N       E                     dE             d eps       ncg     rms          rms(c)
DAV:   1    -0.133384727142E+03    0.49023E-03   -0.59766E-01  2730   0.326E+00    0.137E-01
DAV:   2    -0.133385732315E+03   -0.10052E-02   -0.13790E-02  3175   0.460E-01    0.629E-02
DAV:   3    -0.133385623932E+03    0.10838E-03   -0.24866E-04  3320   0.756E-02    0.385E-02
DAV:   4    -0.133385561303E+03    0.62629E-04   -0.15995E-04  3330   0.749E-02    0.203E-02
DAV:   5    -0.133385529001E+03    0.32303E-04   -0.85750E-05  3200   0.622E-02    0.974E-03
DAV:   6    -0.133385502803E+03    0.26197E-04   -0.15696E-05  2160   0.502E-02    0.548E-03
DAV:   7    -0.133385478674E+03    0.24130E-04   -0.99052E-06  2090   0.469E-02    0.521E-03
DAV:   8    -0.133385432963E+03    0.45710E-04   -0.19240E-05  2510   0.899E-02    0.558E-03
DAV:   9    -0.133385402792E+03    0.30172E-04   -0.36926E-05  2940   0.755E-02    0.603E-03
DAV:  10    -0.133385386713E+03    0.16079E-04   -0.28822E-05  2720   0.607E-02    0.468E-03
DAV:  11    -0.133385360952E+03    0.25761E-04   -0.33873E-05  2730   0.134E-01    0.355E-03
DAV:  12    -0.133385363042E+03   -0.20907E-05   -0.70135E-05  3070   0.576E-02
  21 F= -.13338536E+03 E0= -.13338293E+03  d E =-.728208E-03
       N       E                     dE             d eps       ncg     rms          rms(c)
DAV:   1    -0.133385357643E+03    0.33083E-05   -0.43681E-02  2820   0.881E-01    0.378E-02
DAV:   2    -0.133385429241E+03   -0.71598E-04   -0.10042E-03  3170   0.125E-01    0.175E-02
DAV:   3    -0.133385421667E+03    0.75746E-05   -0.20305E-05  2220   0.236E-02    0.106E-02
DAV:   4    -0.133385417483E+03    0.41837E-05   -0.13503E-05  1990   0.213E-02    0.497E-03
DAV:   5    -0.133385415735E+03    0.17475E-05   -0.78630E-06  1710   0.165E-02    0.280E-03
DAV:   6    -0.133385414847E+03    0.88876E-06   -0.19496E-06  1695   0.108E-02
  22 F= -.13338541E+03 E0= -.13338299E+03  d E =-.780013E-03
       N       E                     dE             d eps       ncg     rms          rms(c)
DAV:   1    -0.133385694522E+03   -0.27879E-03   -0.81102E-02  2740   0.119E+00    0.439E-02
DAV:   2    -0.133385843118E+03   -0.14860E-03   -0.18324E-03  3240   0.170E-01    0.232E-02
DAV:   3    -0.133385831894E+03    0.11224E-04   -0.42320E-05  3020   0.295E-02    0.165E-02
DAV:   4    -0.133385823905E+03    0.79890E-05   -0.18706E-05  2090   0.206E-02    0.768E-03
DAV:   5    -0.133385820108E+03    0.37971E-05   -0.11282E-05  2090   0.228E-02    0.535E-03
DAV:   6    -0.133385819726E+03    0.38177E-06   -0.63626E-06  1605   0.122E-02
  23 F= -.13338582E+03 E0= -.13338338E+03  d E =-.404880E-03
       N       E                     dE             d eps       ncg     rms          rms(c)
DAV:   1    -0.133385210316E+03    0.60979E-03   -0.72946E-01  2730   0.359E+00    0.132E-01
DAV:   2    -0.133386549790E+03   -0.13395E-02   -0.16507E-02  3230   0.508E-01    0.695E-02
DAV:   3    -0.133386449993E+03    0.99798E-04   -0.36865E-04  3340   0.871E-02    0.496E-02
DAV:   4    -0.133386382735E+03    0.67257E-04   -0.18362E-04  3250   0.625E-02    0.236E-02
DAV:   5    -0.133386351331E+03    0.31404E-04   -0.86431E-05  3255   0.605E-02    0.147E-02
DAV:   6    -0.133386347567E+03    0.37648E-05   -0.50432E-05  3150   0.360E-02
  24 F= -.13338635E+03 E0= -.13338387E+03  d E =-.932720E-03
       N       E                     dE             d eps       ncg     rms          rms(c)
DAV:   1    -0.133386630501E+03   -0.27917E-03   -0.10922E-01  2790   0.138E+00    0.524E-02
DAV:   2    -0.133386816125E+03   -0.18562E-03   -0.23262E-03  3125   0.188E-01    0.251E-02
DAV:   3    -0.133386802712E+03    0.13413E-04   -0.31867E-05  2770   0.288E-02    0.155E-02
DAV:   4    -0.133386796602E+03    0.61093E-05   -0.30392E-05  2640   0.273E-02    0.603E-03
DAV:   5    -0.133386796097E+03    0.50597E-06   -0.11061E-05  1695   0.139E-02    0.452E-03
DAV:   6    -0.133386795742E+03    0.35426E-06   -0.20309E-06  1545   0.770E-03
  25 F= -.13338680E+03 E0= -.13338432E+03  d E =-.448176E-03
       N       E                     dE             d eps       ncg     rms          rms(c)
DAV:   1    -0.133385943745E+03    0.85235E-03   -0.98084E-01  2790   0.413E+00    0.149E-01
DAV:   2    -0.133387570164E+03   -0.16264E-02   -0.20424E-02  3190   0.560E-01    0.731E-02
DAV:   3    -0.133387442061E+03    0.12810E-03   -0.30874E-04  3370   0.860E-02    0.463E-02
DAV:   4    -0.133387371358E+03    0.70703E-04   -0.22691E-04  3290   0.803E-02    0.192E-02
DAV:   5    -0.133387358709E+03    0.12650E-04   -0.10877E-04  3260   0.522E-02    0.132E-02
DAV:   6    -0.133387353576E+03    0.51325E-05   -0.20763E-05  2150   0.274E-02
  26 F= -.13338735E+03 E0= -.13338486E+03  d E =-.100601E-02
       N       E                     dE             d eps       ncg     rms          rms(c)
DAV:   1    -0.133387555305E+03   -0.19660E-03   -0.15663E-01  2740   0.166E+00    0.903E-02
DAV:   2    -0.133387748170E+03   -0.19286E-03   -0.36401E-03  3220   0.237E-01    0.321E-02
DAV:   3    -0.133387721294E+03    0.26876E-04   -0.62059E-05  3250   0.394E-02    0.173E-02
DAV:   4    -0.133387709119E+03    0.12175E-04   -0.29740E-05  2950   0.367E-02    0.699E-03
DAV:   5    -0.133387707503E+03    0.16159E-05   -0.14699E-05  1790   0.226E-02    0.576E-03
DAV:   6    -0.133387705668E+03    0.18348E-05   -0.43571E-06  1880   0.171E-02
  27 F= -.13338771E+03 E0= -.13338522E+03  d E =-.352092E-03
       N       E                     dE             d eps       ncg     rms          rms(c)
DAV:   1    -0.133387605232E+03    0.10227E-03   -0.21547E-01  2740   0.195E+00    0.104E-01
DAV:   2    -0.133387876683E+03   -0.27145E-03   -0.49846E-03  3220   0.277E-01    0.377E-02
DAV:   3    -0.133387841229E+03    0.35455E-04   -0.82332E-05  3270   0.435E-02    0.205E-02
DAV:   4    -0.133387826527E+03    0.14702E-04   -0.44199E-05  3150   0.409E-02    0.806E-03
DAV:   5    -0.133387825170E+03    0.13570E-05   -0.19245E-05  1880   0.238E-02    0.653E-03
DAV:   6    -0.133387823796E+03    0.13742E-05   -0.51874E-06  1730   0.147E-02
  28 F= -.13338782E+03 E0= -.13338534E+03  d E =-.470220E-03
       N       E                     dE             d eps       ncg     rms          rms(c)
DAV:   1    -0.133387868010E+03   -0.42840E-04   -0.15426E-01  2780   0.166E+00    0.625E-02
DAV:   2    -0.133388138549E+03   -0.27054E-03   -0.34433E-03  3210   0.233E-01    0.301E-02
DAV:   3    -0.133388113041E+03    0.25508E-04   -0.49441E-05  3290   0.405E-02    0.192E-02
DAV:   4    -0.133388095262E+03    0.17779E-04   -0.35077E-05  2930   0.413E-02    0.766E-03
DAV:   5    -0.133388092157E+03    0.31052E-05   -0.23194E-05  2380   0.294E-02    0.508E-03
DAV:   6    -0.133388090577E+03    0.15794E-05   -0.86440E-06  1730   0.160E-02
  29 F= -.13338809E+03 E0= -.13338561E+03  d E =-.266782E-03
       N       E                     dE             d eps       ncg     rms          rms(c)
DAV:   1    -0.133388026546E+03    0.65611E-04   -0.70088E-02  2770   0.112E+00    0.415E-02
DAV:   2    -0.133388141737E+03   -0.11519E-03   -0.15421E-03  3250   0.159E-01    0.200E-02
DAV:   3    -0.133388127031E+03    0.14706E-04   -0.28733E-05  2740   0.336E-02    0.130E-02
DAV:   4    -0.133388113526E+03    0.13505E-04   -0.12604E-05  2200   0.339E-02    0.580E-03
DAV:   5    -0.133388106610E+03    0.69157E-05   -0.13685E-05  2310   0.339E-02    0.362E-03
DAV:   6    -0.133388103382E+03    0.32280E-05   -0.11942E-05  2080   0.297E-02
  30 F= -.13338810E+03 E0= -.13338562E+03  d E =-.279586E-03
       N       E                     dE             d eps       ncg     rms          rms(c)
DAV:   1    -0.133388076218E+03    0.30392E-04   -0.15472E-01  2730   0.166E+00    0.712E-02
DAV:   2    -0.133388329146E+03   -0.25293E-03   -0.35372E-03  3230   0.234E-01    0.320E-02
DAV:   3    -0.133388308650E+03    0.20496E-04   -0.48150E-05  3210   0.361E-02    0.197E-02
DAV:   4    -0.133388296845E+03    0.11805E-04   -0.46711E-05  3070   0.365E-02    0.728E-03
DAV:   5    -0.133388295820E+03    0.10252E-05   -0.11592E-05  1710   0.183E-02    0.556E-03
DAV:   6    -0.133388295110E+03    0.71000E-06   -0.65166E-06  1670   0.131E-02
  31 F= -.13338830E+03 E0= -.13338580E+03  d E =-.191728E-03
       N       E                     dE             d eps       ncg     rms          rms(c)
DAV:   1    -0.133388287056E+03    0.87638E-05   -0.10597E-02  2775   0.434E-01    0.187E-02
DAV:   2    -0.133388303976E+03   -0.16920E-04   -0.23923E-04  3250   0.609E-02    0.823E-03
DAV:   3    -0.133388302618E+03    0.13579E-05   -0.28048E-06  1675   0.101E-02    0.503E-03
DAV:   4    -0.133388301463E+03    0.11558E-05   -0.32961E-06  1745   0.125E-02    0.154E-03
DAV:   5    -0.133388301419E+03    0.43288E-07   -0.18103E-06  1605   0.664E-03    0.172E-03
DAV:   6    -0.133388301293E+03    0.12646E-06   -0.37046E-07  1545   0.319E-03
  32 F= -.13338830E+03 E0= -.13338581E+03  d E =-.197911E-03
       N       E                     dE             d eps       ncg     rms          rms(c)
DAV:   1    -0.133388410327E+03   -0.10891E-03   -0.50292E-02  2730   0.919E-01    0.365E-02
DAV:   2    -0.133388490026E+03   -0.79699E-04   -0.11048E-03  3290   0.136E-01    0.197E-02
DAV:   3    -0.133388476788E+03    0.13238E-04   -0.33881E-05  2850   0.341E-02    0.137E-02
DAV:   4    -0.133388461710E+03    0.15078E-04   -0.12852E-05  2150   0.323E-02    0.601E-03
DAV:   5    -0.133388453111E+03    0.85985E-05   -0.10550E-05  2220   0.357E-02    0.576E-03
DAV:   6    -0.133388446353E+03    0.67587E-05   -0.18222E-05  2520   0.497E-02
  33 F= -.13338845E+03 E0= -.13338594E+03  d E =-.145060E-03
