 vasp.5.4.4.18Apr17-6-g9f103f2a35 (build Nov 15 2019 10:10:58) complex          
  
 executed on             LinuxIFC date 2024.07.27  14:13:08
 running on   20 total cores
 distrk:  each k-point on   20 cores,    1 groups
 distr:  one band on NCORES_PER_BAND=   4 cores,    5 groups


--------------------------------------------------------------------------------------------------------


 INCAR:
 POTCAR:    PAW_PBE O 08Apr2002                   
 POTCAR:    PAW_PBE Mg 13Apr2007                  
 POTCAR:    PAW_PBE Al 04Jan2001                  
 POTCAR:    PAW_PBE O 08Apr2002                   
   VRHFIN =O: s2p4                                                              
   LEXCH  = PE                                                                  
   EATOM  =   432.3788 eV,   31.7789 Ry                                         
                                                                                
   TITEL  = PAW_PBE O 08Apr2002                                                 
   LULTRA =        F    use ultrasoft PP ?                                      
   IUNSCR =        1    unscreen: 0-lin 1-nonlin 2-no                           
   RPACOR =    1.200    partial core radius                                     
   POMASS =   16.000; ZVAL   =    6.000    mass and valenz                      
   RCORE  =    1.520    outmost cutoff radius                                   
   RWIGS  =    1.550; RWIGS  =    0.820    wigner-seitz radius (au A)           
   ENMAX  =  400.000; ENMIN  =  300.000 eV                                      
   ICORE  =        2    local potential                                         
   LCOR   =        T    correct aug charges                                     
   LPAW   =        T    paw PP                                                  
   EAUG   =  605.392                                                            
   DEXC   =    0.000                                                            
   RMAX   =    1.553    core radius for proj-oper                               
   RAUG   =    1.300    factor for augmentation sphere                          
   RDEP   =    1.550    radius for radial grids                                 
   RDEPT  =    1.329    core radius for aug-charge                              
                                                                                
   Atomic configuration                                                         
    4 entries                                                                   
     n  l   j            E        occ.                                          
     1  0  0.50      -514.6923   2.0000                                         
     2  0  0.50       -23.9615   2.0000                                         
     2  1  0.50        -9.0305   4.0000                                         
     3  2  1.50        -9.5241   0.0000                                         
   Description                                                                  
     l       E           TYP  RCUT    TYP  RCUT                                 
     0    -23.9615318     23  1.200                                             
     0     -9.5240782     23  1.200                                             
     1     -9.0304911     23  1.520                                             
     1      8.1634956     23  1.520                                             
     2     -9.5240782      7  1.500                                             
  local pseudopotential read in
  partial core-charges read in
  partial kinetic energy density read in
  kinetic energy density of atom read in
  atomic valenz-charges read in
  non local Contribution for L=           0  read in
    real space projection operators read in
  non local Contribution for L=           0  read in
    real space projection operators read in
  non local Contribution for L=           1  read in
    real space projection operators read in
  non local Contribution for L=           1  read in
    real space projection operators read in
    PAW grid and wavefunctions read in
 
   number of l-projection  operators is LMAX  =           4
   number of lm-projection operators is LMMAX =           8
 
 POTCAR:    PAW_PBE Mg 13Apr2007                  
   VRHFIN =Mg: s2p0                                                             
   LEXCH  = PE                                                                  
   EATOM  =    23.0369 eV,    1.6932 Ry                                         
                                                                                
   TITEL  = PAW_PBE Mg 13Apr2007                                                
   LULTRA =        F    use ultrasoft PP ?                                      
   IUNSCR =        1    unscreen: 0-lin 1-nonlin 2-no                           
   RPACOR =    1.500    partial core radius                                     
   POMASS =   24.305; ZVAL   =    2.000    mass and valenz                      
   RCORE  =    2.000    outmost cutoff radius                                   
   RWIGS  =    2.880; RWIGS  =    1.524    wigner-seitz radius (au A)           
   ENMAX  =  200.000; ENMIN  =  100.000 eV                                      
   RCLOC  =    1.506    cutoff for local pot                                    
   LCOR   =        T    correct aug charges                                     
   LPAW   =        T    paw PP                                                  
   EAUG   =  454.734                                                            
   DEXC   =    0.000                                                            
   RMAX   =    2.045    core radius for proj-oper                               
   RAUG   =    1.300    factor for augmentation sphere                          
   RDEP   =    2.025    radius for radial grids                                 
   RDEPT  =    1.942    core radius for aug-charge                              
                                                                                
   Atomic configuration                                                         
    6 entries                                                                   
     n  l   j            E        occ.                                          
     1  0  0.50     -1259.6230   2.0000                                         
     2  0  0.50       -79.8442   2.0000                                         
     2  1  1.50       -46.6121   6.0000                                         
     3  0  0.50        -4.7055   2.0000                                         
     3  1  0.50        -1.3660   0.0000                                         
     3  2  1.50        -1.3606   0.0000                                         
   Description                                                                  
     l       E           TYP  RCUT    TYP  RCUT                                 
     0     -4.7054661     23  2.000                                             
     0     27.2116520     23  2.000                                             
     1      1.3605826     23  2.000                                             
     1     27.2116520     23  2.000                                             
     2     -1.3605826     23  2.000                                             
  local pseudopotential read in
  partial core-charges read in
  partial kinetic energy density read in
  atomic valenz-charges read in
  non local Contribution for L=           0  read in
    real space projection operators read in
  non local Contribution for L=           0  read in
    real space projection operators read in
  non local Contribution for L=           1  read in
    real space projection operators read in
  non local Contribution for L=           1  read in
    real space projection operators read in
  non local Contribution for L=           2  read in
    real space projection operators read in
    PAW grid and wavefunctions read in
 
   number of l-projection  operators is LMAX  =           5
   number of lm-projection operators is LMMAX =          13
 
 POTCAR:    PAW_PBE Al 04Jan2001                  
   VRHFIN =Al: s2p1                                                             
   LEXCH  = PE                                                                  
   EATOM  =    53.5387 eV,    3.9350 Ry                                         
                                                                                
   TITEL  = PAW_PBE Al 04Jan2001                                                
   LULTRA =        F    use ultrasoft PP ?                                      
   IUNSCR =        1    unscreen: 0-lin 1-nonlin 2-no                           
   RPACOR =    1.500    partial core radius                                     
   POMASS =   26.981; ZVAL   =    3.000    mass and valenz                      
   RCORE  =    1.900    outmost cutoff radius                                   
   RWIGS  =    2.650; RWIGS  =    1.402    wigner-seitz radius (au A)           
   ENMAX  =  240.300; ENMIN  =  180.225 eV                                      
   ICORE  =        2    local potential                                         
   LCOR   =        T    correct aug charges                                     
   LPAW   =        T    paw PP                                                  
   EAUG   =  291.052                                                            
   DEXC   =    0.000                                                            
   RMAX   =    1.939    core radius for proj-oper                               
   RAUG   =    1.300    factor for augmentation sphere                          
   RDEP   =    1.966    radius for radial grids                                 
   RDEPT  =    1.856    core radius for aug-charge                              
                                                                                
   Atomic configuration                                                         
    6 entries                                                                   
     n  l   j            E        occ.                                          
     1  0  0.50     -1511.1048   2.0000                                         
     2  0  0.50      -108.1629   2.0000                                         
     2  1  1.50       -69.6402   6.0000                                         
     3  0  0.50        -7.7528   2.0000                                         
     3  1  1.50        -2.7121   1.0000                                         
     3  2  2.50        -2.7212   0.0000                                         
   Description                                                                  
     l       E           TYP  RCUT    TYP  RCUT                                 
     0     -7.7528455     23  1.900                                             
     0     -3.3096929     23  1.900                                             
     1     -2.7120682     23  1.900                                             
     1     13.6058260     23  1.900                                             
     2     -2.7211652      7  1.900                                             
  local pseudopotential read in
  partial core-charges read in
  partial kinetic energy density read in
  atomic valenz-charges read in
  non local Contribution for L=           0  read in
    real space projection operators read in
  non local Contribution for L=           0  read in
    real space projection operators read in
  non local Contribution for L=           1  read in
    real space projection operators read in
  non local Contribution for L=           1  read in
    real space projection operators read in
    PAW grid and wavefunctions read in
 
   number of l-projection  operators is LMAX  =           4
   number of lm-projection operators is LMMAX =           8
 

 ----------------------------------------------------------------------------- 
|                                                                             |
|  ADVICE TO THIS USER RUNNING 'VASP/VAMP'   (HEAR YOUR MASTER'S VOICE ...):  |
|                                                                             |
|      You have a (more or less) 'large supercell' and for larger cells       |
|      it might be more efficient to use real space projection opertators     |
|      So try LREAL= Auto  in the INCAR   file.                               |
|      Mind:          For very  accurate calculation you might also keep the  |
|      reciprocal projection scheme          (i.e. LREAL=.FALSE.)             |
|                                                                             |
 ----------------------------------------------------------------------------- 

  PAW_PBE O 08Apr2002                   :
 energy of atom  1       EATOM= -432.3788
 kinetic energy error for atom=    0.0208 (will be added to EATOM!!)
  PAW_PBE Mg 13Apr2007                  :
 energy of atom  2       EATOM=  -23.0369
 kinetic energy error for atom=    0.0000 (will be added to EATOM!!)
  PAW_PBE Al 04Jan2001                  :
 energy of atom  3       EATOM=  -53.5387
 kinetic energy error for atom=    0.0002 (will be added to EATOM!!)
 
 
 POSCAR: Layer                                   
  positions in direct lattice
  No initial velocities read in
 exchange correlation table for  LEXCH =        8
   RHO(1)=    0.500       N(1)  =     2000
   RHO(2)=  100.500       N(2)  =     4000

 VTST: version 3.2, (02/03/18)

 CHAIN: initializing optimizer
 
 OPT: Using VASP Conjugate-Gradient optimizer
 CHAIN: Read ICHAIN            0
 
 POSCAR: Layer                                   
  positions in direct lattice
  No initial velocities read in
 


--------------------------------------------------------------------------------------------------------


 ion  position               nearest neighbor table
   1  0.000  0.000  0.347-  14 2.13  17 2.13  17 2.13  14 2.13  14 2.13  17 2.13
   2  0.333  0.667  0.406-  14 2.13  14 2.13  14 2.13  11 2.13  11 2.13  11 2.13
   3  0.000  0.000  0.526-  15 2.13  15 2.13  15 2.13  18 2.13  18 2.13  18 2.13
   4  0.333  0.667  0.585-  12 2.13  12 2.13  12 2.13  15 2.13  15 2.13  15 2.13
   5  0.000  0.000  0.704-  16 2.13  19 2.13  19 2.13  16 2.13  16 2.13  19 2.13
   6  0.333  0.667  0.764-  16 2.13  16 2.13  16 2.13  13 2.13  13 2.13  13 2.13
   7  0.667  0.333  0.287-  17 2.13  17 2.13  17 2.13  10 2.13  10 2.13  10 2.13
   8  0.667  0.333  0.466-  11 2.13  11 2.13  11 2.13  18 2.13  18 2.13  18 2.13
   9  0.667  0.333  0.645-  19 2.13  19 2.13  19 2.13  12 2.13  12 2.13  12 2.13
  10  0.000  0.000  0.257-   7 2.13   7 2.13   7 2.13  17 3.12  17 3.12  17 3.12  21 3.16
  11  0.000  0.000  0.436-   8 2.13   8 2.13   8 2.13   2 2.13   2 2.13   2 2.13  14 3.12  18 3.12
                            14 3.12  18 3.12  14 3.12  18 3.12
  12  0.000  0.000  0.615-   4 2.13   4 2.13   4 2.13   9 2.13   9 2.13   9 2.13  15 3.12  19 3.12
                            15 3.12  19 3.12  15 3.12  19 3.12
  13  0.000  0.000  0.794-   6 2.13   6 2.13   6 2.13  16 3.12  16 3.12  16 3.12  24 3.16
  14  0.667  0.333  0.377-   2 2.13   2 2.13   2 2.13   1 2.13   1 2.13   1 2.13  11 3.12  11 3.12
                            11 3.12  17 3.12  17 3.12  17 3.12
  15  0.667  0.333  0.555-   3 2.13   3 2.13   3 2.13   4 2.13   4 2.13   4 2.13  12 3.12  18 3.12
                            18 3.12  12 3.12  12 3.12  18 3.12
  16  0.667  0.333  0.734-   6 2.13   6 2.13   6 2.13   5 2.13   5 2.13   5 2.13  13 3.12  13 3.12
                            13 3.12  19 3.12  19 3.12  19 3.12
  17  0.333  0.667  0.317-   7 2.13   7 2.13   7 2.13   1 2.13   1 2.13   1 2.13  10 3.12  10 3.12
                            10 3.12  14 3.12  14 3.12  14 3.12
  18  0.333  0.667  0.496-   3 2.13   8 2.13   8 2.13   3 2.13   3 2.13   8 2.13  11 3.12  15 3.12
                            15 3.12  11 3.12  11 3.12  15 3.12
  19  0.333  0.667  0.675-   9 2.13   9 2.13   9 2.13   5 2.13   5 2.13   5 2.13  12 3.12  12 3.12
                            12 3.12  16 3.12  16 3.12  16 3.12
  20  0.000  0.000  0.032-  23 2.81  23 2.81  23 2.81  25 3.32  25 3.32  25 3.32
  21  0.000  0.000  0.186-  22 2.81  22 2.81  22 2.81  10 3.16
  22  0.667  0.333  0.135-  21 2.81  23 2.81  23 2.81  21 2.81  21 2.81  23 2.81
  23  0.333  0.667  0.083-  20 2.81  22 2.81  22 2.81  20 2.81  20 2.81  22 2.81
  24  0.000  0.000  0.865-  26 2.81  26 2.81  26 2.81  13 3.16
  25  0.667  0.333  0.968-  26 2.81  26 2.81  26 2.81  20 3.32  20 3.32  20 3.32
  26  0.333  0.667  0.917-  24 2.81  25 2.81  25 2.81  24 2.81  24 2.81  25 2.81
 
  LATTYP: Found a hexagonal cell.
 ALAT       =     2.9035266265
 C/A-ratio  =    15.1763953523
  
  Lattice vectors:
  
 A1 = (   2.5145280000,  -1.4517630000,   0.0000000000)
 A2 = (   0.0000000000,   2.9035260000,   0.0000000000)
 A3 = (   0.0000000000,   0.0000000000,  44.0650680000)


Analysis of symmetry for initial positions (statically):
=====================================================================
 Subroutine PRICEL returns:
 Original cell was already a primitive cell.
 

 Routine SETGRP: Setting up the symmetry group for a 
 hexagonal supercell.


 Subroutine GETGRP returns: Found  6 space group operations
 (whereof  6 operations were pure point group operations)
 out of a pool of 24 trial point group operations.


The static configuration has the point symmetry C_3v.


Analysis of symmetry for dynamics (positions and initial velocities):
=====================================================================
 Subroutine PRICEL returns:
 Original cell was already a primitive cell.
 

 Routine SETGRP: Setting up the symmetry group for a 
 hexagonal supercell.


 Subroutine GETGRP returns: Found  6 space group operations
 (whereof  6 operations were pure point group operations)
 out of a pool of 24 trial point group operations.


The dynamic configuration has the point symmetry C_3v.


Analysis of constrained symmetry for selective dynamics:
=====================================================================
 Subroutine PRICEL returns:
 Original cell was already a primitive cell.
 

 Routine SETGRP: Setting up the symmetry group for a 
 hexagonal supercell.


 Subroutine GETGRP returns: Found  6 space group operations
 (whereof  6 operations were pure point group operations)
 out of a pool of 24 trial point group operations.


The constrained configuration has the point symmetry C_3v.


 Subroutine INISYM returns: Found  6 space group operations
 (whereof  6 operations are pure point group operations),
 and found     1 'primitive' translations

 
 
 KPOINTS: K-Spacing Value to Generate K-Mesh: 0.02

Automatic generation of k-mesh.
Space group operators:
 irot       det(A)        alpha          n_x          n_y          n_z        tau_x        tau_y        tau_z
    1     1.000000     0.000001     1.000000     0.000000     0.000000     0.000000     0.000000     0.000000
    2     1.000000   120.000000     0.000000     0.000000    -1.000000     0.000000     0.000000     0.000000
    3     1.000000   120.000000     0.000000     0.000000     1.000000     0.000000     0.000000     0.000000
    4    -1.000000   179.999999     0.866025    -0.500000     0.000000     0.000000     0.000000     0.000000
    5    -1.000000   179.999999     0.000000     1.000000     0.000000     0.000000     0.000000     0.000000
    6    -1.000000   179.999999     0.866025     0.500000     0.000000     0.000000     0.000000     0.000000
 
 Subroutine IBZKPT returns following result:
 ===========================================
 
 Found     21 irreducible k-points:
 
 Following reciprocal coordinates:
            Coordinates               Weight
  0.000000  0.000000  0.000000      1.000000
  0.076923  0.000000  0.000000      6.000000
  0.153846  0.000000  0.000000      6.000000
  0.230769  0.000000  0.000000      6.000000
  0.307692  0.000000  0.000000      6.000000
  0.384615  0.000000  0.000000      6.000000
  0.461538  0.000000  0.000000      6.000000
  0.076923  0.076923  0.000000      6.000000
  0.153846  0.076923  0.000000     12.000000
  0.230769  0.076923  0.000000     12.000000
  0.307692  0.076923  0.000000     12.000000
  0.384615  0.076923  0.000000     12.000000
  0.461538  0.076923  0.000000      6.000000
  0.153846  0.153846  0.000000      6.000000
  0.230769  0.153846  0.000000     12.000000
  0.307692  0.153846  0.000000     12.000000
  0.384615  0.153846  0.000000     12.000000
  0.230769  0.230769  0.000000      6.000000
  0.307692  0.230769  0.000000     12.000000
  0.384615  0.230769  0.000000      6.000000
  0.307692  0.307692  0.000000      6.000000
 
 Following cartesian coordinates:
            Coordinates               Weight
  0.000000  0.000000  0.000000      1.000000
  0.030591  0.000000  0.000000      6.000000
  0.061183  0.000000  0.000000      6.000000
  0.091774  0.000000  0.000000      6.000000
  0.122366  0.000000  0.000000      6.000000
  0.152957  0.000000  0.000000      6.000000
  0.183549  0.000000  0.000000      6.000000
  0.045887  0.026493  0.000000      6.000000
  0.076479  0.026493  0.000000     12.000000
  0.107070  0.026493  0.000000     12.000000
  0.137662  0.026493  0.000000     12.000000
  0.168253  0.026493  0.000000     12.000000
  0.198844  0.026493  0.000000      6.000000
  0.091774  0.052986  0.000000      6.000000
  0.122366  0.052986  0.000000     12.000000
  0.152957  0.052986  0.000000     12.000000
  0.183549  0.052986  0.000000     12.000000
  0.137662  0.079479  0.000000      6.000000
  0.168253  0.079479  0.000000     12.000000
  0.198844  0.079479  0.000000      6.000000
  0.183549  0.105972  0.000000      6.000000
 


--------------------------------------------------------------------------------------------------------




 Dimension of arrays:
   k-points           NKPTS =     21   k-points in BZ     NKDIM =     21   number of bands    NBANDS=     65
   number of dos      NEDOS =    301   number of ions     NIONS =     26
   non local maximal  LDIM  =      5   non local SUM 2l+1 LMDIM =     13
   total plane-waves  NPLWV = 193536
   max r-space proj   IRMAX =      1   max aug-charges    IRDMAX= 204612
   dimension x,y,z NGX =    24 NGY =   24 NGZ =  336
   dimension x,y,z NGXF=    48 NGYF=   48 NGZF=  672
   support grid    NGXF=    96 NGYF=   96 NGZF= 1344
   ions per type =               9  10   7
   NGX,Y,Z   is equivalent  to a cutoff of  13.74, 13.74, 12.68 a.u.
   NGXF,Y,Z  is equivalent  to a cutoff of  27.48, 27.48, 25.35 a.u.

 SYSTEM =  unknown system                          
 POSCAR =  Layer                                   

 Startparameter for this run:
   NWRITE =      2    write-flag & timer
   PREC   = accura    normal or accurate (medium, high low for compatibility)
   ISTART =      0    job   : 0-new  1-cont  2-samecut
   ICHARG =      2    charge: 1-file 2-atom 10-const
   ISPIN  =      1    spin polarized calculation?
   LNONCOLLINEAR =      F non collinear calculations
   LSORBIT =      F    spin-orbit coupling
   INIWAV =      1    electr: 0-lowe 1-rand  2-diag
   LASPH  =      F    aspherical Exc in radial PAW
   METAGGA=      F    non-selfconsistent MetaGGA calc.

 Electronic Relaxation 1
   ENCUT  =  520.0 eV  38.22 Ry    6.18 a.u.   5.40  5.40 81.93*2*pi/ulx,y,z
   ENINI  =  520.0     initial cutoff
   ENAUG  =  605.4 eV  augmentation charge cutoff
   NELM   =    100;   NELMIN=  6; NELMDL=  0     # of ELM steps 
   EDIFF  = 0.1E-04   stopping-criterion for ELM
   LREAL  =      F    real-space projection
   NLSPLINE    = F    spline interpolate recip. space projectors
   LCOMPAT=      F    compatible to vasp.4.4
   GGA_COMPAT  = T    GGA compatible to vasp.4.4-vasp.4.6
   LMAXPAW     = -100 max onsite density
   LMAXMIX     =    2 max onsite mixed and CHGCAR
   VOSKOWN=      0    Vosko Wilk Nusair interpolation
   ROPT   =    0.00000   0.00000   0.00000
 Ionic relaxation
   EDIFFG = -.2E-01   stopping-criterion for IOM
   NSW    =    500    number of steps for IOM
   NBLOCK =      1;   KBLOCK =    500    inner block; outer block 
   IBRION =      2    ionic relax: 0-MD 1-quasi-New 2-CG
   NFREE  =      1    steps in history (QN), initial steepest desc. (CG)
   ISIF   =      3    stress and relaxation
   IWAVPR =     11    prediction:  0-non 1-charg 2-wave 3-comb
   ISYM   =      2    0-nonsym 1-usesym 2-fastsym
   LCORR  =      T    Harris-Foulkes like correction to forces

   POTIM  = 0.5000    time-step for ionic-motion
   TEIN   =    0.0    initial temperature
   TEBEG  =    0.0;   TEEND  =   0.0 temperature during run
   SMASS  =  -3.00    Nose mass-parameter (am)
   estimated Nose-frequenzy (Omega)   =  0.10E-29 period in steps =****** mass=  -0.193E-27a.u.
   SCALEE = 1.0000    scale energy and forces
   NPACO  =    256;   APACO  = 16.0  distance and # of slots for P.C.
   PSTRESS=    0.0 pullay stress

  Mass of Ions in am
   POMASS =  16.00 24.30 26.98
  Ionic Valenz
   ZVAL   =   6.00  2.00  3.00
  Atomic Wigner-Seitz radii
   RWIGS  =  -1.00 -1.00 -1.00
  virtual crystal weights 
   VCA    =   1.00  1.00  1.00
   NELECT =      95.0000    total number of electrons
   NUPDOWN=      -1.0000    fix difference up-down

 DOS related values:
   EMIN   =  10.00;   EMAX   =-10.00  energy-range for DOS
   EFERMI =   0.00
   ISMEAR =     0;   SIGMA  =   0.05  broadening in eV -4-tet -1-fermi 0-gaus

 Electronic relaxation 2 (details)
   IALGO  =     38    algorithm
   LDIAG  =      T    sub-space diagonalisation (order eigenvalues)
   LSUBROT=      F    optimize rotation matrix (better conditioning)
   TURBO    =      0    0=normal 1=particle mesh
   IRESTART =      0    0=no restart 2=restart with 2 vectors
   NREBOOT  =      0    no. of reboots
   NMIN     =      0    reboot dimension
   EREF     =   0.00    reference energy to select bands
   IMIX   =      4    mixing-type and parameters
     AMIX     =   0.40;   BMIX     =  1.00
     AMIX_MAG =   1.60;   BMIX_MAG =  1.00
     AMIN     =   0.01
     WC   =   100.;   INIMIX=   1;  MIXPRE=   1;  MAXMIX= -45

 Intra band minimization:
   WEIMIN = 0.0010     energy-eigenvalue tresh-hold
   EBREAK =  0.38E-07  absolut break condition
   DEPER  =   0.30     relativ break condition  

   TIME   =   0.40     timestep for ELM

  volume/ion in A,a.u.               =      12.37        83.50
  Fermi-wavevector in a.u.,A,eV,Ry     =   1.090161  2.060105 16.169846  1.188450
  Thomas-Fermi vector in A             =   2.226379
 
 Write flags
   LWAVE        =      F    write WAVECAR
   LDOWNSAMPLE  =      F    k-point downsampling of WAVECAR
   LCHARG       =      T    write CHGCAR
   LVTOT        =      F    write LOCPOT, total local potential
   LVHAR        =      F    write LOCPOT, Hartree potential only
   LELF         =      F    write electronic localiz. function (ELF)
   LORBIT       =      0    0 simple, 1 ext, 2 COOP (PROOUT), +10 PAW based schemes


 Dipole corrections
   LMONO  =      F    monopole corrections only (constant potential shift)
   LDIPOL =      F    correct potential (dipole corrections)
   IDIPOL =      0    1-x, 2-y, 3-z, 4-all directions 
   EPSILON=  1.0000000 bulk dielectric constant

 Exchange correlation treatment:
   GGA     =    --    GGA type
   LEXCH   =     8    internal setting for exchange type
   VOSKOWN=      0    Vosko Wilk Nusair interpolation
   LHFCALC =     F    Hartree Fock is set to
   LHFONE  =     F    Hartree Fock one center treatment
   AEXX    =    0.0000 exact exchange contribution

 Linear response parameters
   LEPSILON=     F    determine dielectric tensor
   LRPA    =     F    only Hartree local field effects (RPA)
   LNABLA  =     F    use nabla operator in PAW spheres
   LVEL    =     F    velocity operator in full k-point grid
   LINTERFAST=   F  fast interpolation
   KINTER  =     0    interpolate to denser k-point grid
   CSHIFT  =0.1000    complex shift for real part using Kramers Kronig
   OMEGAMAX=  -1.0    maximum frequency
   DEG_THRESHOLD= 0.2000000E-02 threshold for treating states as degnerate
   RTIME   =   -0.100 relaxation time in fs
  (WPLASMAI=    0.000 imaginary part of plasma frequency in eV, 0.658/RTIME)
   DFIELD  = 0.0000000 0.0000000 0.0000000 field for delta impulse in time
 
 Orbital magnetization related:
   ORBITALMAG=     F  switch on orbital magnetization
   LCHIMAG   =     F  perturbation theory with respect to B field
   DQ        =  0.001000  dq finite difference perturbation B field
   LLRAUG    =     F  two centre corrections for induced B field



--------------------------------------------------------------------------------------------------------


 conjugate gradient relaxation of ions
   using selective dynamics as specified on POSCAR
 charge density and potential will be updated during run
 non-spin polarized calculation
 Variant of blocked Davidson
 Davidson routine will perform the subspace rotation
 perform sub-space diagonalisation
    after iterative eigenvector-optimisation
 modified Broyden-mixing scheme, WC =      100.0
 initial mixing is a Kerker type mixing with AMIX =  0.4000 and BMIX =      1.0000
 Hartree-type preconditioning will be used
 using additional bands           17
 reciprocal scheme for non local part
 use partial core corrections
 calculate Harris-corrections to forces 
   (improved forces if not selfconsistent)
 use gradient corrections 
 use of overlap-Matrix (Vanderbilt PP)
 Gauss-broadening in eV      SIGMA  =   0.05


--------------------------------------------------------------------------------------------------------


  energy-cutoff  :      520.00
  volume of cell :      321.72
      direct lattice vectors                 reciprocal lattice vectors
     2.514528000 -1.451763000  0.000000000     0.397688950  0.000000000  0.000000000
     0.000000000  2.903526000  0.000000000     0.198844475  0.344408833  0.000000000
     0.000000000  0.000000000 44.065068000     0.000000000  0.000000000  0.022693713

  length of vectors
     2.903526627  2.903526000 44.065068000     0.397688950  0.397689036  0.022693713


 
 k-points in units of 2pi/SCALE and weight: K-Spacing Value to Generate K-Mesh: 0.02
   0.00000000  0.00000000  0.00000000       0.006
   0.03059146  0.00000000  0.00000000       0.036
   0.06118292  0.00000000  0.00000000       0.036
   0.09177437  0.00000000  0.00000000       0.036
   0.12236583  0.00000000  0.00000000       0.036
   0.15295729  0.00000000  0.00000000       0.036
   0.18354875  0.00000000  0.00000000       0.036
   0.04588719  0.02649299  0.00000000       0.036
   0.07647864  0.02649299  0.00000000       0.071
   0.10707010  0.02649299  0.00000000       0.071
   0.13766156  0.02649299  0.00000000       0.071
   0.16825302  0.02649299  0.00000000       0.071
   0.19884447  0.02649299  0.00000000       0.036
   0.09177437  0.05298597  0.00000000       0.036
   0.12236583  0.05298597  0.00000000       0.071
   0.15295729  0.05298597  0.00000000       0.071
   0.18354875  0.05298597  0.00000000       0.071
   0.13766156  0.07947896  0.00000000       0.036
   0.16825302  0.07947896  0.00000000       0.071
   0.19884447  0.07947896  0.00000000       0.036
   0.18354875  0.10597195  0.00000000       0.036
 
 k-points in reciprocal lattice and weights: K-Spacing Value to Generate K-Mesh: 0.02
   0.00000000  0.00000000  0.00000000       0.006
   0.07692308  0.00000000  0.00000000       0.036
   0.15384615  0.00000000  0.00000000       0.036
   0.23076923  0.00000000  0.00000000       0.036
   0.30769231  0.00000000  0.00000000       0.036
   0.38461538  0.00000000  0.00000000       0.036
   0.46153846  0.00000000  0.00000000       0.036
   0.07692308  0.07692308  0.00000000       0.036
   0.15384615  0.07692308  0.00000000       0.071
   0.23076923  0.07692308  0.00000000       0.071
   0.30769231  0.07692308  0.00000000       0.071
   0.38461538  0.07692308  0.00000000       0.071
   0.46153846  0.07692308  0.00000000       0.036
   0.15384615  0.15384615  0.00000000       0.036
   0.23076923  0.15384615  0.00000000       0.071
   0.30769231  0.15384615  0.00000000       0.071
   0.38461538  0.15384615  0.00000000       0.071
   0.23076923  0.23076923  0.00000000       0.036
   0.30769231  0.23076923  0.00000000       0.071
   0.38461538  0.23076923  0.00000000       0.036
   0.30769231  0.30769231  0.00000000       0.036
 
 position of ions in fractional coordinates (direct lattice) 
   0.00000000  0.00000000  0.34670700
   0.33333300  0.66666700  0.40631200
   0.00000000  0.00000000  0.52552300
   0.33333300  0.66666700  0.58512800
   0.00000000  0.00000000  0.70433800
   0.33333300  0.66666700  0.76394300
   0.66666700  0.33333300  0.28710200
   0.66666700  0.33333300  0.46591700
   0.66666700  0.33333300  0.64473300
   0.00000000  0.00000000  0.25729900
   0.00000000  0.00000000  0.43611500
   0.00000000  0.00000000  0.61493000
   0.00000000  0.00000000  0.79374600
   0.66666700  0.33333300  0.37651000
   0.66666700  0.33333300  0.55532500
   0.66666700  0.33333300  0.73414100
   0.33333300  0.66666700  0.31690400
   0.33333300  0.66666700  0.49572000
   0.33333300  0.66666700  0.67453500
   0.00000000  0.00000000  0.03245200
   0.00000000  0.00000000  0.18558700
   0.66666700  0.33333300  0.13454200
   0.33333300  0.66666700  0.08349700
   0.00000000  0.00000000  0.86545800
   0.66666700  0.33333300  0.96754800
   0.33333300  0.66666700  0.91650300
 
 position of ions in cartesian coordinates  (Angst):
   0.00000000  0.00000000 15.27766753
   0.83817516  1.45176445 17.90416591
   0.00000000  0.00000000 23.15720673
   0.83817516  1.45176445 25.78370511
   0.00000000  0.00000000 31.03670186
   0.83817516  1.45176445 33.66320024
   1.67635284 -0.00000145 12.65116915
   1.67635284 -0.00000145 20.53066429
   1.67635284 -0.00000145 28.41020349
   0.00000000  0.00000000 11.33789793
   0.00000000  0.00000000 19.21743713
   0.00000000  0.00000000 27.09693227
   0.00000000  0.00000000 34.97647146
   1.67635284 -0.00000145 16.59093875
   1.67635284 -0.00000145 24.47043389
   1.67635284 -0.00000145 32.34997309
   0.83817516  1.45176445 13.96439631
   0.83817516  1.45176445 21.84393551
   0.83817516  1.45176445 29.72343064
   0.00000000  0.00000000  1.42999959
   0.00000000  0.00000000  8.17790377
   1.67635284 -0.00000145  5.92860238
   0.83817516  1.45176445  3.67930098
   0.00000000  0.00000000 38.13646562
   1.67635284 -0.00000145 42.63506841
   0.83817516  1.45176445 40.38576702
 


--------------------------------------------------------------------------------------------------------


 k-point  1 :   0.0000 0.0000 0.0000  plane waves:    8851
 k-point  2 :   0.0769 0.0000 0.0000  plane waves:    8795
 k-point  3 :   0.1538 0.0000 0.0000  plane waves:    8731
 k-point  4 :   0.2308 0.0000 0.0000  plane waves:    8693
 k-point  5 :   0.3077 0.0000 0.0000  plane waves:    8657
 k-point  6 :   0.3846 0.0000 0.0000  plane waves:    8608
 k-point  7 :   0.4615 0.0000 0.0000  plane waves:    8604
 k-point  8 :   0.0769 0.0769 0.0000  plane waves:    8739
 k-point  9 :   0.1538 0.0769 0.0000  plane waves:    8727
 k-point 10 :   0.2308 0.0769 0.0000  plane waves:    8690
 k-point 11 :   0.3077 0.0769 0.0000  plane waves:    8637
 k-point 12 :   0.3846 0.0769 0.0000  plane waves:    8615
 k-point 13 :   0.4615 0.0769 0.0000  plane waves:    8614
 k-point 14 :   0.1538 0.1538 0.0000  plane waves:    8705
 k-point 15 :   0.2308 0.1538 0.0000  plane waves:    8642
 k-point 16 :   0.3077 0.1538 0.0000  plane waves:    8641
 k-point 17 :   0.3846 0.1538 0.0000  plane waves:    8631
 k-point 18 :   0.2308 0.2308 0.0000  plane waves:    8637
 k-point 19 :   0.3077 0.2308 0.0000  plane waves:    8643
 k-point 20 :   0.3846 0.2308 0.0000  plane waves:    8646
 k-point 21 :   0.3077 0.3077 0.0000  plane waves:    8620

 maximum and minimum number of plane-waves per node :      2234     2136

 maximum number of plane-waves:      8851
 maximum index in each direction: 
   IXMAX=    5   IYMAX=    5   IZMAX=   81
   IXMIN=   -5   IYMIN=   -5   IZMIN=  -81


 parallel 3D FFT for wavefunctions:
    minimum data exchange during FFTs selected (reduces bandwidth)
 parallel 3D FFT for charge:
    minimum data exchange during FFTs selected (reduces bandwidth)


 total amount of memory used by VASP MPI-rank0    76654. kBytes
=======================================================================

   base      :      30000. kBytes
   nonl-proj :      15259. kBytes
   fftplans  :      13302. kBytes
   grid      :       8144. kBytes
   one-center:         56. kBytes
   wavefun   :       9893. kBytes
 
     INWAV:  cpu time    0.0000: real time    0.0000
 Broyden mixing: mesh for mixing (old mesh)
   NGX = 11   NGY = 11   NGZ =163
  (NGX  = 48   NGY  = 48   NGZ  =672)
  gives a total of  19723 points

 initial charge density was supplied:
 charge density of overlapping atoms calculated
 number of electron      95.0000000 magnetization 
 keeping initial charge density in first step


--------------------------------------------------------------------------------------------------------


 Maximum index for augmentation-charges        10482 (set IRDMAX)


--------------------------------------------------------------------------------------------------------


 First call to EWALD:  gamma=   0.259
 Maximum number of real-space cells 7x 7x 1
 Maximum number of reciprocal cells 1x 1x15

    FEWALD:  cpu time    0.0016: real time    0.0016


--------------------------------------- Iteration      1(   1)  ---------------------------------------


    POTLOK:  cpu time    0.0445: real time    0.0453
    SETDIJ:  cpu time    0.1084: real time    0.1087
     EDDAV:  cpu time    2.6688: real time    2.6987
       DOS:  cpu time    0.0010: real time    0.0014
    --------------------------------------------
      LOOP:  cpu time    2.8226: real time    2.8541

 eigenvalue-minimisations  :  2750
 total energy-change (2. order) : 0.4551140E+03  (-0.4164537E+04)
 number of electron      95.0000000 magnetization 
 augmentation part       95.0000000 magnetization 

 Free energy of the ion-electron system (eV)
  ---------------------------------------------------
  alpha Z        PSCENC =       125.68170536
  Ewald energy   TEWEN  =     15175.19959035
  -Hartree energ DENC   =    -19942.84128826
  -exchange      EXHF   =         0.00000000
  -V(xc)+E(xc)   XCENC  =      -418.20150681
  PAW double counting   =      4235.41334458    -3509.29226066
  entropy T*S    EENTRO =        -0.00404398
  eigenvalues    EBANDS =       292.79875802
  atomic energy  EATOM  =      4496.35971583
  Solvation  Ediel_sol  =         0.00000000
  ---------------------------------------------------
  free energy    TOTEN  =       455.11401441 eV

  energy without entropy =      455.11805840  energy(sigma->0) =      455.11603640


--------------------------------------------------------------------------------------------------------




--------------------------------------- Iteration      1(   2)  ---------------------------------------


     EDDAV:  cpu time    3.1546: real time    3.1599
       DOS:  cpu time    0.0011: real time    0.0014
    --------------------------------------------
      LOOP:  cpu time    3.1557: real time    3.1614

 eigenvalue-minimisations  :  3480
 total energy-change (2. order) :-0.5510978E+03  (-0.5184774E+03)
 number of electron      95.0000000 magnetization 
 augmentation part       95.0000000 magnetization 

 Free energy of the ion-electron system (eV)
  ---------------------------------------------------
  alpha Z        PSCENC =       125.68170536
  Ewald energy   TEWEN  =     15175.19959035
  -Hartree energ DENC   =    -19942.84128826
  -exchange      EXHF   =         0.00000000
  -V(xc)+E(xc)   XCENC  =      -418.20150681
  PAW double counting   =      4235.41334458    -3509.29226066
  entropy T*S    EENTRO =        -0.00681224
  eigenvalues    EBANDS =      -258.29631010
  atomic energy  EATOM  =      4496.35971583
  Solvation  Ediel_sol  =         0.00000000
  ---------------------------------------------------
  free energy    TOTEN  =       -95.98382197 eV

  energy without entropy =      -95.97700972  energy(sigma->0) =      -95.98041584


--------------------------------------------------------------------------------------------------------




--------------------------------------- Iteration      1(   3)  ---------------------------------------


     EDDAV:  cpu time    2.9883: real time    2.9922
       DOS:  cpu time    0.0009: real time    0.0009
    --------------------------------------------
      LOOP:  cpu time    2.9892: real time    2.9931

 eigenvalue-minimisations  :  3260
 total energy-change (2. order) :-0.5083148E+02  (-0.5051417E+02)
 number of electron      95.0000000 magnetization 
 augmentation part       95.0000000 magnetization 

 Free energy of the ion-electron system (eV)
  ---------------------------------------------------
  alpha Z        PSCENC =       125.68170536
  Ewald energy   TEWEN  =     15175.19959035
  -Hartree energ DENC   =    -19942.84128826
  -exchange      EXHF   =         0.00000000
  -V(xc)+E(xc)   XCENC  =      -418.20150681
  PAW double counting   =      4235.41334458    -3509.29226066
  entropy T*S    EENTRO =        -0.00722630
  eigenvalues    EBANDS =      -309.12737865
  atomic energy  EATOM  =      4496.35971583
  Solvation  Ediel_sol  =         0.00000000
  ---------------------------------------------------
  free energy    TOTEN  =      -146.81530457 eV

  energy without entropy =     -146.80807827  energy(sigma->0) =     -146.81169142


--------------------------------------------------------------------------------------------------------




--------------------------------------- Iteration      1(   4)  ---------------------------------------


     EDDAV:  cpu time    3.0121: real time    3.0158
       DOS:  cpu time    0.0009: real time    0.0009
    --------------------------------------------
      LOOP:  cpu time    3.0130: real time    3.0167

 eigenvalue-minimisations  :  3280
 total energy-change (2. order) :-0.6265938E+00  (-0.6255796E+00)
 number of electron      95.0000000 magnetization 
 augmentation part       95.0000000 magnetization 

 Free energy of the ion-electron system (eV)
  ---------------------------------------------------
  alpha Z        PSCENC =       125.68170536
  Ewald energy   TEWEN  =     15175.19959035
  -Hartree energ DENC   =    -19942.84128826
  -exchange      EXHF   =         0.00000000
  -V(xc)+E(xc)   XCENC  =      -418.20150681
  PAW double counting   =      4235.41334458    -3509.29226066
  entropy T*S    EENTRO =        -0.00721759
  eigenvalues    EBANDS =      -309.75398115
  atomic energy  EATOM  =      4496.35971583
  Solvation  Ediel_sol  =         0.00000000
  ---------------------------------------------------
  free energy    TOTEN  =      -147.44189836 eV

  energy without entropy =     -147.43468078  energy(sigma->0) =     -147.43828957


--------------------------------------------------------------------------------------------------------




--------------------------------------- Iteration      1(   5)  ---------------------------------------


     EDDAV:  cpu time    3.0052: real time    3.0095
       DOS:  cpu time    0.0009: real time    0.0009
    CHARGE:  cpu time    0.2203: real time    0.2205
    MIXING:  cpu time    0.0020: real time    0.0020
    --------------------------------------------
      LOOP:  cpu time    3.2284: real time    3.2329

 eigenvalue-minimisations  :  3290
 total energy-change (2. order) :-0.9846554E-02  (-0.9841449E-02)
 number of electron      95.0000002 magnetization 
 augmentation part        6.9461501 magnetization 

 Broyden mixing:
  rms(total) = 0.22099E+01    rms(broyden)= 0.22094E+01
  rms(prec ) = 0.22727E+01
  weight for this iteration     100.00

 Free energy of the ion-electron system (eV)
  ---------------------------------------------------
  alpha Z        PSCENC =       125.68170536
  Ewald energy   TEWEN  =     15175.19959035
  -Hartree energ DENC   =    -19942.84128826
  -exchange      EXHF   =         0.00000000
  -V(xc)+E(xc)   XCENC  =      -418.20150681
  PAW double counting   =      4235.41334458    -3509.29226066
  entropy T*S    EENTRO =        -0.00721853
  eigenvalues    EBANDS =      -309.76382676
  atomic energy  EATOM  =      4496.35971583
  Solvation  Ediel_sol  =         0.00000000
  ---------------------------------------------------
  free energy    TOTEN  =      -147.45174492 eV

  energy without entropy =     -147.44452639  energy(sigma->0) =     -147.44813565


--------------------------------------------------------------------------------------------------------




--------------------------------------- Iteration      1(   6)  ---------------------------------------


    POTLOK:  cpu time    0.0414: real time    0.0415
    SETDIJ:  cpu time    0.1036: real time    0.1044
     EDDAV:  cpu time    2.8525: real time    2.8564
       DOS:  cpu time    0.0010: real time    0.0014
    CHARGE:  cpu time    0.2249: real time    0.2251
    MIXING:  cpu time    0.0055: real time    0.0055
    --------------------------------------------
      LOOP:  cpu time    3.2290: real time    3.2344

 eigenvalue-minimisations  :  3030
 total energy-change (2. order) : 0.1532868E+02  (-0.8105554E+01)
 number of electron      95.0000002 magnetization 
 augmentation part        5.6379725 magnetization 

 Broyden mixing:
  rms(total) = 0.73250E+00    rms(broyden)= 0.73168E+00
  rms(prec ) = 0.74028E+00
  weight for this iteration     100.00

 eigenvalues of (default mixing * dielectric matrix)
  average eigenvalue GAMMA=   0.8508
  0.8508

 Free energy of the ion-electron system (eV)
  ---------------------------------------------------
  alpha Z        PSCENC =       125.68170536
  Ewald energy   TEWEN  =     15175.19959035
  -Hartree energ DENC   =    -20115.28804279
  -exchange      EXHF   =         0.00000000
  -V(xc)+E(xc)   XCENC  =      -405.99067638
  PAW double counting   =      5061.75566968    -4338.81746516
  entropy T*S    EENTRO =        -0.00519276
  eigenvalues    EBANDS =      -131.01836723
  atomic energy  EATOM  =      4496.35971583
  Solvation  Ediel_sol  =         0.00000000
  ---------------------------------------------------
  free energy    TOTEN  =      -132.12306311 eV

  energy without entropy =     -132.11787034  energy(sigma->0) =     -132.12046672


--------------------------------------------------------------------------------------------------------




--------------------------------------- Iteration      1(   7)  ---------------------------------------


    POTLOK:  cpu time    0.0407: real time    0.0417
    SETDIJ:  cpu time    0.1102: real time    0.1107
     EDDAV:  cpu time    2.9075: real time    2.9109
       DOS:  cpu time    0.0010: real time    0.0014
    CHARGE:  cpu time    0.2239: real time    0.2242
    MIXING:  cpu time    0.0069: real time    0.0069
    --------------------------------------------
      LOOP:  cpu time    3.2903: real time    3.2959

 eigenvalue-minimisations  :  3120
 total energy-change (2. order) : 0.1440697E+00  (-0.1563533E+00)
 number of electron      95.0000002 magnetization 
 augmentation part        5.6688533 magnetization 

 Broyden mixing:
  rms(total) = 0.45173E+00    rms(broyden)= 0.45172E+00
  rms(prec ) = 0.45702E+00
  weight for this iteration     100.00

 eigenvalues of (default mixing * dielectric matrix)
  average eigenvalue GAMMA=   1.6543
  0.9810  2.3276

 Free energy of the ion-electron system (eV)
  ---------------------------------------------------
  alpha Z        PSCENC =       125.68170536
  Ewald energy   TEWEN  =     15175.19959035
  -Hartree energ DENC   =    -20114.59390470
  -exchange      EXHF   =         0.00000000
  -V(xc)+E(xc)   XCENC  =      -405.55240357
  PAW double counting   =      5365.67821029    -4642.34870357
  entropy T*S    EENTRO =        -0.00872749
  eigenvalues    EBANDS =      -132.39447594
  atomic energy  EATOM  =      4496.35971583
  Solvation  Ediel_sol  =         0.00000000
  ---------------------------------------------------
  free energy    TOTEN  =      -131.97899344 eV

  energy without entropy =     -131.97026595  energy(sigma->0) =     -131.97462970


--------------------------------------------------------------------------------------------------------




--------------------------------------- Iteration      1(   8)  ---------------------------------------


    POTLOK:  cpu time    0.0393: real time    0.0397
    SETDIJ:  cpu time    0.1116: real time    0.1117
     EDDAV:  cpu time    3.0001: real time    3.0038
       DOS:  cpu time    0.0009: real time    0.0009
    CHARGE:  cpu time    0.2254: real time    0.2257
    MIXING:  cpu time    0.0060: real time    0.0060
    --------------------------------------------
      LOOP:  cpu time    3.3833: real time    3.3878

 eigenvalue-minimisations  :  3250
 total energy-change (2. order) : 0.8361224E-01  (-0.6412806E-01)
 number of electron      95.0000002 magnetization 
 augmentation part        5.7024980 magnetization 

 Broyden mixing:
  rms(total) = 0.80031E-01    rms(broyden)= 0.80010E-01
  rms(prec ) = 0.13650E+00
  weight for this iteration     100.00

 eigenvalues of (default mixing * dielectric matrix)
  average eigenvalue GAMMA=   1.4238
  2.4567  0.9074  0.9074

 Free energy of the ion-electron system (eV)
  ---------------------------------------------------
  alpha Z        PSCENC =       125.68170536
  Ewald energy   TEWEN  =     15175.19959035
  -Hartree energ DENC   =    -20120.58714169
  -exchange      EXHF   =         0.00000000
  -V(xc)+E(xc)   XCENC  =      -404.18240854
  PAW double counting   =      5867.69778898    -5144.10080567
  entropy T*S    EENTRO =        -0.00392451
  eigenvalues    EBANDS =      -127.95990130
  atomic energy  EATOM  =      4496.35971583
  Solvation  Ediel_sol  =         0.00000000
  ---------------------------------------------------
  free energy    TOTEN  =      -131.89538120 eV

  energy without entropy =     -131.89145669  energy(sigma->0) =     -131.89341894


--------------------------------------------------------------------------------------------------------




--------------------------------------- Iteration      1(   9)  ---------------------------------------


    POTLOK:  cpu time    0.0402: real time    0.0402
    SETDIJ:  cpu time    0.1091: real time    0.1092
     EDDAV:  cpu time    2.9467: real time    2.9502
       DOS:  cpu time    0.0010: real time    0.0010
    CHARGE:  cpu time    0.2276: real time    0.2278
    MIXING:  cpu time    0.0064: real time    0.0064
    --------------------------------------------
      LOOP:  cpu time    3.3309: real time    3.3348

 eigenvalue-minimisations  :  3170
 total energy-change (2. order) : 0.4255899E-01  (-0.2049311E-01)
 number of electron      95.0000002 magnetization 
 augmentation part        5.6943720 magnetization 

 Broyden mixing:
  rms(total) = 0.38839E-01    rms(broyden)= 0.38839E-01
  rms(prec ) = 0.39885E-01
  weight for this iteration     100.00

 eigenvalues of (default mixing * dielectric matrix)
  average eigenvalue GAMMA=   1.3612
  2.4953  1.2123  1.0187  0.7187

 Free energy of the ion-electron system (eV)
  ---------------------------------------------------
  alpha Z        PSCENC =       125.68170536
  Ewald energy   TEWEN  =     15175.19959035
  -Hartree energ DENC   =    -20123.76680441
  -exchange      EXHF   =         0.00000000
  -V(xc)+E(xc)   XCENC  =      -403.80220337
  PAW double counting   =      5925.44361996    -5201.86170206
  entropy T*S    EENTRO =        -0.00683414
  eigenvalues    EBANDS =      -125.09990974
  atomic energy  EATOM  =      4496.35971583
  Solvation  Ediel_sol  =         0.00000000
  ---------------------------------------------------
  free energy    TOTEN  =      -131.85282221 eV

  energy without entropy =     -131.84598807  energy(sigma->0) =     -131.84940514


--------------------------------------------------------------------------------------------------------




--------------------------------------- Iteration      1(  10)  ---------------------------------------


    POTLOK:  cpu time    0.0415: real time    0.0416
    SETDIJ:  cpu time    0.1101: real time    0.1103
     EDDAV:  cpu time    2.9473: real time    2.9510
       DOS:  cpu time    0.0010: real time    0.0014
    CHARGE:  cpu time    0.2181: real time    0.2184
    MIXING:  cpu time    0.0035: real time    0.0035
    --------------------------------------------
      LOOP:  cpu time    3.3216: real time    3.3261

 eigenvalue-minimisations  :  3210
 total energy-change (2. order) : 0.7142325E-04  (-0.2772063E-02)
 number of electron      95.0000002 magnetization 
 augmentation part        5.6754515 magnetization 

 Broyden mixing:
  rms(total) = 0.25358E-01    rms(broyden)= 0.25352E-01
  rms(prec ) = 0.25956E-01
  weight for this iteration     100.00

 eigenvalues of (default mixing * dielectric matrix)
  average eigenvalue GAMMA=   1.2555
  2.4581  1.5365  0.9013  0.8282  0.5531

 Free energy of the ion-electron system (eV)
  ---------------------------------------------------
  alpha Z        PSCENC =       125.68170536
  Ewald energy   TEWEN  =     15175.19959035
  -Hartree energ DENC   =    -20126.11037278
  -exchange      EXHF   =         0.00000000
  -V(xc)+E(xc)   XCENC  =      -403.58689570
  PAW double counting   =      5912.26719743    -5188.73116074
  entropy T*S    EENTRO =        -0.00748811
  eigenvalues    EBANDS =      -122.92504242
  atomic energy  EATOM  =      4496.35971583
  Solvation  Ediel_sol  =         0.00000000
  ---------------------------------------------------
  free energy    TOTEN  =      -131.85275079 eV

  energy without entropy =     -131.84526267  energy(sigma->0) =     -131.84900673


--------------------------------------------------------------------------------------------------------




--------------------------------------- Iteration      1(  11)  ---------------------------------------


    POTLOK:  cpu time    0.0432: real time    0.0439
    SETDIJ:  cpu time    0.1069: real time    0.1074
     EDDAV:  cpu time    2.9984: real time    3.0022
       DOS:  cpu time    0.0009: real time    0.0009
    CHARGE:  cpu time    0.2300: real time    0.2303
    MIXING:  cpu time    0.0058: real time    0.0058
    --------------------------------------------
      LOOP:  cpu time    3.3853: real time    3.3906

 eigenvalue-minimisations  :  3155
 total energy-change (2. order) :-0.2386259E-03  (-0.2203446E-03)
 number of electron      95.0000002 magnetization 
 augmentation part        5.6764466 magnetization 

 Broyden mixing:
  rms(total) = 0.17961E-01    rms(broyden)= 0.17960E-01
  rms(prec ) = 0.18100E-01
  weight for this iteration     100.00

 eigenvalues of (default mixing * dielectric matrix)
  average eigenvalue GAMMA=   1.3522
  2.3818  2.3818  0.9292  0.6991  0.8606  0.8606

 Free energy of the ion-electron system (eV)
  ---------------------------------------------------
  alpha Z        PSCENC =       125.68170536
  Ewald energy   TEWEN  =     15175.19959035
  -Hartree energ DENC   =    -20125.90441608
  -exchange      EXHF   =         0.00000000
  -V(xc)+E(xc)   XCENC  =      -403.57614966
  PAW double counting   =      5889.98367136    -5166.45222399
  entropy T*S    EENTRO =        -0.00739109
  eigenvalues    EBANDS =      -123.13749148
  atomic energy  EATOM  =      4496.35971583
  Solvation  Ediel_sol  =         0.00000000
  ---------------------------------------------------
  free energy    TOTEN  =      -131.85298941 eV

  energy without entropy =     -131.84559832  energy(sigma->0) =     -131.84929387


--------------------------------------------------------------------------------------------------------




--------------------------------------- Iteration      1(  12)  ---------------------------------------


    POTLOK:  cpu time    0.0421: real time    0.0422
    SETDIJ:  cpu time    0.1071: real time    0.1072
     EDDAV:  cpu time    3.1397: real time    3.1436
       DOS:  cpu time    0.0009: real time    0.0009
    CHARGE:  cpu time    0.2265: real time    0.2267
    MIXING:  cpu time    0.0054: real time    0.0054
    --------------------------------------------
      LOOP:  cpu time    3.5217: real time    3.5260

 eigenvalue-minimisations  :  3350
 total energy-change (2. order) :-0.2049510E-03  (-0.1267611E-03)
 number of electron      95.0000002 magnetization 
 augmentation part        5.6793524 magnetization 

 Broyden mixing:
  rms(total) = 0.63828E-02    rms(broyden)= 0.63810E-02
  rms(prec ) = 0.67473E-02
  weight for this iteration     100.00

 eigenvalues of (default mixing * dielectric matrix)
  average eigenvalue GAMMA=   1.3972
  3.0350  2.4958  0.9555  0.9555  0.9625  0.6282  0.7481

 Free energy of the ion-electron system (eV)
  ---------------------------------------------------
  alpha Z        PSCENC =       125.68170536
  Ewald energy   TEWEN  =     15175.19959035
  -Hartree energ DENC   =    -20125.58642301
  -exchange      EXHF   =         0.00000000
  -V(xc)+E(xc)   XCENC  =      -403.57096725
  PAW double counting   =      5863.01427919    -5139.48729830
  entropy T*S    EENTRO =        -0.00735120
  eigenvalues    EBANDS =      -123.45644534
  atomic energy  EATOM  =      4496.35971583
  Solvation  Ediel_sol  =         0.00000000
  ---------------------------------------------------
  free energy    TOTEN  =      -131.85319436 eV

  energy without entropy =     -131.84584317  energy(sigma->0) =     -131.84951876


--------------------------------------------------------------------------------------------------------




--------------------------------------- Iteration      1(  13)  ---------------------------------------


    POTLOK:  cpu time    0.0414: real time    0.0415
    SETDIJ:  cpu time    0.1109: real time    0.1118
     EDDAV:  cpu time    3.0314: real time    3.0353
       DOS:  cpu time    0.0009: real time    0.0009
    CHARGE:  cpu time    0.2297: real time    0.2300
    MIXING:  cpu time    0.0063: real time    0.0063
    --------------------------------------------
      LOOP:  cpu time    3.4208: real time    3.4258

 eigenvalue-minimisations  :  3200
 total energy-change (2. order) :-0.2463321E-04  (-0.4294296E-04)
 number of electron      95.0000002 magnetization 
 augmentation part        5.6783775 magnetization 

 Broyden mixing:
  rms(total) = 0.16997E-02    rms(broyden)= 0.16993E-02
  rms(prec ) = 0.19650E-02
  weight for this iteration     100.00

 eigenvalues of (default mixing * dielectric matrix)
  average eigenvalue GAMMA=   1.3543
  2.8231  2.5010  1.0674  1.0674  1.0292  1.0292  0.6586  0.6586

 Free energy of the ion-electron system (eV)
  ---------------------------------------------------
  alpha Z        PSCENC =       125.68170536
  Ewald energy   TEWEN  =     15175.19959035
  -Hartree energ DENC   =    -20125.73335645
  -exchange      EXHF   =         0.00000000
  -V(xc)+E(xc)   XCENC  =      -403.54231510
  PAW double counting   =      5850.43739374    -5126.91823020
  entropy T*S    EENTRO =        -0.00736742
  eigenvalues    EBANDS =      -123.33035510
  atomic energy  EATOM  =      4496.35971583
  Solvation  Ediel_sol  =         0.00000000
  ---------------------------------------------------
  free energy    TOTEN  =      -131.85321900 eV

  energy without entropy =     -131.84585158  energy(sigma->0) =     -131.84953529


--------------------------------------------------------------------------------------------------------




--------------------------------------- Iteration      1(  14)  ---------------------------------------


    POTLOK:  cpu time    0.0412: real time    0.0413
    SETDIJ:  cpu time    0.1104: real time    0.1106
     EDDAV:  cpu time    3.0407: real time    3.0445
       DOS:  cpu time    0.0009: real time    0.0009
    CHARGE:  cpu time    0.2289: real time    0.2291
    MIXING:  cpu time    0.0066: real time    0.0066
    --------------------------------------------
      LOOP:  cpu time    3.4286: real time    3.4330

 eigenvalue-minimisations  :  3210
 total energy-change (2. order) : 0.1081391E-04  (-0.9196962E-05)
 number of electron      95.0000002 magnetization 
 augmentation part        5.6788402 magnetization 

 Broyden mixing:
  rms(total) = 0.12058E-02    rms(broyden)= 0.12054E-02
  rms(prec ) = 0.13805E-02
  weight for this iteration     100.00

 eigenvalues of (default mixing * dielectric matrix)
  average eigenvalue GAMMA=   1.2799
  2.8545  2.4837  1.1954  1.1954  0.9462  0.8326  0.8326  0.6605  0.5182

 Free energy of the ion-electron system (eV)
  ---------------------------------------------------
  alpha Z        PSCENC =       125.68170536
  Ewald energy   TEWEN  =     15175.19959035
  -Hartree energ DENC   =    -20125.64784940
  -exchange      EXHF   =         0.00000000
  -V(xc)+E(xc)   XCENC  =      -403.54945678
  PAW double counting   =      5851.75178892    -5128.23020520
  entropy T*S    EENTRO =        -0.00731153
  eigenvalues    EBANDS =      -123.41118571
  atomic energy  EATOM  =      4496.35971583
  Solvation  Ediel_sol  =         0.00000000
  ---------------------------------------------------
  free energy    TOTEN  =      -131.85320818 eV

  energy without entropy =     -131.84589665  energy(sigma->0) =     -131.84955241


--------------------------------------------------------------------------------------------------------




--------------------------------------- Iteration      1(  15)  ---------------------------------------


    POTLOK:  cpu time    0.0425: real time    0.0426
    SETDIJ:  cpu time    0.1138: real time    0.1139
     EDDAV:  cpu time    2.2623: real time    2.2651
       DOS:  cpu time    0.0008: real time    0.0009
    --------------------------------------------
      LOOP:  cpu time    2.4194: real time    2.4225

 eigenvalue-minimisations  :  2070
 total energy-change (2. order) : 0.3177754E-05  (-0.1097850E-05)
 number of electron      95.0000002 magnetization 
 augmentation part        5.6788402 magnetization 

 Free energy of the ion-electron system (eV)
  ---------------------------------------------------
  alpha Z        PSCENC =       125.68170536
  Ewald energy   TEWEN  =     15175.19959035
  -Hartree energ DENC   =    -20125.65734793
  -exchange      EXHF   =         0.00000000
  -V(xc)+E(xc)   XCENC  =      -403.54802807
  PAW double counting   =      5851.33571854    -5127.81437550
  entropy T*S    EENTRO =        -0.00732382
  eigenvalues    EBANDS =      -123.40285976
  atomic energy  EATOM  =      4496.35971583
  Solvation  Ediel_sol  =         0.00000000
  ---------------------------------------------------
  free energy    TOTEN  =      -131.85320500 eV

  energy without entropy =     -131.84588118  energy(sigma->0) =     -131.84954309


--------------------------------------------------------------------------------------------------------




 average (electrostatic) potential at core
  the test charge radii are     0.7215  1.0714  1.0406
  (the norm of the test charge is              1.0000)
       1 -69.7962       2 -69.7854       3 -69.7873       4 -69.7837       5 -69.7860
       6 -69.9167       7 -69.9252       8 -69.7868       9 -69.7792      10 -35.6608
      11 -35.4396      12 -35.4357      13 -35.6567      14 -35.4417      15 -35.4409
      16 -35.4818      17 -35.4922      18 -35.4422      19 -35.4340      20 -74.2888
      21 -74.2189      22 -74.1219      23 -74.1190      24 -74.1425      25 -74.1937
      26 -74.0481
 
 
 
 E-fermi :   6.5253     XC(G=0): -10.3456     alpha+bet :-12.7503


 k-point     1 :       0.0000    0.0000    0.0000
  band No.  band energies     occupation 
      1     -14.1619      2.00000
      2     -14.1166      2.00000
      3     -14.0336      2.00000
      4     -13.9104      2.00000
      5     -13.7609      2.00000
      6     -13.5993      2.00000
      7     -13.4416      2.00000
      8     -13.3053      2.00000
      9     -13.2146      2.00000
     10      -4.3343      2.00000
     11      -4.0186      2.00000
     12      -3.3161      2.00000
     13      -2.4177      2.00000
     14      -1.8909      2.00000
     15      -1.7568      2.00000
     16      -1.5320      2.00000
     17      -1.4144      2.00000
     18      -0.9583      2.00000
     19      -0.4937      2.00000
     20       0.0366      2.00000
     21       0.1706      2.00000
     22       0.9226      2.00000
     23       1.0444      2.00000
     24       1.6725      2.00000
     25       2.0962      2.00000
     26       2.4700      2.00000
     27       2.7894      2.00000
     28       2.7894      2.00000
     29       2.8016      2.00000
     30       2.8016      2.00000
     31       2.8405      2.00000
     32       2.8405      2.00000
     33       2.9028      2.00000
     34       2.9028      2.00000
     35       2.9768      2.00000
     36       2.9768      2.00000
     37       3.0561      2.00000
     38       3.0561      2.00000
     39       3.1329      2.00000
     40       3.1329      2.00000
     41       3.1993      2.00000
     42       3.1993      2.00000
     43       3.2419      2.00000
     44       3.2419      2.00000
     45       3.4492      2.00000
     46       4.5579      2.00000
     47       5.5448      2.00000
     48       7.1519      0.00000
     49       7.4254      0.00000
     50       8.0880      0.00000
     51       8.3692      0.00000
     52       9.1953      0.00000
     53       9.3497      0.00000
     54      10.2562      0.00000
     55      10.3457      0.00000
     56      11.0502      0.00000
     57      11.0817      0.00000
     58      11.3643      0.00000
     59      11.9118      0.00000
     60      13.3711      0.00000
     61      14.0823      0.00000
     62      14.1296      0.00000
     63      14.2246      0.00000
     64      14.5844      0.00000
     65      14.7421      0.00000

 k-point     2 :       0.0769    0.0000    0.0000
  band No.  band energies     occupation 
      1     -14.1032      2.00000
      2     -14.0594      2.00000
      3     -13.9787      2.00000
      4     -13.8585      2.00000
      5     -13.7127      2.00000
      6     -13.5552      2.00000
      7     -13.4017      2.00000
      8     -13.2691      2.00000
      9     -13.1810      2.00000
     10      -4.1961      2.00000
     11      -3.8806      2.00000
     12      -3.1787      2.00000
     13      -2.2812      2.00000
     14      -1.8012      2.00000
     15      -1.6635      2.00000
     16      -1.4111      2.00000
     17      -1.3327      2.00000
     18      -0.8923      2.00000
     19      -0.4360      2.00000
     20       0.1431      2.00000
     21       0.2049      2.00000
     22       0.9205      2.00000
     23       1.1355      2.00000
     24       1.6540      2.00000
     25       2.0612      2.00000
     26       2.5264      2.00000
     27       2.5377      2.00000
     28       2.5511      2.00000
     29       2.5855      2.00000
     30       2.6471      2.00000
     31       2.7240      2.00000
     32       2.7433      2.00000
     33       2.7554      2.00000
     34       2.7905      2.00000
     35       2.7943      2.00000
     36       2.8566      2.00000
     37       2.8577      2.00000
     38       2.8814      2.00000
     39       2.9305      2.00000
     40       2.9325      2.00000
     41       3.0098      2.00000
     42       3.0866      2.00000
     43       3.1530      2.00000
     44       3.1956      2.00000
     45       3.5967      2.00000
     46       4.7076      2.00000
     47       5.6993      2.00000
     48       7.3318      0.00000
     49       7.7541      0.00000
     50       8.3367      0.00000
     51       8.5933      0.00000
     52       9.3679      0.00000
     53       9.5606      0.00000
     54      10.4527      0.00000
     55      10.5541      0.00000
     56      11.2957      0.00000
     57      11.3267      0.00000
     58      11.6585      0.00000
     59      12.0619      0.00000
     60      13.3806      0.00000
     61      14.0380      0.00000
     62      14.0920      0.00000
     63      14.1834      0.00000
     64      14.4551      0.00000
     65      14.5595      0.00000

 k-point     3 :       0.1538    0.0000    0.0000
  band No.  band energies     occupation 
      1     -13.9350      2.00000
      2     -13.8958      2.00000
      3     -13.8220      2.00000
      4     -13.7107      2.00000
      5     -13.5760      2.00000
      6     -13.4308      2.00000
      7     -13.2897      2.00000
      8     -13.1679      2.00000
      9     -13.0872      2.00000
     10      -3.7823      2.00000
     11      -3.4672      2.00000
     12      -2.7672      2.00000
     13      -1.8733      2.00000
     14      -1.5413      2.00000
     15      -1.4048      2.00000
     16      -1.1304      2.00000
     17      -1.0194      2.00000
     18      -0.7071      2.00000
     19      -0.3051      2.00000
     20       0.2306      2.00000
     21       0.4711      2.00000
     22       0.8725      2.00000
     23       1.2063      2.00000
     24       1.6558      2.00000
     25       1.7017      2.00000
     26       1.8780      2.00000
     27       1.8825      2.00000
     28       1.9757      2.00000
     29       1.9964      2.00000
     30       2.1214      2.00000
     31       2.2045      2.00000
     32       2.3139      2.00000
     33       2.3703      2.00000
     34       2.4100      2.00000
     35       2.6186      2.00000
     36       2.6306      2.00000
     37       2.6694      2.00000
     38       2.7315      2.00000
     39       2.8052      2.00000
     40       2.8843      2.00000
     41       2.8962      2.00000
     42       2.9610      2.00000
     43       3.0274      2.00000
     44       3.0700      2.00000
     45       3.9481      2.00000
     46       5.0830      2.00000
     47       6.0937      2.00000
     48       7.7656      0.00000
     49       8.5042      0.00000
     50       8.9432      0.00000
     51       9.1276      0.00000
     52       9.7799      0.00000
     53      10.0633      0.00000
     54      10.9050      0.00000
     55      10.9743      0.00000
     56      11.6321      0.00000
     57      11.8410      0.00000
     58      11.8737      0.00000
     59      12.1438      0.00000
     60      12.3863      0.00000
     61      12.5206      0.00000
     62      12.6542      0.00000
     63      13.4078      0.00000
     64      13.6103      0.00000
     65      13.8996      0.00000

 k-point     4 :       0.2308    0.0000    0.0000
  band No.  band energies     occupation 
      1     -13.6816      2.00000
      2     -13.6502      2.00000
      3     -13.5875      2.00000
      4     -13.4910      2.00000
      5     -13.3743      2.00000
      6     -13.2488      2.00000
      7     -13.1273      2.00000
      8     -13.0227      2.00000
      9     -12.9539      2.00000
     10      -3.0953      2.00000
     11      -2.7811      2.00000
     12      -2.0844      2.00000
     13      -1.2072      2.00000
     14      -1.1376      2.00000
     15      -1.0301      2.00000
     16      -0.8202      2.00000
     17      -0.5789      2.00000
     18      -0.3105      2.00000
     19      -0.2254      2.00000
     20       0.1163      2.00000
     21       0.3880      2.00000
     22       0.6489      2.00000
     23       0.8375      2.00000
     24       0.9827      2.00000
     25       1.0636      2.00000
     26       1.1690      2.00000
     27       1.2132      2.00000
     28       1.3740      2.00000
     29       1.5286      2.00000
     30       1.7483      2.00000
     31       1.9300      2.00000
     32       2.0551      2.00000
     33       2.1883      2.00000
     34       2.2759      2.00000
     35       2.4500      2.00000
     36       2.4618      2.00000
     37       2.5004      2.00000
     38       2.5621      2.00000
     39       2.6354      2.00000
     40       2.7140      2.00000
     41       2.7903      2.00000
     42       2.8564      2.00000
     43       2.8989      2.00000
     44       3.4595      2.00000
     45       4.5157      2.00000
     46       5.6478      2.00000
     47       6.6703      0.00004
     48       8.2419      0.00000
     49       8.9936      0.00000
     50       9.2861      0.00000
     51       9.3891      0.00000
     52       9.6320      0.00000
     53       9.9226      0.00000
     54      10.0438      0.00000
     55      10.2788      0.00000
     56      10.7252      0.00000
     57      10.8166      0.00000
     58      11.3308      0.00000
     59      11.5596      0.00000
     60      11.7519      0.00000
     61      12.2123      0.00000
     62      12.5915      0.00000
     63      12.8810      0.00000
     64      13.0530      0.00000
     65      13.2663      0.00000

 k-point     5 :       0.3077    0.0000    0.0000
  band No.  band energies     occupation 
      1     -13.3851      2.00000
      2     -13.3646      2.00000
      3     -13.3162      2.00000
      4     -13.2389      2.00000
      5     -13.1462      2.00000
      6     -13.0470      2.00000
      7     -12.9513      2.00000
      8     -12.8689      2.00000
      9     -12.8154      2.00000
     10      -2.1389      2.00000
     11      -1.8260      2.00000
     12      -1.1350      2.00000
     13      -0.7582      2.00000
     14      -0.6740      2.00000
     15      -0.5669      2.00000
     16      -0.5441      2.00000
     17      -0.4560      2.00000
     18      -0.3400      2.00000
     19      -0.2306      2.00000
     20      -0.1650      2.00000
     21      -0.0316      2.00000
     22       0.0535      2.00000
     23       0.1489      2.00000
     24       0.3723      2.00000
     25       0.5795      2.00000
     26       0.7035      2.00000
     27       0.9534      2.00000
     28       1.2681      2.00000
     29       1.5370      2.00000
     30       1.7245      2.00000
     31       1.8924      2.00000
     32       2.0647      2.00000
     33       2.1447      2.00000
     34       2.2792      2.00000
     35       2.2908      2.00000
     36       2.3291      2.00000
     37       2.3903      2.00000
     38       2.4629      2.00000
     39       2.5409      2.00000
     40       2.6166      2.00000
     41       2.6823      2.00000
     42       2.7245      2.00000
     43       3.1112      2.00000
     44       4.2767      2.00000
     45       5.2750      2.00000
     46       6.1977      2.00000
     47       6.5565      0.37781
     48       6.9151      0.00000
     49       7.5201      0.00000
     50       7.6378      0.00000
     51       8.3728      0.00000
     52       9.1037      0.00000
     53       9.3636      0.00000
     54      10.0348      0.00000
     55      10.2896      0.00000
     56      10.4725      0.00000
     57      10.7051      0.00000
     58      10.8205      0.00000
     59      11.2051      0.00000
     60      11.4558      0.00000
     61      11.5348      0.00000
     62      12.0867      0.00000
     63      12.2893      0.00000
     64      12.5271      0.00000
     65      12.5307      0.00000

 k-point     6 :       0.3846    0.0000    0.0000
  band No.  band energies     occupation 
      1     -13.1077      2.00000
      2     -13.0979      2.00000
      3     -13.0620      2.00000
      4     -13.0070      2.00000
      5     -12.9429      2.00000
      6     -12.8745      2.00000
      7     -12.8084      2.00000
      8     -12.7512      2.00000
      9     -12.7147      2.00000
     10      -1.0190      2.00000
     11      -0.9442      2.00000
     12      -0.9186      2.00000
     13      -0.8267      2.00000
     14      -0.8098      2.00000
     15      -0.7294      2.00000
     16      -0.6589      2.00000
     17      -0.6063      2.00000
     18      -0.5915      2.00000
     19      -0.4752      2.00000
     20      -0.4663      2.00000
     21       0.0447      2.00000
     22       0.0998      2.00000
     23       0.3173      2.00000
     24       0.6454      2.00000
     25       0.9456      2.00000
     26       1.0209      2.00000
     27       1.2644      2.00000
     28       1.4335      2.00000
     29       1.5320      2.00000
     30       1.7421      2.00000
     31       1.8393      2.00000
     32       1.9397      2.00000
     33       2.1435      2.00000
     34       2.1549      2.00000
     35       2.1929      2.00000
     36       2.2536      2.00000
     37       2.3255      2.00000
     38       2.4028      2.00000
     39       2.4779      2.00000
     40       2.5431      2.00000
     41       2.5850      2.00000
     42       3.2727      2.00000
     43       4.0888      2.00000
     44       4.3168      2.00000
     45       4.5961      2.00000
     46       5.1623      2.00000
     47       5.4758      2.00000
     48       6.1841      2.00000
     49       6.5177      1.17102
     50       7.0182      0.00000
     51       7.4856      0.00000
     52       8.2924      0.00000
     53       8.5666      0.00000
     54       9.2704      0.00000
     55       9.9409      0.00000
     56      10.3328      0.00000
     57      10.4380      0.00000
     58      10.7239      0.00000
     59      10.9610      0.00000
     60      11.4042      0.00000
     61      11.4852      0.00000
     62      11.7498      0.00000
     63      11.8632      0.00000
     64      12.0048      0.00000
     65      12.0577      0.00000

 k-point     7 :       0.4615    0.0000    0.0000
  band No.  band energies     occupation 
      1     -12.9363      2.00000
      2     -12.9276      2.00000
      3     -12.8797      2.00000
      4     -12.8512      2.00000
      5     -12.8169      2.00000
      6     -12.7784      2.00000
      7     -12.7400      2.00000
      8     -12.7058      2.00000
      9     -12.6844      2.00000
     10      -1.3524      2.00000
     11      -1.2758      2.00000
     12      -1.1520      2.00000
     13      -1.0052      2.00000
     14      -0.9725      2.00000
     15      -0.8951      2.00000
     16      -0.8687      2.00000
     17      -0.7781      2.00000
     18      -0.7602      2.00000
     19       0.5554      2.00000
     20       0.5894      2.00000
     21       0.6992      2.00000
     22       0.8643      2.00000
     23       0.9011      2.00000
     24       1.0920      2.00000
     25       1.1326      2.00000
     26       1.2388      2.00000
     27       1.3605      2.00000
     28       1.5478      2.00000
     29       1.6448      2.00000
     30       1.8594      2.00000
     31       2.0690      2.00000
     32       2.0802      2.00000
     33       2.1181      2.00000
     34       2.1784      2.00000
     35       2.2500      2.00000
     36       2.2787      2.00000
     37       2.3269      2.00000
     38       2.4016      2.00000
     39       2.4267      2.00000
     40       2.4665      2.00000
     41       2.5082      2.00000
     42       2.5865      2.00000
     43       3.1174      2.00000
     44       3.3893      2.00000
     45       4.1368      2.00000
     46       4.7324      2.00000
     47       5.1309      2.00000
     48       5.7456      2.00000
     49       6.4615      1.92901
     50       6.7696      0.00000
     51       7.3400      0.00000
     52       7.5951      0.00000
     53       8.2380      0.00000
     54       8.7045      0.00000
     55       9.3086      0.00000
     56       9.7894      0.00000
     57      10.3697      0.00000
     58      10.5524      0.00000
     59      10.8404      0.00000
     60      11.1615      0.00000
     61      11.4720      0.00000
     62      11.5943      0.00000
     63      11.7579      0.00000
     64      11.8182      0.00000
     65      12.0717      0.00000

 k-point     8 :       0.0769    0.0769    0.0000
  band No.  band energies     occupation 
      1     -13.9897      2.00000
[...]
     65      11.8502      0.00000

 k-point    19 :       0.3077    0.2308    0.0000
  band No.  band energies     occupation 
      1     -13.1372      2.00000
      2     -13.1234      2.00000
      3     -13.1014      2.00000
      4     -13.0667      2.00000
      5     -13.0241      2.00000
      6     -12.9796      2.00000
      7     -12.9375      2.00000
      8     -12.9026      2.00000
      9     -12.8823      2.00000
     10      -1.1199      2.00000
     11      -1.0156      2.00000
     12      -0.8776      2.00000
     13      -0.8633      2.00000
     14      -0.8033      2.00000
     15      -0.7418      2.00000
     16      -0.6887      2.00000
     17      -0.5353      2.00000
     18      -0.3820      2.00000
     19       0.0284      2.00000
     20       0.1811      2.00000
     21       0.3209      2.00000
     22       0.5016      2.00000
     23       0.6271      2.00000
     24       0.7003      2.00000
     25       0.7390      2.00000
     26       0.8388      2.00000
     27       0.9806      2.00000
     28       0.9975      2.00000
     29       1.1002      2.00000
     30       1.1731      2.00000
     31       1.3199      2.00000
     32       1.4033      2.00000
     33       1.5027      2.00000
     34       1.6193      2.00000
     35       1.6844      2.00000
     36       1.7921      2.00000
     37       1.8827      2.00000
     38       1.9891      2.00000
     39       1.9978      2.00000
     40       2.8294      2.00000
     41       3.8428      2.00000
     42       4.2420      2.00000
     43       4.6118      2.00000
     44       4.9072      2.00000
     45       5.2353      2.00000
     46       5.8275      2.00000
     47       5.8793      2.00000
     48       6.1562      2.00000
     49       6.2342      2.00000
     50       6.7233      1.99999
     51       7.1578      0.00000
     52       7.2882      0.00000
     53       7.7383      0.00000
     54       8.2036      0.00000
     55       8.7631      0.00000
     56       8.9320      0.00000
     57       9.3808      0.00000
     58       9.7276      0.00000
     59       9.9526      0.00000
     60      10.3761      0.00000
     61      10.8537      0.00000
     62      11.2925      0.00000
     63      11.8702      0.00000
     64      12.0623      0.00000
     65      12.0902      0.00000

 k-point    20 :       0.3846    0.2308    0.0000
  band No.  band energies     occupation 
      1     -13.0450      2.00000
      2     -13.0379      2.00000
      3     -13.0284      2.00000
      4     -13.0090      2.00000
      5     -12.9856      2.00000
      6     -12.9606      2.00000
      7     -12.9358      2.00000
      8     -12.9146      2.00000
      9     -12.9028      2.00000
     10      -1.2046      2.00000
     11      -1.0918      2.00000
     12      -0.9263      2.00000
     13      -0.7425      2.00000
     14      -0.7399      2.00000
     15      -0.7114      2.00000
     16      -0.6631      2.00000
     17      -0.6161      2.00000
     18      -0.6085      2.00000
     19       0.2152      2.00000
     20       0.2316      2.00000
     21       0.2833      2.00000
     22       0.3367      2.00000
     23       0.3387      2.00000
     24       0.4040      2.00000
     25       0.5427      2.00000
     26       0.7269      2.00000
     27       0.9067      2.00000
     28       1.2302      2.00000
     29       1.2521      2.00000
     30       1.4212      2.00000
     31       1.4654      2.00000
     32       1.5457      2.00000
     33       1.6406      2.00000
     34       1.7791      2.00000
     35       1.8636      2.00000
     36       1.8683      2.00000
     37       2.5008      2.00000
     38       2.5081      2.00000
     39       2.8795      2.00000
     40       2.8923      2.00000
     41       3.4355      2.00000
     42       3.5180      2.00000
     43       4.2312      2.00000
     44       4.3386      2.00000
     45       5.1679      2.00000
     46       5.4553      2.00000
     47       5.7119      2.00000
     48       6.0714      2.00000
     49       6.2234      2.00000
     50       6.4748      2.00000
     51       6.9147      0.37374
     52       7.3660      0.00000
     53       7.4638      0.00000
     54       7.9848      0.00000
     55       8.5950      0.00000
     56       8.7255      0.00000
     57       8.7760      0.00000
     58       9.6262      0.00000
     59      10.0704      0.00000
     60      10.2537      0.00000
     61      10.8085      0.00000
     62      11.2858      0.00000
     63      11.3659      0.00000
     64      12.0926      0.00000
     65      12.1544      0.00000

 k-point    21 :       0.3077    0.3077    0.0000
  band No.  band energies     occupation 
      1     -13.0171      2.00000
      2     -13.0082      2.00000
      3     -12.9968      2.00000
      4     -12.9814      2.00000
      5     -12.9641      2.00000
      6     -12.9465      2.00000
      7     -12.9295      2.00000
      8     -12.9154      2.00000
      9     -12.9086      2.00000
     10      -0.8483      2.00000
     11      -0.8472      2.00000
     12      -0.7484      2.00000
     13      -0.7449      2.00000
     14      -0.6369      2.00000
     15      -0.5855      2.00000
     16      -0.4521      2.00000
     17      -0.4158      2.00000
     18      -0.3293      2.00000
     19      -0.2016      2.00000
     20      -0.1604      2.00000
     21       0.0028      2.00000
     22       0.0492      2.00000
     23       0.1384      2.00000
     24       0.2764      2.00000
     25       0.3026      2.00000
     26       0.4582      2.00000
     27       0.4602      2.00000
     28       1.2404      2.00000
     29       1.2632      2.00000
     30       1.4489      2.00000
     31       1.5779      2.00000
     32       1.6308      2.00000
     33       1.6832      2.00000
     34       1.6897      2.00000
     35       1.7182      2.00000
     36       1.8264      2.00000
     37       2.3803      2.00000
     38       2.7644      2.00000
     39       3.3515      2.00000
     40       3.9902      2.00000
     41       3.9929      2.00000
     42       4.1623      2.00000
     43       4.3640      2.00000
     44       4.3787      2.00000
     45       4.9072      2.00000
     46       4.9586      2.00000
     47       5.1142      2.00000
     48       5.6570      2.00000
     49       5.8739      2.00000
     50       6.2260      2.00000
     51       6.8169      1.93926
     52       6.8467      1.69887
     53       7.7480      0.00000
     54       7.8785      0.00000
     55       8.3292      0.00000
     56       8.5233      0.00000
     57       8.9792      0.00000
     58       9.2394      0.00000
     59       9.7172      0.00000
     60       9.9769      0.00000
     61      10.4442      0.00000
     62      10.9748      0.00000
     63      11.8281      0.00000
     64      11.8430      0.00000
     65      12.4419      0.00000


--------------------------------------------------------------------------------------------------------


 soft charge-density along one line, spin component           1
         0         1         2         3         4         5         6         7         8         9
 total charge-density along one line
 
 pseudopotential strength for first ion, spin component:           1
 12.158 -14.792  -0.000  -0.000   0.000   0.000   0.000  -0.000
-14.792  18.015   0.000   0.000  -0.000  -0.000  -0.000   0.000
 -0.000   0.000  -8.286  -0.000   0.000   9.914   0.000  -0.000
 -0.000   0.000  -0.000  -8.287   0.000   0.000   9.915  -0.000
  0.000  -0.000   0.000   0.000  -8.286  -0.000  -0.000   9.914
  0.000  -0.000   9.914   0.000  -0.000 -11.698  -0.000   0.000
  0.000  -0.000   0.000   9.915  -0.000  -0.000 -11.700   0.000
 -0.000   0.000  -0.000  -0.000   9.914   0.000   0.000 -11.698
 total augmentation occupancy for first ion, spin component:           1
  2.612   0.369   0.000   0.000   0.000   0.000  -0.000   0.000
  0.369   0.070   0.000   0.000  -0.000   0.000  -0.000  -0.000
  0.000   0.000   2.168  -0.000  -0.000   0.262  -0.000  -0.000
  0.000   0.000  -0.000   2.170  -0.000  -0.000   0.264  -0.000
  0.000   0.000  -0.000  -0.000   2.168  -0.000  -0.000   0.262
  0.000   0.000   0.262  -0.000  -0.000   0.034  -0.000  -0.000
 -0.000  -0.000  -0.000   0.264  -0.000  -0.000   0.035  -0.000
  0.000   0.000  -0.000  -0.000   0.262  -0.000  -0.000   0.034


------------------------ aborting loop because EDIFF is reached ----------------------------------------


    CHARGE:  cpu time    0.3632: real time    0.3655
    FORLOC:  cpu time    0.0103: real time    0.0104
    FORNL :  cpu time    2.1906: real time    2.1937
    STRESS:  cpu time    5.5567: real time    5.5620
    FORCOR:  cpu time    0.0543: real time    0.0543
    FORHAR:  cpu time    0.0184: real time    0.0184
    MIXING:  cpu time    0.0016: real time    0.0015
    OFIELD:  cpu time    0.0000: real time    0.0000

  FORCE on cell =-STRESS in cart. coord.  units (eV):
  Direction    XX          YY          ZZ          XY          YZ          ZX
  --------------------------------------------------------------------------------------
  Alpha Z   127.10969   127.10969   127.10969
  Ewald   14993.64148 14993.64177-17472.46067    -0.00003    -0.00003    -0.00013
  Hartree 16606.72348 16606.72340-15751.20913    -0.00000    -0.00000     0.00004
  E(xc)    -390.44356  -390.44357  -391.12088    -0.00000     0.00000    -0.00000
  Local  -32743.42573-32743.42525 32076.92353    -0.00016     0.00003     0.00004
  n-local   -24.76721   -36.36425   -22.75932     2.62579    -1.62581     5.17415
  augment    53.97247    53.97225    53.45740     0.00016     0.00000     0.00000
  Kinetic  1407.19171  1358.73071  1380.03696     0.16729    -0.23711     0.45382
  Fock        0.00000     0.00000     0.00000     0.00000     0.00000     0.00000
  -------------------------------------------------------------------------------------
  Total      -0.02646    -0.02646    -0.02241    -0.00000     0.00000     0.00000
  in kB      -0.13329    -0.13329    -0.11286    -0.00000     0.00000     0.00000
  external pressure =       -0.13 kB  Pullay stress =        0.00 kB


 VOLUME and BASIS-vectors are now :
 -----------------------------------------------------------------------------
  energy-cutoff  :      520.00
  volume of cell :      318.10
      direct lattice vectors                 reciprocal lattice vectors
     2.591982046 -1.496481076 -0.000000000     0.385805142 -0.000000000 -0.000000000
     0.000000000  2.992962152  0.000000000     0.192902571  0.334117155  0.000000000
     0.000000000 -0.000000000 41.005001352     0.000000000 -0.000000000  0.024387269

  length of vectors
     2.992962836  2.992962152 41.005001352     0.385805142  0.385805230  0.024387269


 FORCES acting on ions
    electron-ion (+dipol)            ewald-force                    non-local-force                 convergence-correction
 -----------------------------------------------------------------------------------------------
   0.256E-07 0.303E-08 0.972E+03   0.383E-07 -.389E-07 -.972E+03   -.182E-18 0.428E-18 0.163E-01   0.619E-09 -.825E-09 0.303E-01
   0.106E-02 -.184E-02 0.648E+03   0.594E-04 -.103E-03 -.648E+03   -.512E-20 -.302E-21 0.817E-03   0.118E-07 -.204E-07 0.717E-01
   -.140E-07 0.220E-08 -.164E+01   -.846E-07 0.999E-07 0.155E+01   -.340E-20 -.461E-19 0.148E-01   -.242E-09 0.533E-09 0.903E-01
   0.106E-02 -.184E-02 -.325E+03   0.592E-04 -.103E-03 0.325E+03   -.764E-22 -.512E-20 0.969E-04   -.872E-08 0.152E-07 0.559E-01
   -.103E-07 -.689E-08 -.971E+03   0.593E-07 -.768E-07 0.971E+03   0.238E-18 -.199E-18 -.492E-01   -.354E-09 0.561E-09 -.197E-01
   0.106E-02 -.185E-02 -.129E+04   0.541E-04 -.893E-04 0.129E+04   -.671E-18 -.135E-16 -.101E+01   0.603E-08 -.106E-07 -.390E-01
   -.106E-02 0.185E-02 0.129E+04   -.543E-04 0.896E-04 -.129E+04   0.241E-17 -.374E-18 0.101E+01   0.141E-07 -.245E-07 -.653E-02
   -.106E-02 0.184E-02 0.323E+03   -.595E-04 0.103E-03 -.323E+03   0.497E-20 -.465E-19 0.158E-01   -.138E-07 0.241E-07 0.979E-01
   -.106E-02 0.184E-02 -.648E+03   -.591E-04 0.102E-03 0.648E+03   0.549E-20 -.107E-19 -.778E-02   0.980E-08 -.171E-07 0.102E-01
   -.102E-04 0.282E-05 0.464E+03   0.248E-04 -.263E-04 -.465E+03   -.683E-18 -.257E-18 0.697E+00   0.377E-10 0.606E-10 -.447E-02
   -.351E-07 0.160E-07 0.162E+03   0.917E-07 -.103E-06 -.162E+03   -.136E-19 0.404E-20 -.109E-01   -.215E-09 0.332E-09 0.301E-01
   -.329E-08 0.145E-07 -.162E+03   -.186E-07 0.211E-07 0.162E+03   0.973E-20 0.261E-19 0.284E-02   0.707E-10 -.115E-09 0.103E-01
   0.102E-04 -.281E-05 -.464E+03   -.248E-04 0.263E-04 0.464E+03   0.250E-16 -.553E-16 -.704E+00   0.147E-09 -.192E-09 -.140E-01
   0.447E-04 -.775E-04 0.270E+03   -.505E-04 0.875E-04 -.270E+03   -.147E-18 -.105E-18 -.106E-01   0.242E-09 -.362E-09 0.173E-01
   0.447E-04 -.774E-04 -.545E+02   -.504E-04 0.873E-04 0.545E+02   0.553E-20 -.107E-18 -.426E-02   -.186E-10 0.201E-10 0.247E-01
   0.446E-04 -.772E-04 -.378E+03   -.502E-04 0.870E-04 0.377E+03   -.596E-18 -.166E-19 0.451E-01   -.398E-09 0.560E-09 -.102E-01
   -.447E-04 0.773E-04 0.378E+03   0.503E-04 -.872E-04 -.378E+03   0.145E-17 -.172E-17 -.355E-01   -.144E-09 -.168E-10 0.432E-02
   -.448E-04 0.775E-04 0.535E+02   0.505E-04 -.875E-04 -.535E+02   0.100E-19 0.243E-20 -.659E-02   0.132E-09 -.624E-10 0.321E-01
   -.445E-04 0.772E-04 -.270E+03   0.502E-04 -.871E-04 0.270E+03   0.619E-19 0.104E-18 0.122E-01   0.312E-09 -.497E-09 -.312E-02
   -.241E-08 0.221E-09 0.454E+00   0.734E-08 -.729E-08 -.435E+00   -.534E-20 0.515E-19 0.730E-02   0.114E-11 -.206E-11 -.234E-01
   -.605E-06 -.165E-07 0.455E+03   0.267E-05 -.249E-05 -.455E+03   0.171E-17 0.139E-16 -.788E-01   0.279E-11 0.304E-11 -.611E-02
   0.156E-04 -.269E-04 0.302E+03   -.423E-05 0.729E-05 -.302E+03   0.128E-17 -.125E-19 0.337E-01   0.125E-10 -.181E-10 -.849E-02
   -.151E-04 0.261E-04 0.150E+03   0.429E-05 -.737E-05 -.150E+03   0.158E-17 -.104E-16 0.517E-01   -.200E-10 0.321E-10 -.151E-01
   0.607E-06 0.160E-07 -.454E+03   -.268E-05 0.249E-05 0.454E+03   -.121E-16 -.326E-19 0.883E-01   0.552E-11 -.192E-11 -.249E-01
   0.151E-04 -.261E-04 -.149E+03   -.428E-05 0.733E-05 0.149E+03   0.134E-18 0.350E-17 -.880E-01   0.578E-11 -.154E-10 -.299E-01
   -.156E-04 0.268E-04 -.301E+03   0.421E-05 -.725E-05 0.301E+03   0.126E-16 -.609E-22 0.165E-03   -.185E-11 -.844E-11 -.301E-01
 -----------------------------------------------------------------------------------------------
   -.576E-07 0.728E-07 -.231E+00   0.449E-13 0.201E-13 -.227E-12   0.321E-16 -.641E-16 -.537E-02   0.194E-07 -.334E-07 0.240E+00
 
 
 POSITION                                       TOTAL-FORCE (eV/Angst)
 -----------------------------------------------------------------------------------
      0.00000     -0.00000     14.19809         0.000000      0.000000     -0.017410
      0.86399      1.49648     16.65108        -0.000000      0.000000     -0.005355
      0.00000     -0.00000     21.55465         0.000000     -0.000000      0.015293
      0.86399      1.49648     24.00980        -0.000000      0.000000      0.008217
      0.00000     -0.00000     28.92464         0.000000      0.000000     -0.003907
      0.86399      1.49648     31.38298        -0.000000      0.000000     -0.003942
      1.72799     -0.00000     11.74197         0.000000     -0.000000     -0.003455
      1.72799     -0.00000     19.10197         0.000000     -0.000000      0.013837
      1.72799     -0.00000     26.46630        -0.000000      0.000000      0.002780
      0.00000     -0.00000     10.48471         0.000000      0.000000     -0.009878
      0.00000     -0.00000     17.87747         0.000000      0.000000     -0.009322
      0.00000     -0.00000     25.23784         0.000000     -0.000000      0.006519
      0.00000     -0.00000     32.64032         0.000000      0.000000     -0.007327
      1.72799     -0.00000     15.42533         0.000000      0.000000     -0.010817
      1.72799     -0.00000     22.78268         0.000000     -0.000000      0.000893
      1.72799     -0.00000     30.15318         0.000000      0.000000     -0.007503
      0.86399      1.49648     12.96964         0.000000     -0.000000      0.014267
      0.86399      1.49648     20.32905         0.000000     -0.000000      0.000470
      0.86399      1.49648     27.69441         0.000000     -0.000000      0.012080
      0.00000     -0.00000      1.05993         0.000000     -0.000000      0.003376
      0.00000     -0.00000      7.73470         0.000000     -0.000000     -0.001188
      1.72799     -0.00000      5.50687         0.000000     -0.000000      0.009638
      0.86399      1.49648      3.27736         0.000000      0.000000     -0.001504
      0.00000     -0.00000     35.38821         0.000000     -0.000000      0.004189
      1.72799     -0.00000     39.84873         0.000000      0.000000     -0.013683
      0.86399      1.49648     37.61508         0.000000     -0.000000      0.003733
 -----------------------------------------------------------------------------------
    total drift:                               -0.000000      0.000000      0.003282


--------------------------------------------------------------------------------------------------------



  FREE ENERGIE OF THE ION-ELECTRON SYSTEM (eV)
  ---------------------------------------------------
  free  energy   TOTEN  =      -133.38844635 eV

  energy  without entropy=     -133.38343141  energy(sigma->0) =     -133.38593888
 
 d Force = 0.1588789E-03[ 0.486E-04, 0.269E-03]  d Energy = 0.1450598E-03 0.138E-04
 d Force = 0.7855580E+01[ 0.785E+01, 0.786E+01]  d Ewald  = 0.1182924E+02-0.397E+01


--------------------------------------------------------------------------------------------------------


    POTLOK:  cpu time    0.2456: real time    0.2480


--------------------------------------------------------------------------------------------------------


 stress matrix after NEB project (eV)
     -0.02646      0.00000      0.00000
     -0.00000     -0.02646      0.00000
      0.00000      0.00000     -0.02241
  FORCES: max atom, RMS     0.017410    0.008784
  FORCE total and by dimension    0.044791    0.017410
  Stress total and by dimension    0.043621    0.026464
 Conjugate gradient step on ions:
 trial-energy change:   -0.000145  1 .order   -0.000163   -0.000277   -0.000050
  (g-gl).g = 0.133E-03      g.g   = 0.217E-03  gl.gl    = 0.301E-03
 g(Force)  = 0.210E-03   g(Stress)= 0.712E-05 ortho     =-0.278E-05
 gamma     =   0.44095
 trial     =   1.28297
 opt step  =   1.56361  (harmonic =   1.56361) maximal distance =0.00245783
 next E    =  -133.388470   (d E  =  -0.00017)


--------------------------------------------------------------------------------------------------------


  
 reached required accuracy - stopping structural energy minimisation
     LOOP+:  cpu time   31.9018: real time   31.9410
    4ORBIT:  cpu time    0.0000: real time    0.0000

 total amount of memory used by VASP MPI-rank0    76654. kBytes
=======================================================================

   base      :      30000. kBytes
   nonl-proj :      15259. kBytes
   fftplans  :      13302. kBytes
   grid      :       8144. kBytes
   one-center:         56. kBytes
   wavefun   :       9893. kBytes
 
  
  
 General timing and accounting informations for this job:
 ========================================================
  
                  Total CPU time used (sec):     1208.882
                            User time (sec):     1153.402
                          System time (sec):       55.480
                         Elapsed time (sec):     1210.432
  
                   Maximum memory used (kb):      167628.
                   Average memory used (kb):           0.
  
                          Minor page faults:      3442049
                          Major page faults:            0
                 Voluntary context switches:         1009
