       N       E                     dE             d eps       ncg     rms          rms(c)
DAV:   1     0.466180516454E+03    0.46618E+03   -0.41556E+04  6100   0.132E+03
DAV:   2    -0.950495800584E+02   -0.56123E+03   -0.53306E+03  7904   0.250E+02
DAV:   3    -0.147732306182E+03   -0.52683E+02   -0.52355E+02  7082   0.825E+01
DAV:   4    -0.148408280838E+03   -0.67597E+00   -0.67489E+00  7138   0.102E+01
DAV:   5    -0.148418414435E+03   -0.10134E-01   -0.10130E-01  7196   0.123E+00    0.219E+01
DAV:   6    -0.134067354483E+03    0.14351E+02   -0.82522E+01  6908   0.292E+01    0.745E+00
DAV:   7    -0.133953481502E+03    0.11387E+00   -0.15734E+00  6678   0.507E+00    0.455E+00
DAV:   8    -0.133851177015E+03    0.10230E+00   -0.44480E-01  7170   0.393E+00    0.782E-01
DAV:   9    -0.133840794156E+03    0.10383E-01   -0.60543E-02  6956   0.115E+00    0.450E-01
DAV:  10    -0.133841496217E+03   -0.70206E-03   -0.46964E-02  6916   0.919E-01    0.268E-01
DAV:  11    -0.133841167202E+03    0.32902E-03   -0.35355E-03  6902   0.300E-01    0.199E-01
DAV:  12    -0.133840891632E+03    0.27557E-03   -0.82654E-03  7856   0.466E-01    0.107E-01
DAV:  13    -0.133840740639E+03    0.15099E-03   -0.16747E-03  7032   0.192E-01    0.810E-02
DAV:  14    -0.133840614513E+03    0.12613E-03   -0.66338E-04  7424   0.127E-01    0.289E-02
DAV:  15    -0.133840528540E+03    0.85973E-04   -0.11531E-04  7152   0.782E-02    0.132E-02
DAV:  16    -0.133840492831E+03    0.35709E-04   -0.69154E-05  6888   0.551E-02    0.791E-03
DAV:  17    -0.133840418131E+03    0.74700E-04   -0.77206E-05  7270   0.106E-01    0.160E-02
DAV:  18    -0.133840378026E+03    0.40104E-04   -0.65641E-05  7206   0.958E-02    0.149E-02
DAV:  19    -0.133840347519E+03    0.30507E-04   -0.13371E-04  8040   0.128E-01    0.111E-02
DAV:  20    -0.133840343107E+03    0.44119E-05   -0.77743E-05  6414   0.558E-02
   1 F= -.13384034E+03 E0= -.13383952E+03  d E =-.133840E+03
       N       E                     dE             d eps       ncg     rms          rms(c)
DAV:   1    -0.133840871295E+03   -0.52378E-03   -0.65116E-03  6520   0.358E-01    0.160E-02
DAV:   2    -0.133840877297E+03   -0.60024E-05   -0.26926E-04  7102   0.686E-02    0.164E-02
DAV:   3    -0.133840868223E+03    0.90741E-05   -0.10860E-05  4510   0.215E-02    0.111E-02
DAV:   4    -0.133840847396E+03    0.20827E-04   -0.53248E-05  6372   0.557E-02    0.108E-02
DAV:   5    -0.133840843498E+03    0.38975E-05   -0.18697E-05  4272   0.215E-02    0.997E-03
DAV:   6    -0.133840837770E+03    0.57286E-05   -0.13103E-05  4014   0.191E-02
   2 F= -.13384084E+03 E0= -.13383999E+03  d E =-.494663E-03
       N       E                     dE             d eps       ncg     rms          rms(c)
DAV:   1    -0.133841095132E+03   -0.25163E-03   -0.14118E-02  6448   0.527E-01    0.227E-02
DAV:   2    -0.133841097874E+03   -0.27427E-05   -0.57225E-04  7132   0.993E-02    0.222E-02
DAV:   3    -0.133841070178E+03    0.27696E-04   -0.25518E-05  5652   0.343E-02    0.141E-02
DAV:   4    -0.133840998115E+03    0.72063E-04   -0.12728E-04  7362   0.942E-02    0.170E-02
DAV:   5    -0.133840985988E+03    0.12128E-04   -0.51293E-05  6382   0.354E-02    0.153E-02
DAV:   6    -0.133840968417E+03    0.17571E-04   -0.23319E-05  5200   0.273E-02    0.568E-03
DAV:   7    -0.133840894913E+03    0.73504E-04   -0.42965E-05  6344   0.116E-01    0.941E-03
DAV:   8    -0.133840858642E+03    0.36271E-04   -0.52536E-05  6896   0.937E-02    0.104E-02
DAV:   9    -0.133840825534E+03    0.33108E-04   -0.60945E-05  7268   0.136E-01    0.522E-03
DAV:  10    -0.133840823557E+03    0.19772E-05   -0.94780E-05  7026   0.861E-02
   3 F= -.13384082E+03 E0= -.13383993E+03  d E =-.480450E-03
       N       E                     dE             d eps       ncg     rms          rms(c)
DAV:   1    -0.133840916107E+03   -0.90573E-04   -0.20617E-03  6514   0.199E-01    0.111E-02
DAV:   2    -0.133840914488E+03    0.16190E-05   -0.65791E-05  7032   0.349E-02    0.768E-03
DAV:   3    -0.133840910848E+03    0.36400E-05   -0.41515E-06  3936   0.122E-02    0.419E-03
DAV:   4    -0.133840906719E+03    0.41291E-05   -0.48292E-06  4394   0.152E-02    0.259E-03
DAV:   5    -0.133840905085E+03    0.16335E-05   -0.23101E-06  3758   0.100E-02    0.181E-03
DAV:   6    -0.133840902486E+03    0.25988E-05   -0.18751E-06  4354   0.151E-02
   4 F= -.13384090E+03 E0= -.13384003E+03  d E =-.559379E-03
       N       E                     dE             d eps       ncg     rms          rms(c)
DAV:   1    -0.133841107641E+03   -0.20256E-03   -0.29759E-02  6280   0.761E-01    0.225E-02
DAV:   2    -0.133841168545E+03   -0.60904E-04   -0.69760E-04  6896   0.110E-01    0.135E-02
DAV:   3    -0.133841164104E+03    0.44408E-05   -0.99823E-06  4012   0.171E-02    0.979E-03
DAV:   4    -0.133841158291E+03    0.58139E-05   -0.10029E-05  4186   0.198E-02    0.399E-03
DAV:   5    -0.133841156725E+03    0.15653E-05   -0.38990E-06  3810   0.145E-02    0.395E-03
DAV:   6    -0.133841154810E+03    0.19153E-05   -0.31221E-06  3900   0.187E-02
   5 F= -.13384115E+03 E0= -.13384026E+03  d E =-.252324E-03
       N       E                     dE             d eps       ncg     rms          rms(c)
DAV:   1    -0.133841050092E+03    0.10663E-03   -0.26878E-01  6260   0.229E+00    0.670E-02
DAV:   2    -0.133841608224E+03   -0.55813E-03   -0.63098E-03  6934   0.325E-01    0.404E-02
DAV:   3    -0.133841570948E+03    0.37275E-04   -0.82025E-05  7164   0.459E-02    0.283E-02
DAV:   4    -0.133841529240E+03    0.41708E-04   -0.90233E-05  6872   0.510E-02    0.126E-02
DAV:   5    -0.133841520073E+03    0.91675E-05   -0.24385E-05  5558   0.359E-02    0.107E-02
DAV:   6    -0.133841508081E+03    0.11992E-04   -0.27071E-05  5446   0.512E-02    0.454E-03
DAV:   7    -0.133841502450E+03    0.56310E-05   -0.17712E-05  4512   0.280E-02
   6 F= -.13384150E+03 E0= -.13384056E+03  d E =-.599964E-03
       N       E                     dE             d eps       ncg     rms          rms(c)
DAV:   1    -0.133841791656E+03   -0.28357E-03   -0.10075E-01  6368   0.139E+00    0.413E-02
DAV:   2    -0.133841995891E+03   -0.20424E-03   -0.24306E-03  6852   0.198E-01    0.272E-02
DAV:   3    -0.133841972196E+03    0.23696E-04   -0.22559E-05  5416   0.289E-02    0.196E-02
DAV:   4    -0.133841937773E+03    0.34423E-04   -0.97803E-05  6832   0.617E-02    0.104E-02
DAV:   5    -0.133841934483E+03    0.32898E-05   -0.31257E-05  5660   0.259E-02    0.994E-03
DAV:   6    -0.133841929063E+03    0.54201E-05   -0.78578E-06  3826   0.153E-02
   7 F= -.13384193E+03 E0= -.13384098E+03  d E =-.426612E-03
       N       E                     dE             d eps       ncg     rms          rms(c)
DAV:   1    -0.133841528526E+03    0.40596E-03   -0.46492E-01  6344   0.298E+00    0.838E-02
DAV:   2    -0.133842465018E+03   -0.93649E-03   -0.10779E-02  6882   0.412E-01    0.567E-02
DAV:   3    -0.133842371994E+03    0.93024E-04   -0.10330E-04  7312   0.581E-02    0.409E-02
DAV:   4    -0.133842257826E+03    0.11417E-03   -0.27199E-04  7186   0.105E-01    0.147E-02
DAV:   5    -0.133842237767E+03    0.20058E-04   -0.94509E-05  6932   0.452E-02    0.143E-02
DAV:   6    -0.133842199250E+03    0.38517E-04   -0.49495E-05  6384   0.413E-02    0.894E-03
DAV:   7    -0.133842156641E+03    0.42610E-04   -0.24524E-05  5364   0.592E-02    0.160E-02
DAV:   8    -0.133842092920E+03    0.63720E-04   -0.56373E-05  6794   0.107E-01    0.772E-03
DAV:   9    -0.133842056327E+03    0.36593E-04   -0.16819E-04  8316   0.139E-01    0.235E-02
DAV:  10    -0.133842023583E+03    0.32744E-04   -0.80054E-05  6996   0.848E-02    0.760E-03
DAV:  11    -0.133842019139E+03    0.44441E-05   -0.55443E-05  6442   0.537E-02
   8 F= -.13384202E+03 E0= -.13384107E+03  d E =-.516689E-03
       N       E                     dE             d eps       ncg     rms          rms(c)
DAV:   1    -0.133841999523E+03    0.24060E-04   -0.35745E-02  6584   0.825E-01    0.269E-02
DAV:   2    -0.133842089822E+03   -0.90299E-04   -0.10491E-03  6900   0.127E-01    0.207E-02
DAV:   3    -0.133842080686E+03    0.91364E-05   -0.13239E-05  4294   0.221E-02    0.154E-02
DAV:   4    -0.133842072789E+03    0.78970E-05   -0.73528E-05  6420   0.456E-02    0.986E-03
DAV:   5    -0.133842072028E+03    0.76058E-06   -0.15132E-05  4028   0.177E-02    0.875E-03
DAV:   6    -0.133842071020E+03    0.10088E-05   -0.39426E-06  3488   0.872E-03
   9 F= -.13384207E+03 E0= -.13384113E+03  d E =-.568569E-03
       N       E                     dE             d eps       ncg     rms          rms(c)
DAV:   1    -0.133842311692E+03   -0.23966E-03   -0.28590E-02  6118   0.741E-01    0.270E-02
DAV:   2    -0.133842368440E+03   -0.56748E-04   -0.75063E-04  6970   0.115E-01    0.142E-02
DAV:   3    -0.133842364819E+03    0.36214E-05   -0.30011E-05  5620   0.268E-02    0.122E-02
DAV:   4    -0.133842360915E+03    0.39042E-05   -0.83111E-06  3714   0.154E-02    0.618E-03
DAV:   5    -0.133842356052E+03    0.48627E-05   -0.70474E-06  4156   0.242E-02    0.463E-03
DAV:   6    -0.133842353798E+03    0.22543E-05   -0.51550E-06  3790   0.195E-02
  10 F= -.13384235E+03 E0= -.13384140E+03  d E =-.282778E-03
       N       E                     dE             d eps       ncg     rms          rms(c)
DAV:   1    -0.133842328593E+03    0.27459E-04   -0.16425E-01  6076   0.178E+00    0.614E-02
DAV:   2    -0.133842678342E+03   -0.34975E-03   -0.44233E-03  6988   0.277E-01    0.380E-02
DAV:   3    -0.133842649067E+03    0.29274E-04   -0.13809E-04  7124   0.614E-02    0.310E-02
DAV:   4    -0.133842619928E+03    0.29139E-04   -0.71253E-05  6606   0.437E-02    0.137E-02
DAV:   5    -0.133842593597E+03    0.26331E-04   -0.26487E-05  5980   0.546E-02    0.115E-02
DAV:   6    -0.133842573245E+03    0.20352E-04   -0.20056E-05  5290   0.611E-02    0.103E-02
DAV:   7    -0.133842561809E+03    0.11436E-04   -0.50413E-05  5742   0.545E-02    0.745E-03
DAV:   8    -0.133842549866E+03    0.11943E-04   -0.13839E-05  4304   0.292E-02    0.380E-03
DAV:   9    -0.133842526631E+03    0.23235E-04   -0.11834E-05  4898   0.825E-02    0.786E-03
DAV:  10    -0.133842513578E+03    0.13053E-04   -0.30303E-05  5876   0.799E-02    0.874E-03
DAV:  11    -0.133842504489E+03    0.90889E-05   -0.56479E-05  6780   0.107E-01
  11 F= -.13384250E+03 E0= -.13384154E+03  d E =-.433470E-03
       N       E                     dE             d eps       ncg     rms          rms(c)
DAV:   1    -0.133842516857E+03   -0.32793E-05   -0.12617E-02  6352   0.498E-01    0.181E-02
DAV:   2    -0.133842539083E+03   -0.22226E-04   -0.32585E-04  7038   0.797E-02    0.123E-02
DAV:   3    -0.133842536485E+03    0.25981E-05   -0.19593E-05  4062   0.236E-02    0.876E-03
DAV:   4    -0.133842534226E+03    0.22592E-05   -0.59312E-06  3732   0.127E-02    0.450E-03
DAV:   5    -0.133842531919E+03    0.23067E-05   -0.34565E-06  4314   0.167E-02    0.287E-03
DAV:   6    -0.133842530520E+03    0.13989E-05   -0.32107E-06  3898   0.196E-02
  12 F= -.13384253E+03 E0= -.13384157E+03  d E =-.459501E-03
       N       E                     dE             d eps       ncg     rms          rms(c)
DAV:   1    -0.133842819598E+03   -0.28768E-03   -0.19571E-02  6108   0.596E-01    0.172E-02
DAV:   2    -0.133842849909E+03   -0.30312E-04   -0.40342E-04  7124   0.822E-02    0.110E-02
DAV:   3    -0.133842845605E+03    0.43047E-05   -0.58994E-06  4118   0.138E-02    0.815E-03
DAV:   4    -0.133842840180E+03    0.54250E-05   -0.14470E-05  4580   0.247E-02    0.317E-03
DAV:   5    -0.133842840022E+03    0.15783E-06   -0.78168E-06  3758   0.128E-02    0.434E-03
DAV:   6    -0.133842839760E+03    0.26174E-06   -0.12852E-06  3674   0.519E-03
  13 F= -.13384284E+03 E0= -.13384187E+03  d E =-.309240E-03
       N       E                     dE             d eps       ncg     rms          rms(c)
DAV:   1    -0.133843112617E+03   -0.27259E-03   -0.17660E-01  6084   0.179E+00    0.525E-02
DAV:   2    -0.133843387183E+03   -0.27457E-03   -0.36804E-03  7138   0.247E-01    0.336E-02
DAV:   3    -0.133843346325E+03    0.40858E-04   -0.65846E-05  7284   0.429E-02    0.245E-02
DAV:   4    -0.133843299350E+03    0.46975E-04   -0.11340E-04  6908   0.598E-02    0.113E-02
DAV:   5    -0.133843288310E+03    0.11040E-04   -0.42256E-05  6734   0.331E-02    0.127E-02
DAV:   6    -0.133843279544E+03    0.87661E-05   -0.18053E-05  4538   0.241E-02
  14 F= -.13384328E+03 E0= -.13384228E+03  d E =-.749023E-03
       N       E                     dE             d eps       ncg     rms          rms(c)
DAV:   1    -0.133843257321E+03    0.30989E-04   -0.73702E-03  6544   0.369E-01    0.125E-02
DAV:   2    -0.133843266720E+03   -0.93997E-05   -0.18884E-04  7138   0.569E-02    0.954E-03
DAV:   3    -0.133843261448E+03    0.52720E-05   -0.75038E-06  3844   0.146E-02    0.554E-03
DAV:   4    -0.133843253954E+03    0.74941E-05   -0.39678E-06  4250   0.144E-02    0.325E-03
DAV:   5    -0.133843244386E+03    0.95683E-05   -0.37871E-06  4364   0.243E-02    0.321E-03
DAV:   6    -0.133843226958E+03    0.17428E-04   -0.17151E-05  5066   0.674E-02    0.468E-03
DAV:   7    -0.133843224905E+03    0.20522E-05   -0.28186E-05  5642   0.311E-02
  15 F= -.13384322E+03 E0= -.13384221E+03  d E =-.694385E-03
       N       E                     dE             d eps       ncg     rms          rms(c)
DAV:   1    -0.133843332711E+03   -0.10575E-03   -0.65480E-02  6260   0.112E+00    0.323E-02
DAV:   2    -0.133843467280E+03   -0.13457E-03   -0.14506E-03  7006   0.154E-01    0.181E-02
DAV:   3    -0.133843459493E+03    0.77868E-05   -0.13759E-05  4518   0.198E-02    0.125E-02
DAV:   4    -0.133843453580E+03    0.59130E-05   -0.25915E-05  5510   0.280E-02    0.455E-03
DAV:   5    -0.133843453946E+03   -0.36626E-06   -0.85155E-06  3620   0.134E-02    0.501E-03
DAV:   6    -0.133843453838E+03    0.10833E-06   -0.13330E-06  3560   0.512E-03
  16 F= -.13384345E+03 E0= -.13384242E+03  d E =-.228933E-03
       N       E                     dE             d eps       ncg     rms          rms(c)
DAV:   1    -0.133842808446E+03    0.64550E-03   -0.58925E-01  6180   0.336E+00    0.947E-02
DAV:   2    -0.133843992727E+03   -0.11843E-02   -0.12702E-02  7048   0.457E-01    0.541E-02
DAV:   3    -0.133843923514E+03    0.69213E-04   -0.11673E-04  7296   0.574E-02    0.370E-02
DAV:   4    -0.133843865973E+03    0.57541E-04   -0.17903E-04  6844   0.840E-02    0.114E-02
DAV:   5    -0.133843869229E+03   -0.32560E-05   -0.87420E-05  6478   0.416E-02    0.139E-02
DAV:   6    -0.133843868043E+03    0.11863E-05   -0.67164E-06  3716   0.110E-02
  17 F= -.13384387E+03 E0= -.13384281E+03  d E =-.643137E-03
       N       E                     dE             d eps       ncg     rms          rms(c)
DAV:   1    -0.133844077295E+03   -0.20807E-03   -0.17729E-01  6236   0.186E+00    0.565E-02
DAV:   2    -0.133844421728E+03   -0.34443E-03   -0.40916E-03  6942   0.257E-01    0.323E-02
DAV:   3    -0.133844389492E+03    0.32236E-04   -0.51216E-05  7242   0.367E-02    0.233E-02
DAV:   4    -0.133844358240E+03    0.31252E-04   -0.64571E-05  6590   0.499E-02    0.850E-03
DAV:   5    -0.133844347903E+03    0.10337E-04   -0.28714E-05  5816   0.286E-02    0.703E-03
DAV:   6    -0.133844336397E+03    0.11506E-04   -0.10555E-05  4332   0.201E-02    0.421E-03
DAV:   7    -0.133844323968E+03    0.12429E-04   -0.42829E-06  4442   0.299E-02    0.608E-03
DAV:   8    -0.133844302253E+03    0.21715E-04   -0.10474E-05  4730   0.668E-02    0.438E-03
DAV:   9    -0.133844286911E+03    0.15342E-04   -0.45970E-05  6506   0.907E-02    0.729E-03
DAV:  10    -0.133844283320E+03    0.35910E-05   -0.29814E-05  5614   0.381E-02
  18 F= -.13384428E+03 E0= -.13384323E+03  d E =-.415277E-03
       N       E                     dE             d eps       ncg     rms          rms(c)
DAV:   1    -0.133844244846E+03    0.42064E-04   -0.93101E-02  6300   0.135E+00    0.371E-02
DAV:   2    -0.133844425794E+03   -0.18095E-03   -0.21047E-03  6930   0.185E-01    0.240E-02
DAV:   3    -0.133844411505E+03    0.14289E-04   -0.26188E-05  5860   0.250E-02    0.174E-02
DAV:   4    -0.133844398921E+03    0.12584E-04   -0.28281E-05  5686   0.296E-02    0.654E-03
DAV:   5    -0.133844395941E+03    0.29799E-05   -0.11595E-05  3910   0.179E-02    0.424E-03
DAV:   6    -0.133844393509E+03    0.24319E-05   -0.47783E-06  4094   0.136E-02
  19 F= -.13384439E+03 E0= -.13384334E+03  d E =-.525466E-03
       N       E                     dE             d eps       ncg     rms          rms(c)
DAV:   1    -0.133844386334E+03    0.96063E-05   -0.54636E-03  6444   0.327E-01    0.928E-03
DAV:   2    -0.133844395484E+03   -0.91500E-05   -0.12411E-04  6940   0.451E-02    0.611E-03
DAV:   3    -0.133844393439E+03    0.20456E-05   -0.14323E-06  3722   0.805E-03    0.420E-03
DAV:   4    -0.133844389885E+03    0.35534E-05   -0.24101E-06  3944   0.148E-02    0.172E-03
DAV:   5    -0.133844387224E+03    0.26619E-05   -0.18604E-06  3796   0.157E-02    0.137E-03
DAV:   6    -0.133844382321E+03    0.49025E-05   -0.24550E-06  4298   0.313E-02
  20 F= -.13384438E+03 E0= -.13384333E+03  d E =-.514278E-03
       N       E                     dE             d eps       ncg     rms          rms(c)
DAV:   1    -0.133844540133E+03   -0.15291E-03   -0.35741E-02  6124   0.843E-01    0.265E-02
DAV:   2    -0.133844607586E+03   -0.67453E-04   -0.82442E-04  7010   0.122E-01    0.151E-02
DAV:   3    -0.133844603311E+03    0.42751E-05   -0.25656E-05  5496   0.259E-02    0.117E-02
DAV:   4    -0.133844600037E+03    0.32747E-05   -0.90596E-06  3710   0.152E-02    0.599E-03
DAV:   5    -0.133844597379E+03    0.26579E-05   -0.47833E-06  4140   0.157E-02    0.370E-03
DAV:   6    -0.133844595955E+03    0.14239E-05   -0.33487E-06  3726   0.168E-02
  21 F= -.13384460E+03 E0= -.13384354E+03  d E =-.213634E-03
       N       E                     dE             d eps       ncg     rms          rms(c)
DAV:   1    -0.133844607085E+03   -0.97061E-05   -0.43506E-02  6088   0.929E-01    0.312E-02
DAV:   2    -0.133844690986E+03   -0.83901E-04   -0.10987E-03  7000   0.142E-01    0.182E-02
DAV:   3    -0.133844682605E+03    0.83811E-05   -0.36930E-05  6176   0.314E-02    0.149E-02
DAV:   4    -0.133844673814E+03    0.87906E-05   -0.13700E-05  3934   0.198E-02    0.741E-03
DAV:   5    -0.133844662665E+03    0.11149E-04   -0.11877E-05  4454   0.328E-02    0.722E-03
DAV:   6    -0.133844653812E+03    0.88535E-05   -0.82957E-06  4286   0.372E-02
  22 F= -.13384465E+03 E0= -.13384359E+03  d E =-.271491E-03
       N       E                     dE             d eps       ncg     rms          rms(c)
DAV:   1    -0.133844858552E+03   -0.19589E-03   -0.27381E-02  6196   0.719E-01    0.241E-02
DAV:   2    -0.133844895789E+03   -0.37237E-04   -0.62404E-04  7170   0.106E-01    0.143E-02
DAV:   3    -0.133844885247E+03    0.10543E-04   -0.17573E-05  4776   0.205E-02    0.101E-02
DAV:   4    -0.133844867474E+03    0.17773E-04   -0.14998E-05  4600   0.288E-02    0.513E-03
DAV:   5    -0.133844856517E+03    0.10957E-04   -0.87619E-06  4314   0.275E-02    0.600E-03
DAV:   6    -0.133844839454E+03    0.17064E-04   -0.72669E-06  4756   0.470E-02    0.385E-03
DAV:   7    -0.133844821917E+03    0.17537E-04   -0.13954E-05  4890   0.618E-02    0.512E-03
DAV:   8    -0.133844804710E+03    0.17207E-04   -0.23051E-05  5770   0.863E-02    0.385E-03
DAV:   9    -0.133844799129E+03    0.55807E-05   -0.47313E-05  6602   0.894E-02
  23 F= -.13384480E+03 E0= -.13384372E+03  d E =-.145317E-03
       N       E                     dE             d eps       ncg     rms          rms(c)
DAV:   1    -0.133844825900E+03   -0.21190E-04   -0.38376E-03  6472   0.267E-01    0.129E-02
DAV:   2    -0.133844832494E+03   -0.65948E-05   -0.11107E-04  6828   0.455E-02    0.653E-03
DAV:   3    -0.133844831509E+03    0.98504E-06   -0.33906E-06  3746   0.101E-02    0.470E-03
DAV:   4    -0.133844830573E+03    0.93626E-06   -0.42585E-06  3722   0.121E-02    0.193E-03
DAV:   5    -0.133844830327E+03    0.24613E-06   -0.12588E-06  3668   0.609E-03    0.216E-03
DAV:   6    -0.133844829482E+03    0.84531E-06   -0.65245E-07  3722   0.923E-03
  24 F= -.13384483E+03 E0= -.13384374E+03  d E =-.175670E-03
       N       E                     dE             d eps       ncg     rms          rms(c)
DAV:   1    -0.133844952250E+03   -0.12192E-03   -0.81206E-02  6492   0.121E+00    0.349E-02
DAV:   2    -0.133845097631E+03   -0.14538E-03   -0.17155E-03  7164   0.170E-01    0.220E-02
DAV:   3    -0.133845082760E+03    0.14872E-04   -0.28882E-05  5762   0.310E-02    0.160E-02
DAV:   4    -0.133845067098E+03    0.15662E-04   -0.26766E-05  5876   0.354E-02    0.656E-03
DAV:   5    -0.133845062891E+03    0.42067E-05   -0.16800E-05  4630   0.291E-02    0.566E-03
DAV:   6    -0.133845062164E+03    0.72705E-06   -0.87771E-06  3684   0.140E-02
  25 F= -.13384506E+03 E0= -.13384396E+03  d E =-.232682E-03
       N       E                     dE             d eps       ncg     rms          rms(c)
DAV:   1    -0.133845046264E+03    0.16627E-04   -0.31823E-02  6492   0.760E-01    0.226E-02
DAV:   2    -0.133845095296E+03   -0.49032E-04   -0.66468E-04  7152   0.111E-01    0.144E-02
DAV:   3    -0.133845086461E+03    0.88349E-05   -0.22522E-05  4982   0.286E-02    0.113E-02
DAV:   4    -0.133845077110E+03    0.93509E-05   -0.63470E-06  4014   0.208E-02    0.650E-03
DAV:   5    -0.133845063150E+03    0.13961E-04   -0.95000E-06  4562   0.405E-02    0.454E-03
DAV:   6    -0.133845055796E+03    0.73541E-05   -0.12203E-05  4362   0.336E-02
  26 F= -.13384506E+03 E0= -.13384394E+03  d E =-.226314E-03
       N       E                     dE             d eps       ncg     rms          rms(c)
DAV:   1    -0.133845044396E+03    0.18754E-04   -0.20220E-03  6832   0.203E-01    0.122E-02
DAV:   2    -0.133845050132E+03   -0.57359E-05   -0.11231E-04  6618   0.450E-02    0.115E-02
DAV:   3    -0.133845047979E+03    0.21525E-05   -0.11392E-05  3758   0.154E-02    0.593E-03
DAV:   4    -0.133845046692E+03    0.12877E-05   -0.33277E-06  3722   0.891E-03    0.267E-03
DAV:   5    -0.133845044793E+03    0.18991E-05   -0.28155E-06  3818   0.940E-03    0.274E-03
DAV:   6    -0.133845042714E+03    0.20791E-05   -0.13119E-06  3906   0.159E-02
  27 F= -.13384504E+03 E0= -.13384393E+03  d E =-.213232E-03
       N       E                     dE             d eps       ncg     rms          rms(c)
DAV:   1    -0.133845039629E+03    0.51636E-05   -0.45191E-03  6864   0.287E-01    0.998E-03
DAV:   2    -0.133845050209E+03   -0.10580E-04   -0.12303E-04  6714   0.434E-02    0.749E-03
DAV:   3    -0.133845049011E+03    0.11980E-05   -0.20682E-06  3704   0.928E-03    0.466E-03
DAV:   4    -0.133845048385E+03    0.62592E-06   -0.39990E-06  3694   0.122E-02    0.133E-03
DAV:   5    -0.133845048459E+03   -0.74007E-07   -0.13613E-06  3506   0.492E-03    0.150E-03
DAV:   6    -0.133845048429E+03    0.30472E-07   -0.13087E-07  3326   0.150E-03
  28 F= -.13384505E+03 E0= -.13384394E+03  d E =-.218947E-03
