 vasp.5.3.5 31Mar14 (build Apr 08 2024 10:12:10) complex                        
  
 executed on             LinuxIFC date 2024.07.29  11:46:36
 running on    8 total cores
 distrk:  each k-point on    8 cores,    1 groups
 distr:  one band on NCORES_PER_BAND=   4 cores,    2 groups


--------------------------------------------------------------------------------------------------------


 INCAR:
 POTCAR:    PAW_PBE O 08Apr2002                   
 POTCAR:    PAW_PBE Mg 13Apr2007                  
 POTCAR:    PAW_PBE Al 04Jan2001                  
 POTCAR:    PAW_PBE O 08Apr2002                   
   VRHFIN =O: s2p4                                                              
   LEXCH  = PE                                                                  
   EATOM  =   432.3788 eV,   31.7789 Ry                                         
                                                                                
   TITEL  = PAW_PBE O 08Apr2002                                                 
   LULTRA =        F    use ultrasoft PP ?                                      
   IUNSCR =        1    unscreen: 0-lin 1-nonlin 2-no                           
   RPACOR =    1.200    partial core radius                                     
   POMASS =   16.000; ZVAL   =    6.000    mass and valenz                      
   RCORE  =    1.520    outmost cutoff radius                                   
   RWIGS  =    1.550; RWIGS  =    0.820    wigner-seitz radius (au A)           
   ENMAX  =  400.000; ENMIN  =  300.000 eV                                      
   ICORE  =        2    local potential                                         
   LCOR   =        T    correct aug charges                                     
   LPAW   =        T    paw PP                                                  
   EAUG   =  605.392                                                            
   DEXC   =    0.000                                                            
   RMAX   =    1.553    core radius for proj-oper                               
   RAUG   =    1.300    factor for augmentation sphere                          
   RDEP   =    1.550    radius for radial grids                                 
   RDEPT  =    1.329    core radius for aug-charge                              
                                                                                
   Atomic configuration                                                         
    4 entries                                                                   
     n  l   j            E        occ.                                          
     1  0  0.50      -514.6923   2.0000                                         
     2  0  0.50       -23.9615   2.0000                                         
     2  1  0.50        -9.0305   4.0000                                         
     3  2  1.50        -9.5241   0.0000                                         
   Description                                                                  
     l       E           TYP  RCUT    TYP  RCUT                                 
     0    -23.9615318     23  1.200                                             
     0     -9.5240782     23  1.200                                             
     1     -9.0304911     23  1.520                                             
     1      8.1634956     23  1.520                                             
     2     -9.5240782      7  1.500                                             
  local pseudopotential read in
  partial core-charges read in
  partial kinetic energy density read in
  kinetic energy density of atom read in
  atomic valenz-charges read in
  non local Contribution for L=           0  read in
    real space projection operators read in
  non local Contribution for L=           0  read in
    real space projection operators read in
  non local Contribution for L=           1  read in
    real space projection operators read in
  non local Contribution for L=           1  read in
    real space projection operators read in
    PAW grid and wavefunctions read in
 
   number of l-projection  operators is LMAX  =           4
   number of lm-projection operators is LMMAX =           8
 
 POTCAR:    PAW_PBE Mg 13Apr2007                  
   VRHFIN =Mg: s2p0                                                             
   LEXCH  = PE                                                                  
   EATOM  =    23.0369 eV,    1.6932 Ry                                         
                                                                                
   TITEL  = PAW_PBE Mg 13Apr2007                                                
   LULTRA =        F    use ultrasoft PP ?                                      
   IUNSCR =        1    unscreen: 0-lin 1-nonlin 2-no                           
   RPACOR =    1.500    partial core radius                                     
   POMASS =   24.305; ZVAL   =    2.000    mass and valenz                      
   RCORE  =    2.000    outmost cutoff radius                                   
   RWIGS  =    2.880; RWIGS  =    1.524    wigner-seitz radius (au A)           
   ENMAX  =  200.000; ENMIN  =  100.000 eV                                      
   RCLOC  =    1.506    cutoff for local pot                                    
   LCOR   =        T    correct aug charges                                     
   LPAW   =        T    paw PP                                                  
   EAUG   =  454.734                                                            
   DEXC   =    0.000                                                            
   RMAX   =    2.045    core radius for proj-oper                               
   RAUG   =    1.300    factor for augmentation sphere                          
   RDEP   =    2.025    radius for radial grids                                 
   RDEPT  =    1.942    core radius for aug-charge                              
                                                                                
   Atomic configuration                                                         
    6 entries                                                                   
     n  l   j            E        occ.                                          
     1  0  0.50     -1259.6230   2.0000                                         
     2  0  0.50       -79.8442   2.0000                                         
     2  1  1.50       -46.6121   6.0000                                         
     3  0  0.50        -4.7055   2.0000                                         
     3  1  0.50        -1.3660   0.0000                                         
     3  2  1.50        -1.3606   0.0000                                         
   Description                                                                  
     l       E           TYP  RCUT    TYP  RCUT                                 
     0     -4.7054661     23  2.000                                             
     0     27.2116520     23  2.000                                             
     1      1.3605826     23  2.000                                             
     1     27.2116520     23  2.000                                             
     2     -1.3605826     23  2.000                                             
  local pseudopotential read in
  partial core-charges read in
  partial kinetic energy density read in
  atomic valenz-charges read in
  non local Contribution for L=           0  read in
    real space projection operators read in
  non local Contribution for L=           0  read in
    real space projection operators read in
  non local Contribution for L=           1  read in
    real space projection operators read in
  non local Contribution for L=           1  read in
    real space projection operators read in
  non local Contribution for L=           2  read in
    real space projection operators read in
    PAW grid and wavefunctions read in
 
   number of l-projection  operators is LMAX  =           5
   number of lm-projection operators is LMMAX =          13
 
 POTCAR:    PAW_PBE Al 04Jan2001                  
   VRHFIN =Al: s2p1                                                             
   LEXCH  = PE                                                                  
   EATOM  =    53.5387 eV,    3.9350 Ry                                         
                                                                                
   TITEL  = PAW_PBE Al 04Jan2001                                                
   LULTRA =        F    use ultrasoft PP ?                                      
   IUNSCR =        1    unscreen: 0-lin 1-nonlin 2-no                           
   RPACOR =    1.500    partial core radius                                     
   POMASS =   26.981; ZVAL   =    3.000    mass and valenz                      
   RCORE  =    1.900    outmost cutoff radius                                   
   RWIGS  =    2.650; RWIGS  =    1.402    wigner-seitz radius (au A)           
   ENMAX  =  240.300; ENMIN  =  180.225 eV                                      
   ICORE  =        2    local potential                                         
   LCOR   =        T    correct aug charges                                     
   LPAW   =        T    paw PP                                                  
   EAUG   =  291.052                                                            
   DEXC   =    0.000                                                            
   RMAX   =    1.939    core radius for proj-oper                               
   RAUG   =    1.300    factor for augmentation sphere                          
   RDEP   =    1.966    radius for radial grids                                 
   RDEPT  =    1.856    core radius for aug-charge                              
                                                                                
   Atomic configuration                                                         
    6 entries                                                                   
     n  l   j            E        occ.                                          
     1  0  0.50     -1511.1048   2.0000                                         
     2  0  0.50      -108.1629   2.0000                                         
     2  1  1.50       -69.6402   6.0000                                         
     3  0  0.50        -7.7528   2.0000                                         
     3  1  1.50        -2.7121   1.0000                                         
     3  2  2.50        -2.7212   0.0000                                         
   Description                                                                  
     l       E           TYP  RCUT    TYP  RCUT                                 
     0     -7.7528455     23  1.900                                             
     0     -3.3096929     23  1.900                                             
     1     -2.7120682     23  1.900                                             
     1     13.6058260     23  1.900                                             
     2     -2.7211652      7  1.900                                             
  local pseudopotential read in
  partial core-charges read in
  partial kinetic energy density read in
  atomic valenz-charges read in
  non local Contribution for L=           0  read in
    real space projection operators read in
  non local Contribution for L=           0  read in
    real space projection operators read in
  non local Contribution for L=           1  read in
    real space projection operators read in
  non local Contribution for L=           1  read in
    real space projection operators read in
    PAW grid and wavefunctions read in
 
   number of l-projection  operators is LMAX  =           4
   number of lm-projection operators is LMMAX =           8
 

 ----------------------------------------------------------------------------- 
|                                                                             |
|  ADVICE TO THIS USER RUNNING 'VASP/VAMP'   (HEAR YOUR MASTER'S VOICE ...):  |
|                                                                             |
|      You have a (more or less) 'large supercell' and for larger cells       |
|      it might be more efficient to use real space projection opertators     |
|      So try LREAL= Auto  in the INCAR   file.                               |
|      Mind: At the moment your POTCAR file does not contain real space       |
|       projectors, and has to be modified,  BUT if you                       |
|      want to do an extremely  accurate calculation you might also keep the  |
|      reciprocal projection scheme          (i.e. LREAL=.FALSE.)             |
|                                                                             |
 ----------------------------------------------------------------------------- 

  PAW_PBE O 08Apr2002                   :
 energy of atom  1       EATOM= -432.3788
 kinetic energy error for atom=    0.0208 (will be added to EATOM!!)
  PAW_PBE Mg 13Apr2007                  :
 energy of atom  2       EATOM=  -23.0369
 kinetic energy error for atom=    0.0000 (will be added to EATOM!!)
  PAW_PBE Al 04Jan2001                  :
 energy of atom  3       EATOM=  -53.5387
 kinetic energy error for atom=    0.0002 (will be added to EATOM!!)
 
 
 POSCAR: Layer                                   
  positions in direct lattice
  velocities in cartesian coordinates
 exchange correlation table for  LEXCH =        8
   RHO(1)=    0.500       N(1)  =     2000
   RHO(2)=  100.500       N(2)  =     4000
 


--------------------------------------------------------------------------------------------------------


 ion  position               nearest neighbor table
   1  0.555  0.445  0.345-  15 2.14  14 2.14  15 2.14  15 2.14  14 2.14  14 2.14
   2  0.500  0.500  0.526-  17 2.14  16 2.14  16 2.14  16 2.14  17 2.14  17 2.14
   3  0.446  0.554  0.706-  18 2.14  19 2.14  18 2.14  18 2.14  19 2.14  19 2.14
   4  0.240  0.760  0.285-  14 2.14  14 2.14  14 2.14  10 2.15  10 2.16  10 2.16
   5  0.869  0.131  0.405-  15 2.14  11 2.14  15 2.14  15 2.14  11 2.14  11 2.14
   6  0.185  0.815  0.466-  11 2.14  16 2.14  11 2.14  11 2.14  16 2.14  16 2.14
   7  0.815  0.185  0.586-  17 2.14  12 2.14  12 2.14  12 2.14  17 2.14  17 2.14
   8  0.131  0.869  0.646-  18 2.14  12 2.14  18 2.14  18 2.14  12 2.14  12 2.14
   9  0.760  0.240  0.767-  19 2.14  19 2.14  19 2.14  13 2.16  13 2.16  13 2.16
  10  0.583  0.417  0.254-   4 2.15   4 2.16   4 2.16  21 3.04  21 3.04  21 3.05  14 3.08  14 3.08
                            14 3.08
  11  0.527  0.473  0.435-   6 2.14   5 2.14   5 2.14   5 2.14   6 2.14   6 2.14  15 3.06  15 3.06
                            16 3.06  16 3.06  15 3.06  16 3.06
  12  0.473  0.527  0.616-   7 2.14   8 2.14   8 2.14   8 2.14   7 2.14   7 2.14  18 3.06  18 3.06
                            17 3.06  17 3.06  18 3.06  17 3.06
  13  0.417  0.583  0.797-   9 2.16   9 2.16   9 2.16  24 3.04  24 3.04  24 3.05  19 3.08  19 3.08
                            19 3.08
  14  0.897  0.103  0.315-   4 2.14   4 2.14   4 2.14   1 2.14   1 2.14   1 2.14  15 3.06  15 3.06
                            15 3.06  10 3.08  10 3.08  10 3.08
  15  0.212  0.788  0.375-   1 2.14   5 2.14   1 2.14   1 2.14   5 2.14   5 2.14  14 3.06  14 3.06
                            11 3.06  11 3.06  14 3.06  11 3.06
  16  0.842  0.158  0.496-   2 2.14   6 2.14   2 2.14   2 2.14   6 2.14   6 2.14  17 3.05  17 3.05
                            11 3.06  11 3.06  17 3.06  11 3.06
  17  0.158  0.842  0.556-   2 2.14   7 2.14   2 2.14   2 2.14   7 2.14   7 2.14  16 3.05  16 3.05
                            12 3.06  12 3.06  16 3.06  12 3.06
  18  0.788  0.212  0.676-   8 2.14   3 2.14   3 2.14   3 2.14   8 2.14   8 2.14  19 3.06  19 3.06
                            12 3.06  12 3.06  19 3.06  12 3.06
  19  0.103  0.897  0.736-   9 2.14   3 2.14   9 2.14   9 2.14   3 2.14   3 2.14  18 3.06  18 3.06
                            18 3.06  13 3.08  13 3.08  13 3.08
  20  1.000  0.000  0.026-  25 2.91  23 2.91  23 2.92  23 2.92  25 2.92  25 2.92
  21  0.937  0.063  0.194-  22 2.90  22 2.92  22 2.92  10 3.04  10 3.04  10 3.05
  22  0.624  0.376  0.139-  21 2.90  21 2.92  21 2.92  23 2.92  23 2.94  23 2.94
  23  0.312  0.688  0.082-  20 2.91  20 2.92  20 2.92  22 2.92  22 2.94  22 2.94
  24  0.062  0.938  0.857-  26 2.90  26 2.92  26 2.92  13 3.04  13 3.04  13 3.05
  25  0.688  0.312  0.970-  20 2.91  20 2.92  20 2.92  26 2.92  26 2.94  26 2.94
  26  0.376  0.624  0.913-  24 2.90  24 2.92  24 2.92  25 2.92  25 2.94  25 2.94
 
  LATTYP: Found a base centered monoclinic cell.
 ALAT       =     5.1835214829
 B/A-ratio  =     0.5778353023
 C/A-ratio  =     8.2516415871
 COS(beta)  =    -0.1763219263
  
  Lattice vectors:
  
 A1 = (  -2.5925900058,   1.4952752266,  -0.0518951648)
 A2 = (   0.0013482762,   2.9928857368,  -0.0518951490)
 A3 = (   4.7735158528,  -8.2679694689, -41.6934795748)


Analysis of symmetry for initial positions (statically):
=====================================================================
 Subroutine PRICEL returns:
 Original cell was already a primitive cell.
 

 Routine SETGRP: Setting up the symmetry group for a 
 base centered monoclinic supercell.


 Subroutine GETGRP returns: Found  2 space group operations
 (whereof  2 operations were pure point group operations)
 out of a pool of  4 trial point group operations.


The static configuration has the point symmetry C_1h.


Analysis of symmetry for dynamics (positions and initial velocities):
=====================================================================
 Subroutine PRICEL returns:
 Original cell was already a primitive cell.
 

 Routine SETGRP: Setting up the symmetry group for a 
 base centered monoclinic supercell.


 Subroutine GETGRP returns: Found  2 space group operations
 (whereof  2 operations were pure point group operations)
 out of a pool of  4 trial point group operations.


The dynamic configuration has the point symmetry C_1h.


Analysis of constrained symmetry for selective dynamics:
=====================================================================
 Subroutine PRICEL returns:
 Original cell was already a primitive cell.
 

 Routine SETGRP: Setting up the symmetry group for a 
 base centered monoclinic supercell.


 Subroutine GETGRP returns: Found  2 space group operations
 (whereof  2 operations were pure point group operations)
 out of a pool of  4 trial point group operations.


The constrained configuration has the point symmetry C_1h.
 
 
 KPOINTS: K-Spacing Value to Generate K-Mesh: 0.02

Automatic generation of k-mesh.
Space group operators:
 irot       det(A)        alpha          n_x          n_y          n_z        tau_x        tau_y        tau_z
    1     1.000000     0.000001     1.000000     0.000000     0.000000     0.000000     0.000000     0.000000
    2    -1.000000   180.000000     0.866025     0.500000     0.000000     0.000000     0.000000     0.000000
 
 Subroutine IBZKPT returns following result:
 ===========================================
 
 Found     49 irreducible k-points:
 
 Following reciprocal coordinates:
            Coordinates               Weight
  0.000000  0.000000  0.000000      1.000000
  0.076923  0.000000  0.000000      4.000000
  0.153846 -0.000000 -0.000000      4.000000
  0.230769  0.000000  0.000000      4.000000
  0.307692  0.000000 -0.000000      4.000000
  0.384615  0.000000 -0.000000      4.000000
  0.461538  0.000000  0.000000      4.000000
  0.076923  0.076923  0.000000      2.000000
  0.153846  0.076923  0.000000      4.000000
  0.230769  0.076923  0.000000      4.000000
  0.307692  0.076923 -0.000000      4.000000
  0.384615  0.076923 -0.000000      4.000000
  0.461538  0.076923  0.000000      4.000000
 -0.461538  0.076923  0.000000      4.000000
 -0.384615  0.076923 -0.000000      4.000000
 -0.307692  0.076923 -0.000000      4.000000
 -0.230769  0.076923  0.000000      4.000000
 -0.153846  0.076923  0.000000      4.000000
 -0.076923  0.076923 -0.000000      2.000000
  0.153846  0.153846  0.000000      2.000000
  0.230769  0.153846  0.000000      4.000000
  0.307692  0.153846  0.000000      4.000000
  0.384615  0.153846  0.000000      4.000000
  0.461538  0.153846  0.000000      4.000000
 -0.461538  0.153846  0.000000      4.000000
 -0.384615  0.153846  0.000000      4.000000
 -0.307692  0.153846  0.000000      4.000000
 -0.230769  0.153846  0.000000      4.000000
 -0.153846  0.153846  0.000000      2.000000
  0.230769  0.230769  0.000000      2.000000
  0.307692  0.230769  0.000000      4.000000
  0.384615  0.230769  0.000000      4.000000
  0.461538  0.230769  0.000000      4.000000
 -0.461538  0.230769 -0.000000      4.000000
 -0.384615  0.230769 -0.000000      4.000000
 -0.307692  0.230769  0.000000      4.000000
 -0.230769  0.230769  0.000000      2.000000
  0.307692  0.307692  0.000000      2.000000
  0.384615  0.307692  0.000000      4.000000
  0.461538  0.307692  0.000000      4.000000
 -0.461538  0.307692  0.000000      4.000000
 -0.384615  0.307692  0.000000      4.000000
 -0.307692  0.307692  0.000000      2.000000
  0.384615  0.384615 -0.000000      2.000000
  0.461538  0.384615  0.000000      4.000000
 -0.461538  0.384615  0.000000      4.000000
 -0.384615  0.384615  0.000000      2.000000
  0.461538  0.461538  0.000000      2.000000
 -0.461538  0.461538  0.000000      2.000000
 
 Following cartesian coordinates:
            Coordinates               Weight
  0.000000  0.000000  0.000000      1.000000
  0.029666 -0.000018 -0.000290      4.000000
  0.059331 -0.000037 -0.000580      4.000000
  0.088997 -0.000055 -0.000870      4.000000
  0.118662 -0.000074 -0.001159      4.000000
  0.148328 -0.000092 -0.001449      4.000000
  0.177993 -0.000110 -0.001739      4.000000
  0.044482  0.025682  0.000000      2.000000
  0.074148  0.025664 -0.000290      4.000000
  0.103814  0.025645 -0.000580      4.000000
  0.133479  0.025627 -0.000870      4.000000
  0.163145  0.025608 -0.001159      4.000000
  0.192810  0.025590 -0.001449      4.000000
 -0.163176  0.025811  0.002029      4.000000
 -0.133511  0.025792  0.001739      4.000000
 -0.103845  0.025774  0.001449      4.000000
 -0.074180  0.025755  0.001159      4.000000
 -0.044514  0.025737  0.000870      4.000000
 -0.014849  0.025719  0.000580      2.000000
  0.088965  0.051364  0.000000      2.000000
  0.118630  0.051345 -0.000290      4.000000
  0.148296  0.051327 -0.000580      4.000000
  0.177961  0.051309 -0.000870      4.000000
  0.207627  0.051290 -0.001159      4.000000
 -0.148360  0.051511  0.002319      4.000000
 -0.118694  0.051493  0.002029      4.000000
 -0.089029  0.051474  0.001739      4.000000
 -0.059363  0.051456  0.001449      4.000000
 -0.029697  0.051437  0.001159      2.000000
  0.133447  0.077046  0.000000      2.000000
  0.163113  0.077027 -0.000290      4.000000
  0.192778  0.077009 -0.000580      4.000000
  0.222444  0.076991 -0.000870      4.000000
 -0.133543  0.077211  0.002609      4.000000
 -0.103877  0.077193  0.002319      4.000000
 -0.074212  0.077175  0.002029      4.000000
 -0.044546  0.077156  0.001739      2.000000
  0.177930  0.102728  0.000000      2.000000
  0.207595  0.102709 -0.000290      4.000000
  0.237261  0.102691 -0.000580      4.000000
 -0.118726  0.102912  0.002899      4.000000
 -0.089060  0.102893  0.002609      4.000000
 -0.059395  0.102875  0.002319      2.000000
  0.222412  0.128410  0.000000      2.000000
  0.252078  0.128391 -0.000290      4.000000
 -0.103909  0.128612  0.003188      4.000000
 -0.074244  0.128594  0.002899      2.000000
  0.266894  0.154092  0.000000      2.000000
 -0.089092  0.154312  0.003478      2.000000
 


--------------------------------------------------------------------------------------------------------




 Dimension of arrays:
   k-points           NKPTS =     49   k-points in BZ     NKDIM =     49   number of bands    NBANDS=     62
   number of dos      NEDOS =    301   number of ions     NIONS =     26
   non local maximal  LDIM  =      5   non local SUM 2l+1 LMDIM =     13
   total plane-waves  NPLWV = 184320
   max r-space proj   IRMAX =      1   max aug-charges    IRDMAX= 192864
   dimension x,y,z NGX =    24 NGY =   24 NGZ =  320
   dimension x,y,z NGXF=    48 NGYF=   48 NGZF=  640
   support grid    NGXF=    96 NGYF=   96 NGZF= 1280
   ions per type =               9  10   7
 NGX,Y,Z   is equivalent  to a cutoff of  13.33, 13.33, 12.69 a.u.
 NGXF,Y,Z  is equivalent  to a cutoff of  26.66, 26.66, 25.39 a.u.


 I would recommend the setting:
   dimension x,y,z NGX =    22 NGY =   22 NGZ =  312
 SYSTEM =  unknown system                          
 POSCAR =  Layer                                   

 Startparameter for this run:
   NWRITE =      2    write-flag & timer
   PREC   = accura    normal or accurate (medium, high low for compatibility)
   ISTART =      0    job   : 0-new  1-cont  2-samecut
   ICHARG =      2    charge: 1-file 2-atom 10-const
   ISPIN  =      1    spin polarized calculation?
   LNONCOLLINEAR =      F non collinear calculations
   LSORBIT =      F    spin-orbit coupling
   INIWAV =      1    electr: 0-lowe 1-rand  2-diag
   LASPH  =      F    aspherical Exc in radial PAW
   METAGGA=      F    non-selfconsistent MetaGGA calc.

 Electronic Relaxation 1
   ENCUT  =  520.0 eV  38.22 Ry    6.18 a.u.   5.57  5.57 77.92*2*pi/ulx,y,z
   ENINI  =  520.0     initial cutoff
   ENAUG  =  605.4 eV  augmentation charge cutoff
   NELM   =    100;   NELMIN=  6; NELMDL=  0     # of ELM steps 
   EDIFF  = 0.1E-04   stopping-criterion for ELM
   LREAL  =      F    real-space projection
   NLSPLINE    = F    spline interpolate recip. space projectors
   LCOMPAT=      F    compatible to vasp.4.4
   GGA_COMPAT  = T    GGA compatible to vasp.4.4-vasp.4.6
   LMAXPAW     = -100 max onsite density
   LMAXMIX     =    2 max onsite mixed and CHGCAR
   VOSKOWN=      0    Vosko Wilk Nusair interpolation
   ROPT   =    0.00000   0.00000   0.00000
 Ionic relaxation
   EDIFFG = -.2E-01   stopping-criterion for IOM
   NSW    =    500    number of steps for IOM
   NBLOCK =      1;   KBLOCK =    500    inner block; outer block 
   IBRION =      2    ionic relax: 0-MD 1-quasi-New 2-CG
   NFREE  =      1    steps in history (QN), initial steepest desc. (CG)
   ISIF   =      2    stress and relaxation
   IWAVPR =     11    prediction:  0-non 1-charg 2-wave 3-comb
   ISYM   =      2    0-nonsym 1-usesym 2-fastsym
   LCORR  =      T    Harris-Foulkes like correction to forces

   POTIM  = 0.5000    time-step for ionic-motion
   TEIN   =    0.0    initial temperature
   TEBEG  =    0.0;   TEEND  =   0.0 temperature during run
   SMASS  =  -3.00    Nose mass-parameter (am)
   estimated Nose-frequenzy (Omega)   =  0.10E-29 period in steps =****** mass=  -0.205E-27a.u.
   SCALEE = 1.0000    scale energy and forces
   NPACO  =    256;   APACO  = 16.0  distance and # of slots for P.C.
   PSTRESS=    0.0 pullay stress

  Mass of Ions in am
   POMASS =  16.00 24.30 26.98
  Ionic Valenz
   ZVAL   =   6.00  2.00  3.00
  Atomic Wigner-Seitz radii
   RWIGS  =  -1.00 -1.00 -1.00
  virtual crystal weights 
   VCA    =   1.00  1.00  1.00
   NELECT =      95.0000    total number of electrons
   NUPDOWN=      -1.0000    fix difference up-down

 DOS related values:
   EMIN   =  10.00;   EMAX   =-10.00  energy-range for DOS
   EFERMI =   0.00
   ISMEAR =     0;   SIGMA  =   0.05  broadening in eV -4-tet -1-fermi 0-gaus

 Electronic relaxation 2 (details)
   IALGO  =     38    algorithm
   LDIAG  =      T    sub-space diagonalisation (order eigenvalues)
   LSUBROT=      F    optimize rotation matrix (better conditioning)
   TURBO    =      0    0=normal 1=particle mesh
   IRESTART =      0    0=no restart 2=restart with 2 vectors
   NREBOOT  =      0    no. of reboots
   NMIN     =      0    reboot dimension
   EREF     =   0.00    reference energy to select bands
   IMIX   =      4    mixing-type and parameters
     AMIX     =   0.40;   BMIX     =  1.00
     AMIX_MAG =   1.60;   BMIX_MAG =  1.00
     AMIN     =   0.01
     WC   =   100.;   INIMIX=   1;  MIXPRE=   1;  MAXMIX= -45

 Intra band minimization:
   WEIMIN = 0.0010     energy-eigenvalue tresh-hold
   EBREAK =  0.40E-07  absolut break condition
   DEPER  =   0.30     relativ break condition  

   TIME   =   0.40     timestep for ELM

  volume/ion in A,a.u.               =      12.50        84.38
  Fermi-wavevector in a.u.,A,eV,Ry     =   1.086389  2.052978 16.058155  1.180241
  Thomas-Fermi vector in A             =   2.222525
 
 Write flags
   LWAVE  =      F    write WAVECAR
   LCHARG =      T    write CHGCAR
   LVTOT  =      F    write LOCPOT, total local potential
   LVHAR  =      F    write LOCPOT, Hartree potential only
   LELF   =      F    write electronic localiz. function (ELF)
   LORBIT =      0    0 simple, 1 ext, 2 COOP (PROOUT)


 Dipole corrections
   LMONO  =      F    monopole corrections only (constant potential shift)
   LDIPOL =      F    correct potential (dipole corrections)
   IDIPOL =      0    1-x, 2-y, 3-z, 4-all directions 
   EPSILON=  1.0000000 bulk dielectric constant

 Exchange correlation treatment:
   GGA     =    --    GGA type
   LEXCH   =     8    internal setting for exchange type
   VOSKOWN=      0    Vosko Wilk Nusair interpolation
   LHFCALC =     F    Hartree Fock is set to
   LHFONE  =     F    Hartree Fock one center treatment
   AEXX    =    0.0000 exact exchange contribution

 Linear response parameters
   LEPSILON=     F    determine dielectric tensor
   LRPA    =     F    only Hartree local field effects (RPA)
   LNABLA  =     F    use nabla operator in PAW spheres
   LVEL    =     F    velocity operator in full k-point grid
   LINTERFAST=   F  fast interpolation
   KINTER  =     0    interpolate to denser k-point grid
   CSHIFT  =0.1000    complex shift for real part using Kramers Kronig
   OMEGAMAX=  -1.0    maximum frequency
   DEG_THRESHOLD= 0.2000000E-02 threshold for treating states as degnerate
   RTIME   =    0.100 relaxation time in fs

 Orbital magnetization related:
   ORBITALMAG=     F  switch on orbital magnetization
   LCHIMAG   =     F  perturbation theory with respect to B field
   DQ        =  0.001000  dq finite difference perturbation B field



--------------------------------------------------------------------------------------------------------


 conjugate gradient relaxation of ions
   using selective dynamics as specified on POSCAR
 charge density and potential will be updated during run
 non-spin polarized calculation
 Variant of blocked Davidson
 Davidson routine will perform the subspace rotation
 perform sub-space diagonalisation
    after iterative eigenvector-optimisation
 modified Broyden-mixing scheme, WC =      100.0
 initial mixing is a Kerker type mixing with AMIX =  0.4000 and BMIX =      1.0000
 Hartree-type preconditioning will be used
 using additional bands           14
 reciprocal scheme for non local part
 use partial core corrections
 calculate Harris-corrections to forces 
   (improved forces if not selfconsistent)
 use gradient corrections 
 use of overlap-Matrix (Vanderbilt PP)
 Gauss-broadening in eV      SIGMA  =   0.05


--------------------------------------------------------------------------------------------------------


  energy-cutoff  :      520.00
  volume of cell :      325.08
      direct lattice vectors                 reciprocal lattice vectors
     2.592590006 -1.495275227  0.051895165     0.385652212 -0.000239071 -0.003768129
     0.001348276  2.992885737 -0.051895149     0.192619064  0.334104250  0.003768129
     0.408967606 -0.708352458 41.901060202    -0.000239075  0.000414090  0.023875078

  length of vectors
     2.993336608  2.993335925 41.909042745     0.385670694  0.385670782  0.023879866


 
 k-points in units of 2pi/SCALE and weight: K-Spacing Value to Generate K-Mesh: 0.02
   0.00000000  0.00000000  0.00000000       0.006
   0.02966555 -0.00001839 -0.00028986       0.024
   0.05933111 -0.00003678 -0.00057971       0.024
   0.08899666 -0.00005517 -0.00086957       0.024
   0.11866222 -0.00007356 -0.00115942       0.024
   0.14832777 -0.00009195 -0.00144928       0.024
   0.17799333 -0.00011034 -0.00173914       0.024
   0.04448241  0.02568194  0.00000000       0.012
   0.07414796  0.02566355 -0.00028986       0.024
   0.10381352  0.02564516 -0.00057971       0.024
   0.13347907  0.02562677 -0.00086957       0.024
   0.16314462  0.02560838 -0.00115942       0.024
   0.19281018  0.02558999 -0.00144928       0.024
  -0.16317648  0.02581067  0.00202899       0.024
  -0.13351092  0.02579228  0.00173914       0.024
  -0.10384537  0.02577389  0.00144928       0.024
  -0.07417981  0.02575550  0.00115942       0.024
  -0.04451426  0.02573711  0.00086957       0.024
  -0.01484870  0.02571872  0.00057971       0.012
   0.08896481  0.05136387  0.00000000       0.012
   0.11863037  0.05134548 -0.00028986       0.024
   0.14829592  0.05132709 -0.00057971       0.024
   0.17796148  0.05130870 -0.00086957       0.024
   0.20762703  0.05129031 -0.00115942       0.024
  -0.14835963  0.05151099  0.00231885       0.024
  -0.11869407  0.05149260  0.00202899       0.024
  -0.08902852  0.05147421  0.00173914       0.024
  -0.05936296  0.05145582  0.00144928       0.024
  -0.02969741  0.05143743  0.00115942       0.012
   0.13344722  0.07704581  0.00000000       0.012
   0.16311277  0.07702742 -0.00028986       0.024
   0.19277833  0.07700903 -0.00057971       0.024
   0.22244388  0.07699064 -0.00086957       0.024
  -0.13354278  0.07721132  0.00260870       0.024
  -0.10387722  0.07719293  0.00231885       0.024
  -0.07421167  0.07717454  0.00202899       0.024
  -0.04454611  0.07715615  0.00173914       0.012
   0.17792962  0.10272775  0.00000000       0.012
   0.20759518  0.10270936 -0.00028986       0.024
   0.23726073  0.10269097 -0.00057971       0.024
  -0.11872592  0.10291165  0.00289856       0.024
  -0.08906037  0.10289326  0.00260870       0.024
  -0.05939481  0.10287487  0.00231885       0.012
   0.22241203  0.12840968  0.00000000       0.012
   0.25207758  0.12839129 -0.00028986       0.024
  -0.10390907  0.12861198  0.00318842       0.024
  -0.07424352  0.12859359  0.00289856       0.012
   0.26689444  0.15409162  0.00000000       0.012
  -0.08909222  0.15431230  0.00347827       0.012
 
 k-points in reciprocal lattice and weights: K-Spacing Value to Generate K-Mesh: 0.02
   0.00000000  0.00000000  0.00000000       0.006
   0.07692308  0.00000000  0.00000000       0.024
   0.15384615 -0.00000000 -0.00000000       0.024
   0.23076923  0.00000000  0.00000000       0.024
   0.30769231  0.00000000 -0.00000000       0.024
   0.38461538  0.00000000 -0.00000000       0.024
   0.46153846  0.00000000  0.00000000       0.024
   0.07692308  0.07692308  0.00000000       0.012
   0.15384615  0.07692308  0.00000000       0.024
   0.23076923  0.07692308  0.00000000       0.024
   0.30769231  0.07692308 -0.00000000       0.024
   0.38461538  0.07692308 -0.00000000       0.024
   0.46153846  0.07692308  0.00000000       0.024
  -0.46153846  0.07692308  0.00000000       0.024
  -0.38461538  0.07692308 -0.00000000       0.024
  -0.30769231  0.07692308 -0.00000000       0.024
  -0.23076923  0.07692308  0.00000000       0.024
  -0.15384615  0.07692308  0.00000000       0.024
  -0.07692308  0.07692308 -0.00000000       0.012
   0.15384615  0.15384615  0.00000000       0.012
   0.23076923  0.15384615  0.00000000       0.024
   0.30769231  0.15384615  0.00000000       0.024
   0.38461538  0.15384615  0.00000000       0.024
   0.46153846  0.15384615  0.00000000       0.024
  -0.46153846  0.15384615  0.00000000       0.024
  -0.38461538  0.15384615  0.00000000       0.024
  -0.30769231  0.15384615  0.00000000       0.024
  -0.23076923  0.15384615  0.00000000       0.024
  -0.15384615  0.15384615  0.00000000       0.012
   0.23076923  0.23076923  0.00000000       0.012
   0.30769231  0.23076923  0.00000000       0.024
   0.38461538  0.23076923  0.00000000       0.024
   0.46153846  0.23076923  0.00000000       0.024
  -0.46153846  0.23076923 -0.00000000       0.024
  -0.38461538  0.23076923 -0.00000000       0.024
  -0.30769231  0.23076923  0.00000000       0.024
  -0.23076923  0.23076923  0.00000000       0.012
   0.30769231  0.30769231  0.00000000       0.012
   0.38461538  0.30769231  0.00000000       0.024
   0.46153846  0.30769231  0.00000000       0.024
  -0.46153846  0.30769231  0.00000000       0.024
  -0.38461538  0.30769231  0.00000000       0.024
  -0.30769231  0.30769231  0.00000000       0.012
   0.38461538  0.38461538 -0.00000000       0.012
   0.46153846  0.38461538  0.00000000       0.024
  -0.46153846  0.38461538  0.00000000       0.024
  -0.38461538  0.38461538  0.00000000       0.012
   0.46153846  0.46153846  0.00000000       0.012
  -0.46153846  0.46153846  0.00000000       0.012
 
 position of ions in fractional coordinates (direct lattice) 
   0.55456594  0.44543406  0.34517327
   0.50005119  0.49994881  0.52578859
   0.44552427  0.55447573  0.70640811
   0.24014368  0.75985632  0.28505988
   0.86939821  0.13060179  0.40533770
   0.18461056  0.81538944  0.46556450
   0.81549963  0.18450037  0.58600728
   0.13071222  0.86928778  0.64623492
   0.75990476  0.24009524  0.76651646
   0.58330697  0.41669303  0.25430666
   0.52695293  0.47304707  0.43545519
   0.47315786  0.52684214  0.61612434
   0.41670779  0.58329221  0.79727257
   0.89730237  0.10269763  0.31507393
   0.21191748  0.78808252  0.37524258
   0.84230896  0.15769104  0.49568667
   0.15779522  0.84220478  0.55589048
   0.78818619  0.21181381  0.67632886
   0.10277027  0.89722973  0.73649614
   0.99981472  0.00018528  0.02579371
   0.93747854  0.06252146  0.19447172
   0.62413281  0.37586719  0.13851422
   0.31196076  0.68803924  0.08189173
   0.06240915  0.93759085  0.85711012
   0.68774497  0.31225503  0.96969487
   0.37564256  0.62435744  0.91307051
 
 position of ions in cartesian coordinates  (Angst):
   1.57952737  0.25940020 14.46878936
   1.51213229  0.37613186 22.03110474
   1.44470739  0.49291518 29.59359489
   0.74019885  1.71315939 11.91734059
   2.41993919 -1.19623533 17.02241917
   0.67011967  1.83454006 19.47491190
   2.35416293 -1.08230755 24.58707210
   0.60434437  1.94846618 27.03959983
   2.28392561 -0.96065297 32.14482781
   1.61684082  0.19477142 10.66436493
   1.54489777  0.31938041 18.24883168
   1.47938957  0.43284390 25.81347724
   1.40719754  0.55788413 33.39792088
   2.45533066 -1.25753514 13.24316767
   0.70393975  1.77596198 15.69316174
   2.38669419 -1.13865332 20.80532555
   0.63757504  1.89090899 23.25688305
   2.32032583 -1.02369999 28.36880723
   0.56885395  2.00993737 30.81874030
   2.60265869 -1.51271469  1.13265959
   2.51011442 -1.35242336  8.19397741
   1.67527508  0.09356035  5.81677667
   0.84320507  1.53474744  3.41183352
   0.51359573  2.10564738 35.86840510
   2.18003552 -0.78071012 40.65072905
   1.34814522  0.66016571 38.24571526
 


--------------------------------------------------------------------------------------------------------


 k-point  1 :   0.0000 0.0000 0.0000  plane waves:    8879
 k-point  2 :   0.0769 0.0000 0.0000  plane waves:    8865
 k-point  3 :   0.1538-0.0000-0.0000  plane waves:    8832
 k-point  4 :   0.2308 0.0000 0.0000  plane waves:    8806
 k-point  5 :   0.3077 0.0000-0.0000  plane waves:    8756
 k-point  6 :   0.3846 0.0000-0.0000  plane waves:    8704
 k-point  7 :   0.4615 0.0000 0.0000  plane waves:    8719
 k-point  8 :   0.0769 0.0769 0.0000  plane waves:    8847
 k-point  9 :   0.1538 0.0769 0.0000  plane waves:    8820
 k-point 10 :   0.2308 0.0769 0.0000  plane waves:    8779
 k-point 11 :   0.3077 0.0769-0.0000  plane waves:    8745
 k-point 12 :   0.3846 0.0769-0.0000  plane waves:    8702
 k-point 13 :   0.4615 0.0769 0.0000  plane waves:    8676
 k-point 14 :  -0.4615 0.0769 0.0000  plane waves:    8706
 k-point 15 :  -0.3846 0.0769-0.0000  plane waves:    8746
 k-point 16 :  -0.3077 0.0769-0.0000  plane waves:    8773
 k-point 17 :  -0.2308 0.0769 0.0000  plane waves:    8819
 k-point 18 :  -0.1538 0.0769 0.0000  plane waves:    8845
 k-point 19 :  -0.0769 0.0769-0.0000  plane waves:    8869
 k-point 20 :   0.1538 0.1538 0.0000  plane waves:    8777
 k-point 21 :   0.2308 0.1538 0.0000  plane waves:    8752
 k-point 22 :   0.3077 0.1538 0.0000  plane waves:    8733
 k-point 23 :   0.3846 0.1538 0.0000  plane waves:    8698
 k-point 24 :   0.4615 0.1538 0.0000  plane waves:    8693
 k-point 25 :  -0.4615 0.1538 0.0000  plane waves:    8734
 k-point 26 :  -0.3846 0.1538 0.0000  plane waves:    8750
 k-point 27 :  -0.3077 0.1538 0.0000  plane waves:    8775
 k-point 28 :  -0.2308 0.1538 0.0000  plane waves:    8823
 k-point 29 :  -0.1538 0.1538 0.0000  plane waves:    8850
 k-point 30 :   0.2308 0.2308 0.0000  plane waves:    8750
 k-point 31 :   0.3077 0.2308 0.0000  plane waves:    8703
 k-point 32 :   0.3846 0.2308 0.0000  plane waves:    8734
 k-point 33 :   0.4615 0.2308 0.0000  plane waves:    8700
 k-point 34 :  -0.4615 0.2308-0.0000  plane waves:    8745
 k-point 35 :  -0.3846 0.2308-0.0000  plane waves:    8753
 k-point 36 :  -0.3077 0.2308 0.0000  plane waves:    8765
 k-point 37 :  -0.2308 0.2308 0.0000  plane waves:    8799
 k-point 38 :   0.3077 0.3077 0.0000  plane waves:    8748
 k-point 39 :   0.3846 0.3077 0.0000  plane waves:    8744
 k-point 40 :   0.4615 0.3077 0.0000  plane waves:    8710
 k-point 41 :  -0.4615 0.3077 0.0000  plane waves:    8741
 k-point 42 :  -0.3846 0.3077 0.0000  plane waves:    8745
 k-point 43 :  -0.3077 0.3077 0.0000  plane waves:    8749
 k-point 44 :   0.3846 0.3846-0.0000  plane waves:    8730
 k-point 45 :   0.4615 0.3846 0.0000  plane waves:    8698
 k-point 46 :  -0.4615 0.3846 0.0000  plane waves:    8706
 k-point 47 :  -0.3846 0.3846 0.0000  plane waves:    8708
 k-point 48 :   0.4615 0.4615 0.0000  plane waves:    8684
 k-point 49 :  -0.4615 0.4615 0.0000  plane waves:    8712

 maximum and minimum number of plane-waves per node :      2228     2150

 maximum number of plane-waves:      8879
 maximum index in each direction: 
   IXMAX=    6   IYMAX=    5   IZMAX=   77
   IXMIN=   -6   IYMIN=   -6   IZMIN=  -77

 WARNING: aliasing errors must be expected set NGX to  26 to avoid them
 NGY is ok and might be reduce to  24
 NGZ is ok and might be reduce to 310
 aliasing errors are usually negligible using standard VASP settings
 and one can safely disregard these warnings

 parallel 3D FFT for wavefunctions:
    minimum data exchange during FFTs selected (reduces bandwidth)
 parallel 3D FFT for charge:
    minimum data exchange during FFTs selected (reduces bandwidth)


 total amount of memory used by VASP on root node   198233. kBytes
========================================================================

   base      :      30000. kBytes
   nonl-proj :      34988. kBytes
   fftplans  :      55172. kBytes
   grid      :      22118. kBytes
   one-center:         56. kBytes
   wavefun   :      55899. kBytes
 
     INWAV:  cpu time    0.00: real time    0.00
 Broyden mixing: mesh for mixing (old mesh)
   NGX = 11   NGY = 11   NGZ =155
  (NGX  = 48   NGY  = 48   NGZ  =640)
  gives a total of  18755 points

 initial charge density was supplied:
 charge density of overlapping atoms calculated
 number of electron      95.0000000 magnetization 
 keeping initial charge density in first step


--------------------------------------------------------------------------------------------------------


 Maximum index for augmentation-charges        23479 (set IRDMAX)


--------------------------------------------------------------------------------------------------------


 First call to EWALD:  gamma=   0.258
 Maximum number of real-space cells 6x 6x 1
 Maximum number of reciprocal cells 1x 1x14

 FEWALD executed in parallel
    FEWALD:  cpu time    0.00: real time    0.00


----------------------------------------- Iteration    1(   1)  ---------------------------------------


    POTLOK:  cpu time    0.10: real time    0.10
    SETDIJ:  cpu time    0.10: real time    0.10
     EDDAV:  cpu time    8.78: real time    8.81
       DOS:  cpu time    0.00: real time    0.00
    --------------------------------------------
      LOOP:  cpu time    8.99: real time    9.02

 eigenvalue-minimisations  :  6100
 total energy-change (2. order) : 0.4661805E+03  (-0.4155580E+04)
 number of electron      95.0000000 magnetization 
 augmentation part       95.0000000 magnetization 

 Free energy of the ion-electron system (eV)
  ---------------------------------------------------
  alpha Z        PSCENC =       124.38176256
  Ewald energy   TEWEN  =     12859.52594324
  -Hartree energ DENC   =    -17629.03392273
  -exchange      EXHF   =         0.00000000
  -V(xc)+E(xc)   XCENC  =      -419.08530225
  PAW double counting   =      4235.41334458    -3509.29226066
  entropy T*S    EENTRO =        -0.00489210
  eigenvalues    EBANDS =       307.91612801
  atomic energy  EATOM  =      4496.35971583
  ---------------------------------------------------
  free energy    TOTEN  =       466.18051645 eV

  energy without entropy =      466.18540856  energy(sigma->0) =      466.18296251


--------------------------------------------------------------------------------------------------------




----------------------------------------- Iteration    1(   2)  ---------------------------------------


     EDDAV:  cpu time   10.55: real time   10.56
       DOS:  cpu time    0.00: real time    0.00
    --------------------------------------------
      LOOP:  cpu time   10.55: real time   10.57

 eigenvalue-minimisations  :  7904
 total energy-change (2. order) :-0.5612301E+03  (-0.5330564E+03)
 number of electron      95.0000000 magnetization 
 augmentation part       95.0000000 magnetization 

 Free energy of the ion-electron system (eV)
  ---------------------------------------------------
  alpha Z        PSCENC =       124.38176256
  Ewald energy   TEWEN  =     12859.52594324
  -Hartree energ DENC   =    -17629.03392273
  -exchange      EXHF   =         0.00000000
  -V(xc)+E(xc)   XCENC  =      -419.08530225
  PAW double counting   =      4235.41334458    -3509.29226066
  entropy T*S    EENTRO =        -0.00589266
  eigenvalues    EBANDS =      -253.31296795
  atomic energy  EATOM  =      4496.35971583
  ---------------------------------------------------
  free energy    TOTEN  =       -95.04958006 eV

  energy without entropy =      -95.04368740  energy(sigma->0) =      -95.04663373


--------------------------------------------------------------------------------------------------------




----------------------------------------- Iteration    1(   3)  ---------------------------------------


     EDDAV:  cpu time    9.71: real time    9.72
       DOS:  cpu time    0.00: real time    0.00
    --------------------------------------------
      LOOP:  cpu time    9.72: real time    9.73

 eigenvalue-minimisations  :  7082
 total energy-change (2. order) :-0.5268273E+02  (-0.5235533E+02)
 number of electron      95.0000000 magnetization 
 augmentation part       95.0000000 magnetization 

 Free energy of the ion-electron system (eV)
  ---------------------------------------------------
  alpha Z        PSCENC =       124.38176256
  Ewald energy   TEWEN  =     12859.52594324
  -Hartree energ DENC   =    -17629.03392273
  -exchange      EXHF   =         0.00000000
  -V(xc)+E(xc)   XCENC  =      -419.08530225
  PAW double counting   =      4235.41334458    -3509.29226066
  entropy T*S    EENTRO =        -0.00132336
  eigenvalues    EBANDS =      -306.00026338
  atomic energy  EATOM  =      4496.35971583
  ---------------------------------------------------
  free energy    TOTEN  =      -147.73230618 eV

  energy without entropy =     -147.73098283  energy(sigma->0) =     -147.73164450


--------------------------------------------------------------------------------------------------------




----------------------------------------- Iteration    1(   4)  ---------------------------------------


     EDDAV:  cpu time    9.76: real time    9.78
       DOS:  cpu time    0.00: real time    0.00
    --------------------------------------------
      LOOP:  cpu time    9.77: real time    9.78

 eigenvalue-minimisations  :  7138
 total energy-change (2. order) :-0.6759747E+00  (-0.6748893E+00)
 number of electron      95.0000000 magnetization 
 augmentation part       95.0000000 magnetization 

 Free energy of the ion-electron system (eV)
  ---------------------------------------------------
  alpha Z        PSCENC =       124.38176256
  Ewald energy   TEWEN  =     12859.52594324
  -Hartree energ DENC   =    -17629.03392273
  -exchange      EXHF   =         0.00000000
  -V(xc)+E(xc)   XCENC  =      -419.08530225
  PAW double counting   =      4235.41334458    -3509.29226066
  entropy T*S    EENTRO =        -0.00154072
  eigenvalues    EBANDS =      -306.67602067
  atomic energy  EATOM  =      4496.35971583
  ---------------------------------------------------
  free energy    TOTEN  =      -148.40828084 eV

  energy without entropy =     -148.40674012  energy(sigma->0) =     -148.40751048


--------------------------------------------------------------------------------------------------------




----------------------------------------- Iteration    1(   5)  ---------------------------------------


     EDDAV:  cpu time    9.88: real time    9.89
       DOS:  cpu time    0.00: real time    0.00
    CHARGE:  cpu time    0.69: real time    0.69
    MIXING:  cpu time    0.00: real time    0.00
    --------------------------------------------
      LOOP:  cpu time   10.57: real time   10.58

 eigenvalue-minimisations  :  7196
 total energy-change (2. order) :-0.1013360E-01  (-0.1012955E-01)
 number of electron      95.0000002 magnetization 
 augmentation part        6.9312673 magnetization 

 Broyden mixing:
  rms(total) = 0.21903E+01    rms(broyden)= 0.21898E+01
  rms(prec ) = 0.22457E+01
  weight for this iteration     100.00

 Free energy of the ion-electron system (eV)
  ---------------------------------------------------
  alpha Z        PSCENC =       124.38176256
  Ewald energy   TEWEN  =     12859.52594324
  -Hartree energ DENC   =    -17629.03392273
  -exchange      EXHF   =         0.00000000
  -V(xc)+E(xc)   XCENC  =      -419.08530225
  PAW double counting   =      4235.41334458    -3509.29226066
  entropy T*S    EENTRO =        -0.00154801
  eigenvalues    EBANDS =      -306.68614698
  atomic energy  EATOM  =      4496.35971583
  ---------------------------------------------------
  free energy    TOTEN  =      -148.41841443 eV

  energy without entropy =     -148.41686643  energy(sigma->0) =     -148.41764043


--------------------------------------------------------------------------------------------------------




----------------------------------------- Iteration    1(   6)  ---------------------------------------


    POTLOK:  cpu time    0.10: real time    0.10
    SETDIJ:  cpu time    0.10: real time    0.10
     EDDAV:  cpu time    9.52: real time    9.53
       DOS:  cpu time    0.00: real time    0.00
    CHARGE:  cpu time    0.68: real time    0.68
    MIXING:  cpu time    0.00: real time    0.00
    --------------------------------------------
      LOOP:  cpu time   10.41: real time   10.42

 eigenvalue-minimisations  :  6908
 total energy-change (2. order) : 0.1435106E+02  (-0.8252240E+01)
 number of electron      95.0000002 magnetization 
 augmentation part        5.6008837 magnetization 

 Broyden mixing:
  rms(total) = 0.74451E+00    rms(broyden)= 0.74356E+00
  rms(prec ) = 0.75099E+00
  weight for this iteration     100.00

 eigenvalues of (default mixing * dielectric matrix)
  average eigenvalue GAMMA=   0.8404
  0.8404

 Free energy of the ion-electron system (eV)
  ---------------------------------------------------
  alpha Z        PSCENC =       124.38176256
  Ewald energy   TEWEN  =     12859.52594324
  -Hartree energ DENC   =    -17800.56118728
  -exchange      EXHF   =         0.00000000
  -V(xc)+E(xc)   XCENC  =      -406.91759751
  PAW double counting   =      5022.00274466    -4299.01090282
  entropy T*S    EENTRO =        -0.00110235
  eigenvalues    EBANDS =      -129.84673080
  atomic energy  EATOM  =      4496.35971583
  ---------------------------------------------------
  free energy    TOTEN  =      -134.06735448 eV

  energy without entropy =     -134.06625213  energy(sigma->0) =     -134.06680331


--------------------------------------------------------------------------------------------------------




----------------------------------------- Iteration    1(   7)  ---------------------------------------


    POTLOK:  cpu time    0.10: real time    0.10
    SETDIJ:  cpu time    0.11: real time    0.11
     EDDAV:  cpu time    9.28: real time    9.29
       DOS:  cpu time    0.00: real time    0.00
    CHARGE:  cpu time    0.68: real time    0.68
    MIXING:  cpu time    0.01: real time    0.01
    --------------------------------------------
      LOOP:  cpu time   10.18: real time   10.19

 eigenvalue-minimisations  :  6678
 total energy-change (2. order) : 0.1138730E+00  (-0.1573373E+00)
 number of electron      95.0000002 magnetization 
 augmentation part        5.6411423 magnetization 

 Broyden mixing:
  rms(total) = 0.45542E+00    rms(broyden)= 0.45541E+00
  rms(prec ) = 0.46052E+00
  weight for this iteration     100.00

 eigenvalues of (default mixing * dielectric matrix)
  average eigenvalue GAMMA=   1.6413
  0.9749  2.3076

 Free energy of the ion-electron system (eV)
  ---------------------------------------------------
  alpha Z        PSCENC =       124.38176256
  Ewald energy   TEWEN  =     12859.52594324
  -Hartree energ DENC   =    -17798.23445017
  -exchange      EXHF   =         0.00000000
  -V(xc)+E(xc)   XCENC  =      -406.56130385
  PAW double counting   =      5300.32261244    -4576.90820336
  entropy T*S    EENTRO =        -0.00135493
  eigenvalues    EBANDS =      -132.83820325
  atomic energy  EATOM  =      4496.35971583
  ---------------------------------------------------
  free energy    TOTEN  =      -133.95348150 eV

  energy without entropy =     -133.95212657  energy(sigma->0) =     -133.95280404


--------------------------------------------------------------------------------------------------------




----------------------------------------- Iteration    1(   8)  ---------------------------------------


    POTLOK:  cpu time    0.10: real time    0.10
    SETDIJ:  cpu time    0.10: real time    0.10
     EDDAV:  cpu time    9.79: real time    9.80
       DOS:  cpu time    0.00: real time    0.00
    CHARGE:  cpu time    0.68: real time    0.68
    MIXING:  cpu time    0.00: real time    0.00
    --------------------------------------------
      LOOP:  cpu time   10.68: real time   10.69

 eigenvalue-minimisations  :  7170
 total energy-change (2. order) : 0.1023045E+00  (-0.4447950E-01)
 number of electron      95.0000002 magnetization 
 augmentation part        5.6907244 magnetization 

 Broyden mixing:
  rms(total) = 0.78185E-01    rms(broyden)= 0.78136E-01
  rms(prec ) = 0.81519E-01
  weight for this iteration     100.00

 eigenvalues of (default mixing * dielectric matrix)
  average eigenvalue GAMMA=   1.4022
  2.4406  0.8831  0.8831

 Free energy of the ion-electron system (eV)
  ---------------------------------------------------
  alpha Z        PSCENC =       124.38176256
  Ewald energy   TEWEN  =     12859.52594324
  -Hartree energ DENC   =    -17802.80467905
  -exchange      EXHF   =         0.00000000
  -V(xc)+E(xc)   XCENC  =      -405.09167850
  PAW double counting   =      5791.11480086    -5067.38580836
  entropy T*S    EENTRO =        -0.00160659
  eigenvalues    EBANDS =      -129.94962698
  atomic energy  EATOM  =      4496.35971583
  ---------------------------------------------------
  free energy    TOTEN  =      -133.85117702 eV

  energy without entropy =     -133.84957042  energy(sigma->0) =     -133.85037372


--------------------------------------------------------------------------------------------------------




----------------------------------------- Iteration    1(   9)  ---------------------------------------


    POTLOK:  cpu time    0.10: real time    0.10
    SETDIJ:  cpu time    0.10: real time    0.10
     EDDAV:  cpu time    9.57: real time    9.58
       DOS:  cpu time    0.00: real time    0.00
    CHARGE:  cpu time    0.68: real time    0.68
    MIXING:  cpu time    0.00: real time    0.00
    --------------------------------------------
      LOOP:  cpu time   10.46: real time   10.47

 eigenvalue-minimisations  :  6956
 total energy-change (2. order) : 0.1038286E-01  (-0.6054290E-02)
 number of electron      95.0000002 magnetization 
 augmentation part        5.6677371 magnetization 

 Broyden mixing:
  rms(total) = 0.44962E-01    rms(broyden)= 0.44959E-01
  rms(prec ) = 0.46073E-01
  weight for this iteration     100.00

 eigenvalues of (default mixing * dielectric matrix)
  average eigenvalue GAMMA=   1.5933
  0.9712  0.9712  2.4356  1.9952

 Free energy of the ion-electron system (eV)
  ---------------------------------------------------
  alpha Z        PSCENC =       124.38176256
  Ewald energy   TEWEN  =     12859.52594324
  -Hartree energ DENC   =    -17806.72157266
  -exchange      EXHF   =         0.00000000
  -V(xc)+E(xc)   XCENC  =      -404.71680521
  PAW double counting   =      5805.63228996    -5081.96115499
  entropy T*S    EENTRO =        -0.00165889
  eigenvalues    EBANDS =      -126.33931399
  atomic energy  EATOM  =      4496.35971583
  ---------------------------------------------------
  free energy    TOTEN  =      -133.84079416 eV

  energy without entropy =     -133.83913526  energy(sigma->0) =     -133.83996471


--------------------------------------------------------------------------------------------------------




----------------------------------------- Iteration    1(  10)  ---------------------------------------


    POTLOK:  cpu time    0.10: real time    0.10
    SETDIJ:  cpu time    0.10: real time    0.10
     EDDAV:  cpu time    9.51: real time    9.52
       DOS:  cpu time    0.00: real time    0.00
    CHARGE:  cpu time    0.69: real time    0.69
    MIXING:  cpu time    0.01: real time    0.01
    --------------------------------------------
      LOOP:  cpu time   10.41: real time   10.42

 eigenvalue-minimisations  :  6916
 total energy-change (2. order) :-0.7020611E-03  (-0.4696400E-02)
 number of electron      95.0000002 magnetization 
 augmentation part        5.6510300 magnetization 

 Broyden mixing:
  rms(total) = 0.26826E-01    rms(broyden)= 0.26803E-01
  rms(prec ) = 0.27698E-01
  weight for this iteration     100.00

 eigenvalues of (default mixing * dielectric matrix)
  average eigenvalue GAMMA=   1.3476
  2.5172  1.9651  0.9352  0.9352  0.3853

 Free energy of the ion-electron system (eV)
  ---------------------------------------------------
  alpha Z        PSCENC =       124.38176256
  Ewald energy   TEWEN  =     12859.52594324
  -Hartree energ DENC   =    -17808.02532179
  -exchange      EXHF   =         0.00000000
  -V(xc)+E(xc)   XCENC  =      -404.55335690
  PAW double counting   =      5783.83134880    -5060.18874779
  entropy T*S    EENTRO =        -0.00156037
  eigenvalues    EBANDS =      -125.17127979
  atomic energy  EATOM  =      4496.35971583
  ---------------------------------------------------
  free energy    TOTEN  =      -133.84149622 eV

  energy without entropy =     -133.83993585  energy(sigma->0) =     -133.84071603


--------------------------------------------------------------------------------------------------------




----------------------------------------- Iteration    1(  11)  ---------------------------------------


    POTLOK:  cpu time    0.10: real time    0.10
    SETDIJ:  cpu time    0.10: real time    0.10
     EDDAV:  cpu time    9.53: real time    9.55
       DOS:  cpu time    0.00: real time    0.00
    CHARGE:  cpu time    0.68: real time    0.68
    MIXING:  cpu time    0.00: real time    0.00
    --------------------------------------------
      LOOP:  cpu time   10.43: real time   10.44

 eigenvalue-minimisations  :  6902
 total energy-change (2. order) : 0.3290151E-03  (-0.3535498E-03)
 number of electron      95.0000002 magnetization 
 augmentation part        5.6538801 magnetization 

 Broyden mixing:
  rms(total) = 0.19897E-01    rms(broyden)= 0.19897E-01
  rms(prec ) = 0.20623E-01
  weight for this iteration     100.00

 eigenvalues of (default mixing * dielectric matrix)
  average eigenvalue GAMMA=   1.4452
  2.7355  2.2197  0.9646  0.9646  0.9996  0.7870

 Free energy of the ion-electron system (eV)
  ---------------------------------------------------
  alpha Z        PSCENC =       124.38176256
  Ewald energy   TEWEN  =     12859.52594324
  -Hartree energ DENC   =    -17807.77865693
  -exchange      EXHF   =         0.00000000
  -V(xc)+E(xc)   XCENC  =      -404.52831507
  PAW double counting   =      5770.55700041    -5046.91423704
  entropy T*S    EENTRO =        -0.00160196
  eigenvalues    EBANDS =      -125.44277823
  atomic energy  EATOM  =      4496.35971583
  ---------------------------------------------------
  free energy    TOTEN  =      -133.84116720 eV

  energy without entropy =     -133.83956524  energy(sigma->0) =     -133.84036622


--------------------------------------------------------------------------------------------------------




----------------------------------------- Iteration    1(  12)  ---------------------------------------


    POTLOK:  cpu time    0.10: real time    0.10
    SETDIJ:  cpu time    0.10: real time    0.10
     EDDAV:  cpu time   10.50: real time   10.52
       DOS:  cpu time    0.00: real time    0.00
    CHARGE:  cpu time    0.68: real time    0.68
    MIXING:  cpu time    0.01: real time    0.01
    --------------------------------------------
      LOOP:  cpu time   11.40: real time   11.41

 eigenvalue-minimisations  :  7856
 total energy-change (2. order) : 0.2755696E-03  (-0.8265359E-03)
 number of electron      95.0000002 magnetization 
 augmentation part        5.6542811 magnetization 

 Broyden mixing:
  rms(total) = 0.10743E-01    rms(broyden)= 0.10732E-01
  rms(prec ) = 0.11316E-01
  weight for this iteration     100.00

 eigenvalues of (default mixing * dielectric matrix)
  average eigenvalue GAMMA=   1.3990
  2.8877  2.4886  0.9396  0.9396  0.9290  0.9290  0.6791

 Free energy of the ion-electron system (eV)
  ---------------------------------------------------
  alpha Z        PSCENC =       124.38176256
  Ewald energy   TEWEN  =     12859.52594324
  -Hartree energ DENC   =    -17807.52488519
  -exchange      EXHF   =         0.00000000
  -V(xc)+E(xc)   XCENC  =      -404.49258658
  PAW double counting   =      5752.81168421    -5029.18118811
  entropy T*S    EENTRO =        -0.00162845
  eigenvalues    EBANDS =      -125.71970914
  atomic energy  EATOM  =      4496.35971583
  ---------------------------------------------------
  free energy    TOTEN  =      -133.84089163 eV

  energy without entropy =     -133.83926318  energy(sigma->0) =     -133.84007741


--------------------------------------------------------------------------------------------------------




----------------------------------------- Iteration    1(  13)  ---------------------------------------


    POTLOK:  cpu time    0.10: real time    0.10
    SETDIJ:  cpu time    0.10: real time    0.10
     EDDAV:  cpu time    9.69: real time    9.70
       DOS:  cpu time    0.00: real time    0.00
    CHARGE:  cpu time    0.68: real time    0.68
    MIXING:  cpu time    0.00: real time    0.00
    --------------------------------------------
      LOOP:  cpu time   10.58: real time   10.59

 eigenvalue-minimisations  :  7032
 total energy-change (2. order) : 0.1509930E-03  (-0.1674746E-03)
 number of electron      95.0000002 magnetization 
 augmentation part        5.6572769 magnetization 

 Broyden mixing:
  rms(total) = 0.81027E-02    rms(broyden)= 0.81016E-02
  rms(prec ) = 0.87269E-02
  weight for this iteration     100.00

 eigenvalues of (default mixing * dielectric matrix)
  average eigenvalue GAMMA=   1.3752
  2.9657  2.5534  0.9291  0.9291  1.0881  0.9417  0.8811  0.7131

 Free energy of the ion-electron system (eV)
  ---------------------------------------------------
  alpha Z        PSCENC =       124.38176256
  Ewald energy   TEWEN  =     12859.52594324
  -Hartree energ DENC   =    -17806.98450155
  -exchange      EXHF   =         0.00000000
  -V(xc)+E(xc)   XCENC  =      -404.51532668
  PAW double counting   =      5744.45571718    -5020.82068598
  entropy T*S    EENTRO =        -0.00163794
  eigenvalues    EBANDS =      -126.24172729
  atomic energy  EATOM  =      4496.35971583
  ---------------------------------------------------
  free energy    TOTEN  =      -133.84074064 eV

  energy without entropy =     -133.83910270  energy(sigma->0) =     -133.83992167


--------------------------------------------------------------------------------------------------------




----------------------------------------- Iteration    1(  14)  ---------------------------------------


    POTLOK:  cpu time    0.10: real time    0.10
    SETDIJ:  cpu time    0.10: real time    0.10
     EDDAV:  cpu time   10.10: real time   10.11
       DOS:  cpu time    0.00: real time    0.00
    CHARGE:  cpu time    0.68: real time    0.68
    MIXING:  cpu time    0.00: real time    0.00
    --------------------------------------------
      LOOP:  cpu time   10.99: real time   11.00

 eigenvalue-minimisations  :  7424
 total energy-change (2. order) : 0.1261261E-03  (-0.6633831E-04)
 number of electron      95.0000002 magnetization 
 augmentation part        5.6578466 magnetization 

 Broyden mixing:
  rms(total) = 0.28924E-02    rms(broyden)= 0.28897E-02
  rms(prec ) = 0.39763E-02
  weight for this iteration     100.00

 eigenvalues of (default mixing * dielectric matrix)
  average eigenvalue GAMMA=   1.4572
  3.0369  2.5510  2.0236  0.9307  0.9307  1.0220  0.9612  0.9612  0.6977

 Free energy of the ion-electron system (eV)
  ---------------------------------------------------
  alpha Z        PSCENC =       124.38176256
  Ewald energy   TEWEN  =     12859.52594324
  -Hartree energ DENC   =    -17806.77608421
  -exchange      EXHF   =         0.00000000
  -V(xc)+E(xc)   XCENC  =      -404.52030350
  PAW double counting   =      5742.62197055    -5018.98531695
  entropy T*S    EENTRO =        -0.00164066
  eigenvalues    EBANDS =      -126.44666135
  atomic energy  EATOM  =      4496.35971583
  ---------------------------------------------------
  free energy    TOTEN  =      -133.84061451 eV

  energy without entropy =     -133.83897385  energy(sigma->0) =     -133.83979418


--------------------------------------------------------------------------------------------------------




----------------------------------------- Iteration    1(  15)  ---------------------------------------


    POTLOK:  cpu time    0.10: real time    0.10
    SETDIJ:  cpu time    0.10: real time    0.10
     EDDAV:  cpu time    9.79: real time    9.80
       DOS:  cpu time    0.00: real time    0.00
    CHARGE:  cpu time    0.68: real time    0.68
    MIXING:  cpu time    0.01: real time    0.01
    --------------------------------------------
      LOOP:  cpu time   10.68: real time   10.69

 eigenvalue-minimisations  :  7152
 total energy-change (2. order) : 0.8597342E-04  (-0.1153117E-04)
 number of electron      95.0000002 magnetization 
 augmentation part        5.6572889 magnetization 

 Broyden mixing:
  rms(total) = 0.13220E-02    rms(broyden)= 0.13216E-02
  rms(prec ) = 0.24854E-02
  weight for this iteration     100.00

 eigenvalues of (default mixing * dielectric matrix)
  average eigenvalue GAMMA=   1.4371
  3.0676  2.4482  2.4482  0.9286  0.9286  1.0190  1.0190  0.8962  0.8962  0.7190

 Free energy of the ion-electron system (eV)
  ---------------------------------------------------
  alpha Z        PSCENC =       124.38176256
  Ewald energy   TEWEN  =     12859.52594324
  -Hartree energ DENC   =    -17806.59144232
  -exchange      EXHF   =         0.00000000
  -V(xc)+E(xc)   XCENC  =      -404.51560812
  PAW double counting   =      5743.02484967    -5019.38840850
  entropy T*S    EENTRO =        -0.00164320
  eigenvalues    EBANDS =      -126.63569769
  atomic energy  EATOM  =      4496.35971583
  ---------------------------------------------------
  free energy    TOTEN  =      -133.84052854 eV

  energy without entropy =     -133.83888534  energy(sigma->0) =     -133.83970694


--------------------------------------------------------------------------------------------------------




----------------------------------------- Iteration    1(  16)  ---------------------------------------


    POTLOK:  cpu time    0.10: real time    0.10
    SETDIJ:  cpu time    0.10: real time    0.10
     EDDAV:  cpu time    9.51: real time    9.52
       DOS:  cpu time    0.00: real time    0.00
    CHARGE:  cpu time    0.69: real time    0.69
    MIXING:  cpu time    0.00: real time    0.00
    --------------------------------------------
      LOOP:  cpu time   10.40: real time   10.41

 eigenvalue-minimisations  :  6888
 total energy-change (2. order) : 0.3570886E-04  (-0.6915370E-05)
 number of electron      95.0000002 magnetization 
 augmentation part        5.6569301 magnetization 

 Broyden mixing:
  rms(total) = 0.79106E-03    rms(broyden)= 0.79052E-03
  rms(prec ) = 0.20754E-02
  weight for this iteration     100.00

 eigenvalues of (default mixing * dielectric matrix)
  average eigenvalue GAMMA=   1.4893
  2.9513  2.9513  2.4667  0.9426  0.9426  1.3025  1.2147  1.0906  0.9023  0.9023
  0.7151

 Free energy of the ion-electron system (eV)
  ---------------------------------------------------
  alpha Z        PSCENC =       124.38176256
  Ewald energy   TEWEN  =     12859.52594324
  -Hartree energ DENC   =    -17806.47669162
  -exchange      EXHF   =         0.00000000
  -V(xc)+E(xc)   XCENC  =      -404.51306751
  PAW double counting   =      5743.53714301    -5019.90086183
  entropy T*S    EENTRO =        -0.00164495
  eigenvalues    EBANDS =      -126.75279154
  atomic energy  EATOM  =      4496.35971583
  ---------------------------------------------------
  free energy    TOTEN  =      -133.84049283 eV

  energy without entropy =     -133.83884788  energy(sigma->0) =     -133.83967035


--------------------------------------------------------------------------------------------------------




----------------------------------------- Iteration    1(  17)  ---------------------------------------


    POTLOK:  cpu time    0.10: real time    0.10
    SETDIJ:  cpu time    0.11: real time    0.11
     EDDAV:  cpu time    9.91: real time    9.92
       DOS:  cpu time    0.00: real time    0.00
    CHARGE:  cpu time    0.69: real time    0.69
    MIXING:  cpu time    0.01: real time    0.01
    --------------------------------------------
      LOOP:  cpu time   10.81: real time   10.82

 eigenvalue-minimisations  :  7270
 total energy-change (2. order) : 0.7470009E-04  (-0.7720559E-05)
 number of electron      95.0000002 magnetization 
 augmentation part        5.6575210 magnetization 

 Broyden mixing:
  rms(total) = 0.15986E-02    rms(broyden)= 0.15983E-02
  rms(prec ) = 0.20988E-02
  weight for this iteration     100.00

 eigenvalues of (default mixing * dielectric matrix)
  average eigenvalue GAMMA=   1.5795
  4.2133  3.0840  2.3433  2.1889  0.9433  0.9433  1.0167  1.0167  0.8674  0.8674
  0.7063  0.7630

 Free energy of the ion-electron system (eV)
  ---------------------------------------------------
  alpha Z        PSCENC =       124.38176256
  Ewald energy   TEWEN  =     12859.52594324
  -Hartree energ DENC   =    -17805.97304848
  -exchange      EXHF   =         0.00000000
  -V(xc)+E(xc)   XCENC  =      -404.51960807
  PAW double counting   =      5744.12818416    -5020.49033377
  entropy T*S    EENTRO =        -0.00165015
  eigenvalues    EBANDS =      -127.25138344
  atomic energy  EATOM  =      4496.35971583
  ---------------------------------------------------
  free energy    TOTEN  =      -133.84041813 eV

  energy without entropy =     -133.83876798  energy(sigma->0) =     -133.83959306


--------------------------------------------------------------------------------------------------------




----------------------------------------- Iteration    1(  18)  ---------------------------------------


    POTLOK:  cpu time    0.10: real time    0.10
    SETDIJ:  cpu time    0.10: real time    0.10
     EDDAV:  cpu time    9.87: real time    9.88
       DOS:  cpu time    0.00: real time    0.00
    CHARGE:  cpu time    0.68: real time    0.68
    MIXING:  cpu time    0.01: real time    0.01
    --------------------------------------------
      LOOP:  cpu time   10.76: real time   10.77

 eigenvalue-minimisations  :  7206
 total energy-change (2. order) : 0.4010433E-04  (-0.6564114E-05)
 number of electron      95.0000002 magnetization 
 augmentation part        5.6576502 magnetization 

 Broyden mixing:
  rms(total) = 0.14919E-02    rms(broyden)= 0.14917E-02
  rms(prec ) = 0.17998E-02
  weight for this iteration     100.00

 eigenvalues of (default mixing * dielectric matrix)
  average eigenvalue GAMMA=   1.5440
  4.4914  3.0949  2.3536  2.2317  0.9502  0.9502  1.0136  1.0136  0.7254  0.8135
  0.8135  0.8100  0.8100

 Free energy of the ion-electron system (eV)
  ---------------------------------------------------
  alpha Z        PSCENC =       124.38176256
  Ewald energy   TEWEN  =     12859.52594324
  -Hartree energ DENC   =    -17805.66735337
  -exchange      EXHF   =         0.00000000
  -V(xc)+E(xc)   XCENC  =      -404.51829677
  PAW double counting   =      5743.79657715    -5020.15879027
  entropy T*S    EENTRO =        -0.00165266
  eigenvalues    EBANDS =      -127.55828371
  atomic energy  EATOM  =      4496.35971583
  ---------------------------------------------------
  free energy    TOTEN  =      -133.84037803 eV

  energy without entropy =     -133.83872537  energy(sigma->0) =     -133.83955170


--------------------------------------------------------------------------------------------------------




----------------------------------------- Iteration    1(  19)  ---------------------------------------


    POTLOK:  cpu time    0.10: real time    0.10
    SETDIJ:  cpu time    0.10: real time    0.10
     EDDAV:  cpu time   10.71: real time   10.72
       DOS:  cpu time    0.00: real time    0.00
    CHARGE:  cpu time    0.68: real time    0.68
    MIXING:  cpu time    0.01: real time    0.01
    --------------------------------------------
      LOOP:  cpu time   11.60: real time   11.61

 eigenvalue-minimisations  :  8040
 total energy-change (2. order) : 0.3050740E-04  (-0.1337070E-04)
 number of electron      95.0000002 magnetization 
 augmentation part        5.6570206 magnetization 

 Broyden mixing:
  rms(total) = 0.11117E-02    rms(broyden)= 0.11111E-02
  rms(prec ) = 0.12750E-02
  weight for this iteration     100.00

 eigenvalues of (default mixing * dielectric matrix)
  average eigenvalue GAMMA=   1.7156
  6.4248  2.9241  2.4174  2.4174  1.1968  1.1968  0.9301  0.9301  1.0864  1.0864
  0.9254  0.9254  0.7212  0.8357

 Free energy of the ion-electron system (eV)
  ---------------------------------------------------
  alpha Z        PSCENC =       124.38176256
  Ewald energy   TEWEN  =     12859.52594324
  -Hartree energ DENC   =    -17805.50641820
  -exchange      EXHF   =         0.00000000
  -V(xc)+E(xc)   XCENC  =      -404.50916116
  PAW double counting   =      5744.07510387    -5020.43969938
  entropy T*S    EENTRO =        -0.00165440
  eigenvalues    EBANDS =      -127.72593987
  atomic energy  EATOM  =      4496.35971583
  ---------------------------------------------------
  free energy    TOTEN  =      -133.84034752 eV

  energy without entropy =     -133.83869312  energy(sigma->0) =     -133.83952032


--------------------------------------------------------------------------------------------------------




----------------------------------------- Iteration    1(  20)  ---------------------------------------


    POTLOK:  cpu time    0.10: real time    0.10
    SETDIJ:  cpu time    0.10: real time    0.10
     EDDAV:  cpu time    9.05: real time    9.06
       DOS:  cpu time    0.00: real time    0.00
    --------------------------------------------
      LOOP:  cpu time    9.25: real time    9.26

 eigenvalue-minimisations  :  6414
 total energy-change (2. order) : 0.4411869E-05  (-0.7774279E-05)
 number of electron      95.0000002 magnetization 
 augmentation part        5.6570206 magnetization 

 Free energy of the ion-electron system (eV)
  ---------------------------------------------------
  alpha Z        PSCENC =       124.38176256
  Ewald energy   TEWEN  =     12859.52594324
  -Hartree energ DENC   =    -17805.38168151
  -exchange      EXHF   =         0.00000000
  -V(xc)+E(xc)   XCENC  =      -404.50829581
  PAW double counting   =      5743.94771560    -5020.31267328
  entropy T*S    EENTRO =        -0.00165557
  eigenvalues    EBANDS =      -127.85117415
  atomic energy  EATOM  =      4496.35971583
  ---------------------------------------------------
  free energy    TOTEN  =      -133.84034311 eV

  energy without entropy =     -133.83868753  energy(sigma->0) =     -133.83951532


--------------------------------------------------------------------------------------------------------




 average (electrostatic) potential at core
  the test charge radii are     0.7215  1.0714  1.0406
  (the norm of the test charge is              1.0000)
       1 -69.9224       2 -69.8984       3 -69.9268       4 -70.0219       5 -69.9004
       6 -69.8963       7 -69.8987       8 -69.9075       9 -70.0208      10 -35.6722
      11 -35.5349      12 -35.5398      13 -35.6720      14 -35.5744      15 -35.5449
      16 -35.5297      17 -35.5303      18 -35.5515      19 -35.5753      20 -74.3275
      21 -74.1642      22 -74.2977      23 -74.2522      24 -74.1643      25 -74.2522
      26 -74.2977
 
 
 
 E-fermi :   6.5085     XC(G=0): -10.3243     alpha+bet :-12.6185


 k-point     1 :       0.0000    0.0000    0.0000
  band No.  band energies     occupation 
      1     -14.1669      2.00000
      2     -14.1154      2.00000
      3     -14.0104      2.00000
      4     -13.8676      2.00000
      5     -13.7036      2.00000
      6     -13.5289      2.00000
      7     -13.3634      2.00000
      8     -13.2212      2.00000
      9     -13.1175      2.00000
     10      -3.8444      2.00000
     11      -3.5224      2.00000
     12      -3.0305      2.00000
     13      -2.3226      2.00000
     14      -1.6384      2.00000
     15      -1.6238      2.00000
     16      -1.2649      2.00000
     17      -1.1712      2.00000
     18      -0.5895      2.00000
     19      -0.4567      2.00000
     20       0.2042      2.00000
     21       0.4100      2.00000
     22       1.2470      2.00000
     23       1.2486      2.00000
     24       2.0350      2.00000
     25       2.3257      2.00000
     26       2.3788      2.00000
     27       2.3803      2.00000
     28       2.3995      2.00000
     29       2.4017      2.00000
     30       2.4565      2.00000
     31       2.4577      2.00000
     32       2.5316      2.00000
     33       2.5323      2.00000
     34       2.6147      2.00000
     35       2.6149      2.00000
     36       2.6790      2.00000
     37       2.7021      2.00000
     38       2.7026      2.00000
     39       2.7823      2.00000
     40       2.7838      2.00000
[...]
     45       4.2617      2.00000
     46       4.7294      2.00000
     47       5.0381      2.00000
     48       5.8878      2.00000
     49       6.0739      2.00000
     50       6.9348      0.00000
     51       7.4432      0.00000
     52       8.1128      0.00000
     53       8.6136      0.00000
     54       9.2381      0.00000
     55       9.6194      0.00000
     56       9.8416      0.00000
     57      10.3624      0.00000
     58      10.5875      0.00000
     59      10.6892      0.00000
     60      10.8469      0.00000
     61      11.0373      0.00000
     62      11.2662      0.00000

 k-point    47 :      -0.3846    0.3846    0.0000
  band No.  band energies     occupation 
      1     -13.2600      2.00000
      2     -13.2367      2.00000
      3     -13.1948      2.00000
      4     -13.1328      2.00000
      5     -13.0638      2.00000
      6     -12.9904      2.00000
      7     -12.9229      2.00000
      8     -12.8641      2.00000
      9     -12.8254      2.00000
     10      -1.2096      2.00000
     11      -1.1072      2.00000
     12      -0.9484      2.00000
     13      -0.9056      2.00000
     14      -0.8116      2.00000
     15      -0.7536      2.00000
     16      -0.6697      2.00000
     17      -0.5869      2.00000
     18      -0.5539      2.00000
     19      -0.5338      2.00000
     20      -0.2501      2.00000
     21       0.1155      2.00000
     22       0.2010      2.00000
     23       0.4489      2.00000
     24       0.6909      2.00000
     25       1.0588      2.00000
     26       1.0975      2.00000
     27       1.4108      2.00000
     28       1.5457      2.00000
     29       1.6263      2.00000
     30       1.7113      2.00000
     31       1.7444      2.00000
     32       1.8014      2.00000
     33       1.8312      2.00000
     34       1.8832      2.00000
     35       1.9748      2.00000
     36       1.9947      2.00000
     37       2.0720      2.00000
     38       2.0889      2.00000
     39       2.1620      2.00000
     40       2.2402      2.00000
     41       2.2923      2.00000
     42       2.9738      2.00000
     43       4.0936      2.00000
     44       4.3227      2.00000
     45       4.6258      2.00000
     46       5.0137      2.00000
     47       5.3427      2.00000
     48       5.9739      2.00000
     49       6.6291      0.01393
     50       7.0271      0.00000
     51       7.6626      0.00000
     52       8.2751      0.00000
     53       8.7833      0.00000
     54       9.5590      0.00000
     55       9.9227      0.00000
     56      10.3665      0.00000
     57      10.6675      0.00000
     58      10.8814      0.00000
     59      11.2121      0.00000
     60      11.3017      0.00000
     61      11.6177      0.00000
     62      11.7923      0.00000

 k-point    48 :       0.4615    0.4615    0.0000
  band No.  band energies     occupation 
      1     -13.0290      2.00000
      2     -13.0234      2.00000
      3     -13.0057      2.00000
      4     -12.9762      2.00000
      5     -12.9443      2.00000
      6     -12.9077      2.00000
      7     -12.8733      2.00000
      8     -12.8405      2.00000
      9     -12.8188      2.00000
     10      -1.4956      2.00000
     11      -1.3908      2.00000
     12      -1.2293      2.00000
     13      -1.0383      2.00000
     14      -1.0192      2.00000
     15      -0.9422      2.00000
     16      -0.8867      2.00000
     17      -0.8232      2.00000
     18      -0.7907      2.00000
     19       0.8091      2.00000
     20       0.8360      2.00000
     21       0.9591      2.00000
     22       1.0449      2.00000
     23       1.1703      2.00000
     24       1.3311      2.00000
     25       1.3497      2.00000
     26       1.4573      2.00000
     27       1.5131      2.00000
     28       1.5727      2.00000
     29       1.6443      2.00000
     30       1.6878      2.00000
     31       1.7132      2.00000
     32       1.7183      2.00000
     33       1.8126      2.00000
     34       1.8619      2.00000
     35       1.9562      2.00000
     36       2.0003      2.00000
     37       2.0281      2.00000
     38       2.0334      2.00000
     39       2.0834      2.00000
     40       2.0922      2.00000
     41       2.4809      2.00000
     42       2.5771      2.00000
     43       3.1887      2.00000
     44       3.2757      2.00000
     45       4.0380      2.00000
     46       4.2295      2.00000
     47       4.9095      2.00000
     48       5.4158      2.00000
     49       6.0860      2.00000
     50       6.5723      0.39471
     51       7.1857      0.00000
     52       7.7050      0.00000
     53       8.5652      0.00000
     54       9.1570      0.00000
     55       9.5245      0.00000
     56       9.5276      0.00000
     57      10.3780      0.00000
     58      10.5073      0.00000
     59      10.5851      0.00000
     60      10.7635      0.00000
     61      11.0544      0.00000
     62      11.1277      0.00000

 k-point    49 :      -0.4615    0.4615    0.0000
  band No.  band energies     occupation 
      1     -13.0747      2.00000
      2     -13.0654      2.00000
      3     -13.0434      2.00000
      4     -13.0072      2.00000
      5     -12.9678      2.00000
      6     -12.9241      2.00000
      7     -12.8835      2.00000
      8     -12.8459      2.00000
      9     -12.8212      2.00000
     10      -1.5160      2.00000
     11      -1.4106      2.00000
     12      -1.2482      2.00000
     13      -1.0586      2.00000
     14      -1.0512      2.00000
     15      -0.9697      2.00000
     16      -0.9053      2.00000
     17      -0.8385      2.00000
     18      -0.8041      2.00000
     19       0.6283      2.00000
     20       0.7489      2.00000
     21       0.8458      2.00000
     22       0.9642      2.00000
     23       1.1515      2.00000
     24       1.1914      2.00000
     25       1.2051      2.00000
     26       1.3583      2.00000
     27       1.4398      2.00000
     28       1.6413      2.00000
     29       1.6655      2.00000
     30       1.6746      2.00000
     31       1.7318      2.00000
     32       1.7642      2.00000
     33       1.8140      2.00000
     34       1.9059      2.00000
     35       2.0035      2.00000
     36       2.0096      2.00000
     37       2.0940      2.00000
     38       2.1725      2.00000
     39       2.2249      2.00000
     40       2.3561      2.00000
     41       2.4866      2.00000
     42       2.7875      2.00000
     43       3.2169      2.00000
     44       3.2973      2.00000
     45       3.9758      2.00000
     46       4.2914      2.00000
     47       4.8191      2.00000
     48       5.5219      2.00000
     49       5.9042      2.00000
     50       6.6518      0.00194
     51       7.0358      0.00000
     52       8.1237      0.00000
     53       8.1361      0.00000
     54       9.3238      0.00000
     55       9.5781      0.00000
     56      10.4399      0.00000
     57      10.5368      0.00000
     58      10.7407      0.00000
     59      11.0324      0.00000
     60      11.3619      0.00000
     61      11.3909      0.00000
     62      11.6816      0.00000


--------------------------------------------------------------------------------------------------------


 soft charge-density along one line, spin component           1
         0         1         2         3         4         5         6         7         8         9
 total charge-density along one line
 
 pseudopotential strength for first ion, spin component:           1
 12.153   0.000 -14.785   0.000  -0.000   0.000  -0.000   0.000   0.000   0.000   0.000   0.000   0.000   0.000  -0.000   0.000
-14.785   0.000  18.006   0.000   0.000   0.000   0.000   0.000  -0.000   0.000  -0.000   0.000  -0.000   0.000   0.000   0.000
 -0.000   0.000   0.000   0.000  -8.278   0.000  -0.000   0.000   0.000   0.000   9.903   0.000   0.000   0.000  -0.000   0.000
 -0.000   0.000   0.000   0.000  -0.000   0.000  -8.283   0.000   0.000   0.000   0.000   0.000   9.911   0.000  -0.000   0.000
  0.000   0.000  -0.000   0.000   0.000   0.000   0.000   0.000  -8.278   0.000  -0.000   0.000  -0.000   0.000   9.903   0.000
  0.000   0.000  -0.000   0.000   9.903   0.000   0.000   0.000  -0.000   0.000 -11.684   0.000  -0.000   0.000  -0.000   0.000
  0.000   0.000  -0.000   0.000   0.000   0.000   9.911   0.000  -0.000   0.000  -0.000   0.000 -11.695   0.000   0.000   0.000
 -0.000   0.000   0.000   0.000  -0.000   0.000  -0.000   0.000   9.903   0.000  -0.000   0.000   0.000   0.000 -11.684   0.000
 total augmentation occupancy for first ion, spin component:           1
  2.593   0.358   0.000   0.000  -0.000   0.000  -0.000  -0.000
  0.358   0.067  -0.000   0.000   0.000  -0.000  -0.000   0.000
  0.000  -0.000   2.154   0.000  -0.000   0.256   0.000  -0.000
  0.000   0.000   0.000   2.149  -0.000   0.000   0.261  -0.000
 -0.000   0.000  -0.000  -0.000   2.153  -0.000  -0.000   0.256
  0.000  -0.000   0.256   0.000  -0.000   0.033   0.000  -0.000
 -0.000  -0.000   0.000   0.261  -0.000   0.000   0.034  -0.000
 -0.000   0.000  -0.000  -0.000   0.256  -0.000  -0.000   0.033


------------------------ aborting loop because EDIFF is reached ----------------------------------------


    CHARGE:  cpu time    0.68: real time    0.68
    FORLOC:  cpu time    0.03: real time    0.03
    FORNL :  cpu time    6.15: real time    6.15
    STRESS:  cpu time    6.93: real time    6.94
    FORCOR:  cpu time    0.13: real time    0.13
    FORHAR:  cpu time    0.06: real time    0.06
    MIXING:  cpu time    0.00: real time    0.00
    OFIELD:  cpu time    0.00: real time    0.00

  FORCE on cell =-STRESS in cart. coord.  units (eV):
  Direction    XX          YY          ZZ          XY          YZ          ZX
  --------------------------------------------------------------------------------------
  Alpha Z   124.38176   124.38176   124.38176
  Ewald   15571.42622 15565.89365-18024.92772     4.79157  -581.93350   335.97941
  Hartree 17196.77894 17190.16944-16330.63640     5.72394  -581.46798   335.71084
  E(xc)    -388.63491  -388.64808  -388.89516     0.01140    -0.00489     0.00282
  Local  -33907.53672-33895.36830 33214.02053   -10.53791  1163.42205  -671.70218
  n-local   -29.52675   -37.38072   -28.81278    -2.39882     1.60511     2.68130
  augment    53.81338    53.81083    53.00459     0.00218    -0.00997     0.00578
  Kinetic  1392.04302  1367.81077  1366.38435    -6.91099     0.22244     0.99656
  Fock        0.00000     0.00000     0.00000     0.00000     0.00000     0.00000
  -------------------------------------------------------------------------------------
  Total      -3.31848    -3.26725   -15.48082    -0.04437    -0.21611     0.12477
  in kB     -16.35527   -16.10276   -76.29788    -0.21867    -1.06511     0.61494
  external pressure =      -36.25 kB  Pullay stress =        0.00 kB


 VOLUME and BASIS-vectors are now :
 -----------------------------------------------------------------------------
  energy-cutoff  :      520.00
  volume of cell :      325.08
      direct lattice vectors                 reciprocal lattice vectors
     2.592590006 -1.495275227  0.051895165     0.385652212 -0.000239071 -0.003768129
     0.001348276  2.992885737 -0.051895149     0.192619064  0.334104250  0.003768129
     0.408967606 -0.708352458 41.901060202    -0.000239075  0.000414090  0.023875078

  length of vectors
     2.993336608  2.993335925 41.909042745     0.385670694  0.385670782  0.023879866


 FORCES acting on ions
    electron-ion (+dipol)            ewald-force                    non-local-force                 convergence-correction
 -----------------------------------------------------------------------------------------------
   -.966E+01 0.167E+02 0.964E+03   0.966E+01 -.167E+02 -.964E+03   0.705E-03 -.122E-02 0.229E-01   0.372E-04 -.645E-04 0.314E-02
   0.223E-03 -.386E-03 -.113E-01   -.261E-03 0.453E-03 0.145E-01   -.115E-04 0.199E-04 0.443E-03   0.338E-04 -.585E-04 -.354E-02
   0.966E+01 -.167E+02 -.964E+03   -.966E+01 0.167E+02 0.964E+03   -.680E-03 0.118E-02 -.293E-01   -.460E-04 0.796E-04 -.274E-02
   -.128E+02 0.222E+02 0.128E+04   0.128E+02 -.223E+02 -.128E+04   -.745E-02 0.129E-01 0.789E+00   0.979E-04 -.170E-03 -.245E-02
   -.644E+01 0.111E+02 0.642E+03   0.644E+01 -.111E+02 -.642E+03   0.506E-03 -.876E-03 0.186E-01   0.447E-04 -.775E-04 0.138E-02
   -.322E+01 0.558E+01 0.321E+03   0.322E+01 -.558E+01 -.321E+03   0.394E-03 -.683E-03 -.869E-03   0.489E-04 -.846E-04 -.164E-02
   0.322E+01 -.558E+01 -.321E+03   -.322E+01 0.558E+01 0.321E+03   -.467E-03 0.809E-03 0.830E-02   0.187E-04 -.325E-04 -.521E-02
   0.644E+01 -.112E+02 -.642E+03   -.644E+01 0.112E+02 0.642E+03   -.537E-03 0.929E-03 -.142E-01   -.572E-05 0.992E-05 -.529E-02
   0.128E+02 -.222E+02 -.128E+04   -.128E+02 0.223E+02 0.128E+04   0.751E-02 -.130E-01 -.794E+00   -.126E-03 0.219E-03 0.557E-02
   -.466E+01 0.808E+01 0.464E+03   0.466E+01 -.807E+01 -.464E+03   0.621E-02 -.108E-01 0.157E-01   0.118E-04 -.204E-04 -.117E-02
   -.161E+01 0.279E+01 0.161E+03   0.161E+01 -.279E+01 -.161E+03   0.123E-02 -.213E-02 -.167E-02   0.311E-05 -.539E-05 -.320E-03
   0.161E+01 -.279E+01 -.161E+03   -.161E+01 0.279E+01 0.161E+03   -.117E-02 0.202E-02 -.599E-03   0.152E-04 -.263E-04 -.151E-02
   0.466E+01 -.808E+01 -.464E+03   -.466E+01 0.807E+01 0.464E+03   -.627E-02 0.109E-01 -.155E-01   -.220E-04 0.382E-04 0.219E-02
   -.376E+01 0.652E+01 0.375E+03   0.376E+01 -.652E+01 -.375E+03   0.225E-02 -.390E-02 -.235E-01   0.114E-05 -.197E-05 -.124E-03
   -.269E+01 0.465E+01 0.268E+03   0.269E+01 -.465E+01 -.268E+03   0.166E-02 -.288E-02 0.203E-02   -.247E-05 0.427E-05 0.239E-03
   -.538E+00 0.932E+00 0.536E+02   0.538E+00 -.931E+00 -.536E+02   0.441E-03 -.763E-03 -.377E-02   0.105E-04 -.183E-04 -.106E-02
   0.538E+00 -.932E+00 -.536E+02   -.538E+00 0.932E+00 0.536E+02   -.480E-03 0.832E-03 0.359E-02   0.123E-04 -.214E-04 -.123E-02
   0.269E+01 -.465E+01 -.268E+03   -.269E+01 0.465E+01 0.268E+03   -.169E-02 0.293E-02 -.175E-02   0.785E-05 -.136E-04 -.775E-03
   0.376E+01 -.652E+01 -.375E+03   -.376E+01 0.652E+01 0.375E+03   -.234E-02 0.405E-02 0.250E-01   -.732E-05 0.127E-04 0.743E-03
   -.576E-03 0.997E-03 0.152E-01   0.327E-03 -.566E-03 -.158E-01   0.278E-03 -.482E-03 -.929E-04   -.640E-05 0.111E-04 0.639E-03
   -.498E+01 0.862E+01 0.496E+03   0.497E+01 -.860E+01 -.496E+03   0.918E-02 -.159E-01 -.861E+00   0.121E-04 -.209E-04 -.118E-02
   -.333E+01 0.576E+01 0.331E+03   0.332E+01 -.575E+01 -.331E+03   0.857E-02 -.148E-01 -.323E-01   0.636E-05 -.110E-04 -.621E-03
   -.165E+01 0.285E+01 0.164E+03   0.165E+01 -.285E+01 -.164E+03   -.159E-04 0.276E-04 0.846E-01   -.173E-06 0.300E-06 0.287E-04
   0.498E+01 -.862E+01 -.496E+03   -.497E+01 0.860E+01 0.495E+03   -.930E-02 0.161E-01 0.860E+00   -.265E-04 0.459E-04 0.263E-02
   0.165E+01 -.285E+01 -.164E+03   -.165E+01 0.285E+01 0.164E+03   0.581E-04 -.101E-03 -.846E-01   -.128E-04 0.222E-04 0.127E-02
   0.332E+01 -.576E+01 -.331E+03   -.332E+01 0.574E+01 0.331E+03   -.835E-02 0.145E-01 0.324E-01   -.199E-04 0.345E-04 0.198E-02
 -----------------------------------------------------------------------------------------------
   -.326E-03 0.565E-03 0.102E-01   -.262E-13 0.364E-13 -.739E-12   0.243E-03 -.420E-03 -.109E-02   0.858E-04 -.149E-03 -.906E-02
 
 
 POSITION                                       TOTAL-FORCE (eV/Angst)
 -----------------------------------------------------------------------------------
      1.58139      0.25617     14.49235         0.000941     -0.001629     -0.006244
      1.51213      0.37613     22.03108        -0.000016      0.000029      0.000057
      1.44277      0.49627     29.56995        -0.000874      0.001514      0.003212
      0.74222      1.70966     11.94814         0.000685     -0.001187      0.013875
      2.42149     -1.19893     17.03877         0.000472     -0.000818      0.009152
      0.67101      1.83299     19.48369         0.000274     -0.000475     -0.001353
      2.35323     -1.08070     24.57833        -0.000344      0.000595      0.005072
      0.60272      1.95127     27.02333        -0.000535      0.000927     -0.006795
      2.28190     -0.95714     32.11418        -0.000673      0.001166     -0.016636
      1.61886      0.19127     10.69989         0.001136     -0.001967     -0.010687
      1.54615      0.31721     18.26145         0.000579     -0.001003     -0.002496
      1.47808      0.43512     25.80086        -0.000511      0.000886     -0.002493
      1.40522      0.56131     33.36236        -0.001153      0.001997      0.011470
      2.45727     -1.26089     13.27050         0.000828     -0.001435      0.014709
      0.70568      1.77294     15.71347         0.000692     -0.001199      0.010053
      2.38716     -1.13946     20.80960         0.000283     -0.000491     -0.008383
      0.63710      1.89173     23.25254        -0.000297      0.000514      0.007546
      2.31851     -1.02055     28.34869        -0.000715      0.001238     -0.009064
      0.56688      2.01336     30.79161        -0.000901      0.001561     -0.010765
      2.60274     -1.51285      1.13256         0.000023     -0.000040     -0.000044
      2.51200     -1.35569      8.21843         0.000718     -0.001244      0.009685
      1.67696      0.09064      5.82900         0.000541     -0.000938      0.004454
      0.84351      1.53421      3.41956         0.000397     -0.000687      0.005142
      0.51179      2.10877     35.84392        -0.000704      0.001219     -0.009913
      2.17982     -0.78034     40.64282        -0.000348      0.000602     -0.005159
      1.34652      0.66298     38.23335        -0.000498      0.000863     -0.004396
 -----------------------------------------------------------------------------------
    total drift:                                0.000002     -0.000004      0.000056


--------------------------------------------------------------------------------------------------------



  FREE ENERGIE OF THE ION-ELECTRON SYSTEM (eV)
  ---------------------------------------------------
  free  energy   TOTEN  =      -133.84504843 eV

  energy  without entropy=     -133.84284124  energy(sigma->0) =     -133.84394483
 
 d Force = 0.7393926E-05[ 0.355E-05, 0.112E-04]  d Energy = 0.5715021E-05 0.168E-05
 d Force = 0.2386429E+01[ 0.239E+01, 0.239E+01]  d Ewald  = 0.2386429E+01 0.165E-08


--------------------------------------------------------------------------------------------------------


    POTLOK:  cpu time    0.20: real time    0.20


--------------------------------------------------------------------------------------------------------




--------------------------------------------------------------------------------------------------------


  
 reached required accuracy - stopping structural energy minimisation
     LOOP+:  cpu time   62.42: real time   62.46
    4ORBIT:  cpu time    0.00: real time    0.00

 total amount of memory used by VASP on root node   198233. kBytes
========================================================================

   base      :      30000. kBytes
   nonl-proj :      34988. kBytes
   fftplans  :      55172. kBytes
   grid      :      22118. kBytes
   one-center:         56. kBytes
   wavefun   :      55899. kBytes
 
  
  
 General timing and accounting informations for this job:
 ========================================================
  
                  Total CPU time used (sec):     2313.897
                            User time (sec):     2298.428
                          System time (sec):       15.469
                         Elapsed time (sec):     2316.333
  
                   Maximum memory used (kb):      305500.
                   Average memory used (kb):           0.
  
                          Minor page faults:       547287
                          Major page faults:            0
                 Voluntary context switches:          462
