       N       E                     dE             d eps       ncg     rms          rms(c)
DAV:   1     0.464778789445E+03    0.46478E+03   -0.41459E+04  6092   0.132E+03
DAV:   2    -0.953847508479E+02   -0.56016E+03   -0.53301E+03  7856   0.250E+02
DAV:   3    -0.147857141976E+03   -0.52472E+02   -0.52174E+02  7124   0.825E+01
DAV:   4    -0.148528252929E+03   -0.67111E+00   -0.66985E+00  7088   0.101E+01
DAV:   5    -0.148538430696E+03   -0.10178E-01   -0.10172E-01  7226   0.123E+00    0.219E+01
DAV:   6    -0.134183877736E+03    0.14355E+02   -0.82364E+01  6914   0.292E+01    0.742E+00
DAV:   7    -0.134073576738E+03    0.11030E+00   -0.15801E+00  6668   0.507E+00    0.455E+00
DAV:   8    -0.133977341210E+03    0.96236E-01   -0.44514E-01  7164   0.391E+00    0.788E-01
DAV:   9    -0.133963776281E+03    0.13565E-01   -0.72636E-02  6902   0.118E+00    0.477E-01
DAV:  10    -0.133963065954E+03    0.71033E-03   -0.36272E-02  6972   0.795E-01    0.239E-01
DAV:  11    -0.133963507341E+03   -0.44139E-03   -0.28876E-03  6956   0.249E-01    0.164E-01
DAV:  12    -0.133963308845E+03    0.19850E-03   -0.23728E-03  8276   0.276E-01    0.603E-02
DAV:  13    -0.133963249237E+03    0.59609E-04   -0.11615E-03  7080   0.141E-01    0.483E-02
DAV:  14    -0.133963180682E+03    0.68555E-04   -0.13958E-04  7796   0.694E-02    0.323E-02
DAV:  15    -0.133963077114E+03    0.10357E-03   -0.11454E-04  7768   0.940E-02    0.144E-02
DAV:  16    -0.133963041580E+03    0.35534E-04   -0.12290E-04  7090   0.680E-02    0.139E-02
DAV:  17    -0.133962995469E+03    0.46111E-04   -0.15258E-04  7100   0.674E-02    0.264E-02
DAV:  18    -0.133962919663E+03    0.75806E-04   -0.78009E-05  7238   0.139E-01    0.204E-02
DAV:  19    -0.133962891248E+03    0.28415E-04   -0.11298E-04  7554   0.101E-01    0.100E-02
DAV:  20    -0.133962876908E+03    0.14340E-04   -0.10429E-04  7260   0.105E-01    0.105E-02
DAV:  21    -0.133962872004E+03    0.49042E-05   -0.56043E-05  6434   0.613E-02
   1 F= -.13396287E+03 E0= -.13396149E+03  d E =-.133963E+03
       N       E                     dE             d eps       ncg     rms          rms(c)
DAV:   1    -0.133963585297E+03   -0.70839E-03   -0.79766E-03  6358   0.403E-01    0.235E-02
DAV:   2    -0.133963596726E+03   -0.11429E-04   -0.41029E-04  7086   0.914E-02    0.181E-02
DAV:   3    -0.133963590120E+03    0.66054E-05   -0.27368E-05  5778   0.257E-02    0.134E-02
DAV:   4    -0.133963583520E+03    0.65996E-05   -0.17678E-05  4788   0.199E-02    0.571E-03
DAV:   5    -0.133963577152E+03    0.63686E-05   -0.77390E-06  4604   0.197E-02    0.476E-03
DAV:   6    -0.133963573598E+03    0.35537E-05   -0.43195E-06  4262   0.158E-02
   2 F= -.13396357E+03 E0= -.13396224E+03  d E =-.701595E-03
       N       E                     dE             d eps       ncg     rms          rms(c)
DAV:   1    -0.133964008423E+03   -0.43127E-03   -0.20411E-02  6220   0.647E-01    0.344E-02
DAV:   2    -0.133964044118E+03   -0.35695E-04   -0.10844E-03  7124   0.144E-01    0.307E-02
DAV:   3    -0.133964020734E+03    0.23384E-04   -0.55474E-05  6992   0.391E-02    0.218E-02
DAV:   4    -0.133963989655E+03    0.31079E-04   -0.11653E-04  6914   0.530E-02    0.124E-02
DAV:   5    -0.133963973423E+03    0.16233E-04   -0.23212E-05  5586   0.309E-02    0.152E-02
DAV:   6    -0.133963958117E+03    0.15306E-04   -0.15736E-05  4594   0.248E-02    0.773E-03
DAV:   7    -0.133963946625E+03    0.11492E-04   -0.20154E-05  5148   0.275E-02    0.632E-03
DAV:   8    -0.133963931085E+03    0.15540E-04   -0.47890E-06  4462   0.471E-02    0.744E-03
DAV:   9    -0.133963917563E+03    0.13522E-04   -0.14011E-05  4918   0.588E-02    0.554E-03
DAV:  10    -0.133963907812E+03    0.97509E-05   -0.18579E-05  5324   0.683E-02
   3 F= -.13396391E+03 E0= -.13396269E+03  d E =-.103581E-02
       N       E                     dE             d eps       ncg     rms          rms(c)
DAV:   1    -0.133964253768E+03   -0.33620E-03   -0.84732E-02  6564   0.127E+00    0.375E-02
DAV:   2    -0.133964421096E+03   -0.16733E-03   -0.19267E-03  6882   0.176E-01    0.222E-02
DAV:   3    -0.133964408029E+03    0.13067E-04   -0.20264E-05  5224   0.253E-02    0.154E-02
DAV:   4    -0.133964398374E+03    0.96552E-05   -0.25293E-05  5800   0.298E-02    0.475E-03
DAV:   5    -0.133964398457E+03   -0.83433E-07   -0.12453E-05  3868   0.173E-02    0.335E-03
DAV:   6    -0.133964398315E+03    0.14196E-06   -0.21540E-06  3662   0.725E-03
   4 F= -.13396440E+03 E0= -.13396322E+03  d E =-.490503E-03
       N       E                     dE             d eps       ncg     rms          rms(c)
DAV:   1    -0.133963711147E+03    0.68731E-03   -0.75901E-01  6420   0.380E+00    0.113E-01
DAV:   2    -0.133965233347E+03   -0.15222E-02   -0.17492E-02  6864   0.530E-01    0.697E-02
DAV:   3    -0.133965112533E+03    0.12081E-03   -0.19910E-04  7252   0.804E-02    0.482E-02
DAV:   4    -0.133965031369E+03    0.81164E-04   -0.23363E-04  7002   0.830E-02    0.178E-02
DAV:   5    -0.133965025989E+03    0.53798E-05   -0.84842E-05  6956   0.468E-02    0.118E-02
DAV:   6    -0.133965020784E+03    0.52052E-05   -0.32149E-05  5604   0.343E-02
   5 F= -.13396502E+03 E0= -.13396397E+03  d E =-.111297E-02
       N       E                     dE             d eps       ncg     rms          rms(c)
DAV:   1    -0.133965235648E+03   -0.20966E-03   -0.25039E-01  6312   0.221E+00    0.673E-02
DAV:   2    -0.133965747983E+03   -0.51233E-03   -0.59167E-03  6804   0.313E-01    0.406E-02
DAV:   3    -0.133965701641E+03    0.46342E-04   -0.78325E-05  7192   0.512E-02    0.296E-02
DAV:   4    -0.133965660302E+03    0.41339E-04   -0.99173E-05  6764   0.645E-02    0.114E-02
DAV:   5    -0.133965646835E+03    0.13467E-04   -0.48324E-05  6500   0.395E-02    0.101E-02
DAV:   6    -0.133965637803E+03    0.90321E-05   -0.17480E-05  4426   0.235E-02
   6 F= -.13396564E+03 E0= -.13396463E+03  d E =-.617019E-03
       N       E                     dE             d eps       ncg     rms          rms(c)
DAV:   1    -0.133965375699E+03    0.27114E-03   -0.25090E-01  6340   0.221E+00    0.651E-02
DAV:   2    -0.133965879488E+03   -0.50379E-03   -0.59004E-03  6866   0.313E-01    0.419E-02
DAV:   3    -0.133965824345E+03    0.55143E-04   -0.70508E-05  7208   0.525E-02    0.302E-02
DAV:   4    -0.133965765759E+03    0.58585E-04   -0.11944E-04  6844   0.740E-02    0.115E-02
DAV:   5    -0.133965747468E+03    0.18292E-04   -0.59982E-05  6816   0.436E-02    0.104E-02
DAV:   6    -0.133965734580E+03    0.12888E-04   -0.21988E-05  4992   0.268E-02    0.544E-03
DAV:   7    -0.133965708289E+03    0.26291E-04   -0.10145E-05  4796   0.418E-02    0.747E-03
DAV:   8    -0.133965688542E+03    0.19747E-04   -0.15613E-05  5050   0.418E-02    0.983E-03
DAV:   9    -0.133965659367E+03    0.29175E-04   -0.43663E-05  6632   0.834E-02    0.580E-03
DAV:  10    -0.133965643699E+03    0.15668E-04   -0.45186E-05  6484   0.779E-02    0.999E-03
DAV:  11    -0.133965635607E+03    0.80923E-05   -0.29391E-05  5784   0.479E-02
   7 F= -.13396564E+03 E0= -.13396464E+03  d E =-.614823E-03
       N       E                     dE             d eps       ncg     rms          rms(c)
DAV:   1    -0.133965627813E+03    0.15887E-04   -0.24270E-02  6608   0.688E-01    0.229E-02
DAV:   2    -0.133965681370E+03   -0.53558E-04   -0.64545E-04  6872   0.104E-01    0.137E-02
DAV:   3    -0.133965676380E+03    0.49898E-05   -0.10414E-05  4068   0.181E-02    0.104E-02
DAV:   4    -0.133965671401E+03    0.49790E-05   -0.13757E-05  4520   0.243E-02    0.366E-03
DAV:   5    -0.133965670538E+03    0.86353E-06   -0.82948E-06  3876   0.164E-02    0.444E-03
DAV:   6    -0.133965670150E+03    0.38787E-06   -0.23698E-06  3512   0.777E-03
   8 F= -.13396567E+03 E0= -.13396466E+03  d E =-.649366E-03
       N       E                     dE             d eps       ncg     rms          rms(c)
DAV:   1    -0.133966037142E+03   -0.36660E-03   -0.73393E-02  6144   0.119E+00    0.381E-02
DAV:   2    -0.133966181001E+03   -0.14386E-03   -0.17219E-03  6832   0.172E-01    0.225E-02
DAV:   3    -0.133966171383E+03    0.96188E-05   -0.31886E-05  6062   0.284E-02    0.172E-02
DAV:   4    -0.133966163416E+03    0.79663E-05   -0.34475E-05  5850   0.318E-02    0.731E-03
DAV:   5    -0.133966161205E+03    0.22112E-05   -0.10759E-05  3752   0.207E-02    0.847E-03
DAV:   6    -0.133966157975E+03    0.32296E-05   -0.40972E-06  3754   0.182E-02
   9 F= -.13396616E+03 E0= -.13396518E+03  d E =-.487826E-03
       N       E                     dE             d eps       ncg     rms          rms(c)
DAV:   1    -0.133965906709E+03    0.25450E-03   -0.42579E-01  6100   0.287E+00    0.940E-02
DAV:   2    -0.133966748440E+03   -0.84173E-03   -0.10148E-02  6824   0.419E-01    0.546E-02
DAV:   3    -0.133966689370E+03    0.59070E-04   -0.20353E-04  7190   0.746E-02    0.422E-02
DAV:   4    -0.133966637755E+03    0.51615E-04   -0.20171E-04  6906   0.787E-02    0.191E-02
DAV:   5    -0.133966615533E+03    0.22222E-04   -0.67945E-05  6866   0.606E-02    0.224E-02
DAV:   6    -0.133966589396E+03    0.26136E-04   -0.41715E-05  5698   0.539E-02    0.109E-02
DAV:   7    -0.133966576380E+03    0.13016E-04   -0.31244E-05  5524   0.370E-02    0.665E-03
DAV:   8    -0.133966557041E+03    0.19339E-04   -0.55351E-06  4240   0.379E-02    0.623E-03
DAV:   9    -0.133966506924E+03    0.50117E-04   -0.41160E-05  6420   0.119E-01    0.122E-02
DAV:  10    -0.133966486072E+03    0.20852E-04   -0.49064E-05  6610   0.775E-02    0.526E-03
DAV:  11    -0.133966465550E+03    0.20522E-04   -0.16710E-05  5216   0.109E-01    0.386E-03
DAV:  12    -0.133966465774E+03   -0.22436E-06   -0.87704E-05  6842   0.904E-02
  10 F= -.13396647E+03 E0= -.13396557E+03  d E =-.795624E-03
       N       E                     dE             d eps       ncg     rms          rms(c)
DAV:   1    -0.133966714682E+03   -0.24913E-03   -0.11441E-01  6312   0.149E+00    0.468E-02
DAV:   2    -0.133966941384E+03   -0.22670E-03   -0.25994E-03  6952   0.213E-01    0.266E-02
DAV:   3    -0.133966926719E+03    0.14665E-04   -0.43142E-05  6650   0.337E-02    0.189E-02
DAV:   4    -0.133966914990E+03    0.11729E-04   -0.35951E-05  5964   0.332E-02    0.802E-03
DAV:   5    -0.133966912269E+03    0.27211E-05   -0.12419E-05  4178   0.256E-02    0.713E-03
DAV:   6    -0.133966910400E+03    0.18691E-05   -0.10463E-05  4128   0.229E-02
  11 F= -.13396691E+03 E0= -.13396605E+03  d E =-.444626E-03
       N       E                     dE             d eps       ncg     rms          rms(c)
DAV:   1    -0.133966424032E+03    0.48824E-03   -0.47422E-01  6184   0.304E+00    0.925E-02
DAV:   2    -0.133967383666E+03   -0.95963E-03   -0.10785E-02  6934   0.429E-01    0.533E-02
DAV:   3    -0.133967323045E+03    0.60621E-04   -0.14440E-04  7306   0.626E-02    0.381E-02
DAV:   4    -0.133967272326E+03    0.50720E-04   -0.17239E-04  7006   0.794E-02    0.158E-02
DAV:   5    -0.133967266381E+03    0.59443E-05   -0.74403E-05  6788   0.513E-02    0.168E-02
DAV:   6    -0.133967261877E+03    0.45046E-05   -0.26309E-05  5082   0.256E-02
  12 F= -.13396726E+03 E0= -.13396647E+03  d E =-.796103E-03
       N       E                     dE             d eps       ncg     rms          rms(c)
DAV:   1    -0.133967571536E+03   -0.30515E-03   -0.12633E-01  6192   0.156E+00    0.473E-02
DAV:   2    -0.133967819978E+03   -0.24844E-03   -0.28604E-03  6920   0.220E-01    0.268E-02
DAV:   3    -0.133967798374E+03    0.21604E-04   -0.36234E-05  6586   0.355E-02    0.186E-02
DAV:   4    -0.133967774929E+03    0.23445E-04   -0.29237E-05  5812   0.436E-02    0.755E-03
DAV:   5    -0.133967765812E+03    0.91176E-05   -0.19990E-05  4632   0.371E-02    0.589E-03
DAV:   6    -0.133967761499E+03    0.43127E-05   -0.16953E-05  3842   0.259E-02
  13 F= -.13396776E+03 E0= -.13396700E+03  d E =-.499622E-03
       N       E                     dE             d eps       ncg     rms          rms(c)
DAV:   1    -0.133967257921E+03    0.50789E-03   -0.51111E-01  6172   0.315E+00    0.923E-02
DAV:   2    -0.133968263423E+03   -0.10055E-02   -0.11610E-02  6942   0.444E-01    0.554E-02
DAV:   3    -0.133968176533E+03    0.86891E-04   -0.15242E-04  7314   0.661E-02    0.394E-02
DAV:   4    -0.133968084418E+03    0.92114E-04   -0.12937E-04  6684   0.762E-02    0.167E-02
DAV:   5    -0.133968045844E+03    0.38574E-04   -0.71163E-05  6772   0.653E-02    0.127E-02
DAV:   6    -0.133968024258E+03    0.21586E-04   -0.63282E-05  6508   0.497E-02    0.829E-03
DAV:   7    -0.133967989561E+03    0.34697E-04   -0.60370E-06  4542   0.465E-02    0.618E-03
DAV:   8    -0.133967922675E+03    0.66886E-04   -0.30631E-05  5806   0.100E-01    0.826E-03
DAV:   9    -0.133967876186E+03    0.46489E-04   -0.48589E-05  6898   0.102E-01    0.842E-03
DAV:  10    -0.133967816157E+03    0.60029E-04   -0.91770E-05  8038   0.201E-01    0.631E-03
DAV:  11    -0.133967823325E+03   -0.71681E-05   -0.17258E-04  6768   0.717E-02    0.100E-02
DAV:  12    -0.133967825245E+03   -0.19199E-05   -0.32457E-05  5564   0.283E-02
  14 F= -.13396783E+03 E0= -.13396708E+03  d E =-.563369E-03
       N       E                     dE             d eps       ncg     rms          rms(c)
DAV:   1    -0.133967817452E+03    0.58734E-05   -0.63169E-02  6316   0.111E+00    0.351E-02
DAV:   2    -0.133967940938E+03   -0.12349E-03   -0.14184E-03  6912   0.153E-01    0.194E-02
DAV:   3    -0.133967930063E+03    0.10876E-04   -0.13827E-05  4838   0.201E-02    0.125E-02
DAV:   4    -0.133967921430E+03    0.86328E-05   -0.22527E-05  5154   0.272E-02    0.420E-03
DAV:   5    -0.133967920900E+03    0.52920E-06   -0.91549E-06  3720   0.165E-02    0.311E-03
DAV:   6    -0.133967919635E+03    0.12651E-05   -0.28343E-06  3840   0.140E-02
  15 F= -.13396792E+03 E0= -.13396716E+03  d E =-.657759E-03
       N       E                     dE             d eps       ncg     rms          rms(c)
DAV:   1    -0.133968173891E+03   -0.25299E-03   -0.43594E-02  6210   0.924E-01    0.286E-02
DAV:   2    -0.133968258516E+03   -0.84625E-04   -0.10324E-03  6914   0.135E-01    0.174E-02
DAV:   3    -0.133968251454E+03    0.70624E-05   -0.17636E-05  4680   0.234E-02    0.129E-02
DAV:   4    -0.133968243777E+03    0.76762E-05   -0.17468E-05  4604   0.273E-02    0.537E-03
DAV:   5    -0.133968241212E+03    0.25650E-05   -0.10582E-05  3828   0.222E-02    0.634E-03
DAV:   6    -0.133968239130E+03    0.20824E-05   -0.51730E-06  3716   0.157E-02
  16 F= -.13396824E+03 E0= -.13396749E+03  d E =-.319495E-03
       N       E                     dE             d eps       ncg     rms          rms(c)
DAV:   1    -0.133968047253E+03    0.19396E-03   -0.32549E-01  6164   0.252E+00    0.789E-02
DAV:   2    -0.133968691618E+03   -0.64436E-03   -0.77188E-03  6908   0.368E-01    0.479E-02
DAV:   3    -0.133968643088E+03    0.48529E-04   -0.14616E-04  7270   0.637E-02    0.351E-02
DAV:   4    -0.133968600780E+03    0.42308E-04   -0.11747E-04  6602   0.584E-02    0.162E-02
DAV:   5    -0.133968582462E+03    0.18318E-04   -0.38905E-05  6392   0.503E-02    0.142E-02
DAV:   6    -0.133968563189E+03    0.19273E-04   -0.29439E-05  5490   0.573E-02    0.585E-03
DAV:   7    -0.133968553780E+03    0.94089E-05   -0.28365E-05  5424   0.426E-02
  17 F= -.13396855E+03 E0= -.13396782E+03  d E =-.634144E-03
       N       E                     dE             d eps       ncg     rms          rms(c)
DAV:   1    -0.133968878057E+03   -0.31487E-03   -0.38869E-02  6644   0.832E-01    0.258E-02
DAV:   2    -0.133968926142E+03   -0.48085E-04   -0.88011E-04  7134   0.129E-01    0.185E-02
DAV:   3    -0.133968909489E+03    0.16653E-04   -0.34765E-05  6106   0.302E-02    0.147E-02
DAV:   4    -0.133968884682E+03    0.24807E-04   -0.16536E-05  4598   0.266E-02    0.804E-03
DAV:   5    -0.133968857025E+03    0.27658E-04   -0.24039E-05  5798   0.452E-02    0.962E-03
DAV:   6    -0.133968818587E+03    0.38437E-04   -0.57309E-05  7192   0.102E-01    0.776E-03
DAV:   7    -0.133968801724E+03    0.16864E-04   -0.70717E-05  7130   0.754E-02    0.145E-02
DAV:   8    -0.133968788964E+03    0.12759E-04   -0.31511E-05  6008   0.269E-02    0.662E-03
DAV:   9    -0.133968772528E+03    0.16436E-04   -0.88260E-05  7038   0.816E-02    0.196E-02
DAV:  10    -0.133968760171E+03    0.12357E-04   -0.23503E-05  5284   0.556E-02    0.123E-02
DAV:  11    -0.133968760942E+03   -0.77063E-06   -0.44586E-05  5460   0.282E-02
  18 F= -.13396876E+03 E0= -.13396804E+03  d E =-.207162E-03
       N       E                     dE             d eps       ncg     rms          rms(c)
DAV:   1    -0.133968792078E+03   -0.31907E-04   -0.52300E-03  6852   0.306E-01    0.116E-02
DAV:   2    -0.133968798662E+03   -0.65834E-05   -0.11918E-04  6772   0.494E-02    0.617E-03
DAV:   3    -0.133968797163E+03    0.14990E-05   -0.71265E-06  3758   0.136E-02    0.477E-03
DAV:   4    -0.133968795514E+03    0.16490E-05   -0.15628E-06  3738   0.748E-03    0.252E-03
DAV:   5    -0.133968793191E+03    0.23230E-05   -0.17671E-06  3962   0.134E-02    0.238E-03
DAV:   6    -0.133968791296E+03    0.18944E-05   -0.17199E-06  3898   0.173E-02
  19 F= -.13396879E+03 E0= -.13396807E+03  d E =-.237516E-03
       N       E                     dE             d eps       ncg     rms          rms(c)
DAV:   1    -0.133968747530E+03    0.45661E-04   -0.20824E-02  6684   0.612E-01    0.187E-02
DAV:   2    -0.133968780563E+03   -0.33034E-04   -0.48222E-04  7118   0.924E-02    0.138E-02
DAV:   3    -0.133968773147E+03    0.74163E-05   -0.10519E-05  4264   0.185E-02    0.103E-02
DAV:   4    -0.133968760895E+03    0.12252E-04   -0.19900E-05  5534   0.273E-02    0.511E-03
DAV:   5    -0.133968758026E+03    0.28687E-05   -0.75736E-06  3838   0.161E-02    0.513E-03
DAV:   6    -0.133968756362E+03    0.16643E-05   -0.38121E-06  3758   0.113E-02
  20 F= -.13396876E+03 E0= -.13396803E+03  d E =-.202582E-03
       N       E                     dE             d eps       ncg     rms          rms(c)
DAV:   1    -0.133968775299E+03   -0.17272E-04   -0.89327E-03  6718   0.399E-01    0.126E-02
DAV:   2    -0.133968789167E+03   -0.13869E-04   -0.20333E-04  6874   0.575E-02    0.878E-03
DAV:   3    -0.133968786253E+03    0.29148E-05   -0.26921E-06  3910   0.117E-02    0.628E-03
DAV:   4    -0.133968782977E+03    0.32752E-05   -0.91039E-06  4212   0.223E-02    0.215E-03
DAV:   5    -0.133968783247E+03   -0.26940E-06   -0.59013E-06  3650   0.101E-02    0.290E-03
DAV:   6    -0.133968783310E+03   -0.63090E-07   -0.79000E-07  3542   0.328E-03
  21 F= -.13396878E+03 E0= -.13396806E+03  d E =-.229530E-03
       N       E                     dE             d eps       ncg     rms          rms(c)
DAV:   1    -0.133968905162E+03   -0.12191E-03   -0.81182E-02  6180   0.120E+00    0.337E-02
DAV:   2    -0.133969043039E+03   -0.13788E-03   -0.16430E-03  7022   0.162E-01    0.220E-02
DAV:   3    -0.133969029395E+03    0.13644E-04   -0.18415E-05  4868   0.263E-02    0.154E-02
DAV:   4    -0.133969016697E+03    0.12698E-04   -0.38329E-05  6142   0.434E-02    0.522E-03
DAV:   5    -0.133969017099E+03   -0.40189E-06   -0.20464E-05  4172   0.211E-02    0.576E-03
DAV:   6    -0.133969017059E+03    0.39941E-07   -0.26775E-06  3614   0.660E-03
  22 F= -.13396902E+03 E0= -.13396830E+03  d E =-.233749E-03
       N       E                     dE             d eps       ncg     rms          rms(c)
DAV:   1    -0.133968979347E+03    0.37752E-04   -0.77765E-02  6144   0.117E+00    0.349E-02
DAV:   2    -0.133969105669E+03   -0.12632E-03   -0.15854E-03  7042   0.160E-01    0.212E-02
DAV:   3    -0.133969089414E+03    0.16255E-04   -0.22785E-05  5200   0.331E-02    0.151E-02
DAV:   4    -0.133969071348E+03    0.18066E-04   -0.27654E-05  5776   0.479E-02    0.638E-03
DAV:   5    -0.133969065987E+03    0.53616E-05   -0.25169E-05  5260   0.353E-02    0.609E-03
DAV:   6    -0.133969063476E+03    0.25105E-05   -0.12535E-05  3734   0.194E-02
  23 F= -.13396906E+03 E0= -.13396834E+03  d E =-.280166E-03
       N       E                     dE             d eps       ncg     rms          rms(c)
DAV:   1    -0.133969168553E+03   -0.10257E-03   -0.55104E-02  6552   0.101E+00    0.295E-02
DAV:   2    -0.133969257279E+03   -0.88726E-04   -0.11897E-03  7032   0.146E-01    0.189E-02
DAV:   3    -0.133969240079E+03    0.17200E-04   -0.33779E-05  6100   0.327E-02    0.137E-02
DAV:   4    -0.133969221841E+03    0.18238E-04   -0.83694E-06  4174   0.237E-02    0.812E-03
DAV:   5    -0.133969193465E+03    0.28376E-04   -0.21006E-05  5544   0.506E-02    0.587E-03
DAV:   6    -0.133969172185E+03    0.21281E-04   -0.26645E-05  5670   0.585E-02    0.464E-03
DAV:   7    -0.133969142438E+03    0.29746E-04   -0.24575E-05  5696   0.948E-02    0.956E-03
DAV:   8    -0.133969118926E+03    0.23512E-04   -0.39291E-05  6172   0.887E-02    0.555E-03
DAV:   9    -0.133969113387E+03    0.55391E-05   -0.42182E-05  6362   0.575E-02
  24 F= -.13396911E+03 E0= -.13396839E+03  d E =-.499109E-04
       N       E                     dE             d eps       ncg     rms          rms(c)
DAV:   1    -0.133969098962E+03    0.19964E-04   -0.11542E-02  6868   0.464E-01    0.141E-02
DAV:   2    -0.133969120145E+03   -0.21183E-04   -0.26252E-04  6932   0.666E-02    0.897E-03
DAV:   3    -0.133969117116E+03    0.30294E-05   -0.38522E-06  3788   0.120E-02    0.628E-03
DAV:   4    -0.133969113053E+03    0.40626E-05   -0.68894E-06  4186   0.187E-02    0.238E-03
DAV:   5    -0.133969112672E+03    0.38157E-06   -0.47128E-06  3650   0.105E-02    0.231E-03
DAV:   6    -0.133969112217E+03    0.45505E-06   -0.13960E-06  3572   0.629E-03
  25 F= -.13396911E+03 E0= -.13396838E+03  d E =-.487405E-04
       N       E                     dE             d eps       ncg     rms          rms(c)
DAV:   1    -0.133969112821E+03   -0.14904E-06   -0.31065E-03  6608   0.240E-01    0.759E-03
DAV:   2    -0.133969118628E+03   -0.58070E-05   -0.70964E-05  6396   0.344E-02    0.461E-03
DAV:   3    -0.133969117979E+03    0.64887E-06   -0.16351E-06  3326   0.729E-03    0.317E-03
DAV:   4    -0.133969117518E+03    0.46110E-06   -0.92000E-07  3290   0.608E-03    0.142E-03
DAV:   5    -0.133969117340E+03    0.17779E-06   -0.70087E-07  3400   0.546E-03    0.874E-04
DAV:   6    -0.133969117329E+03    0.10591E-07   -0.44060E-07  3248   0.335E-03
  26 F= -.13396912E+03 E0= -.13396839E+03  d E =-.538532E-04
       N       E                     dE             d eps       ncg     rms          rms(c)
DAV:   1    -0.133969191890E+03   -0.74550E-04   -0.16645E-02  6596   0.552E-01    0.164E-02
DAV:   2    -0.133969214094E+03   -0.22204E-04   -0.35134E-04  6948   0.826E-02    0.111E-02
DAV:   3    -0.133969208833E+03    0.52618E-05   -0.15394E-05  4346   0.223E-02    0.856E-03
DAV:   4    -0.133969204170E+03    0.46630E-05   -0.37147E-06  4026   0.138E-02    0.521E-03
DAV:   5    -0.133969197727E+03    0.64428E-05   -0.89680E-06  4512   0.299E-02    0.367E-03
DAV:   6    -0.133969195534E+03    0.21932E-05   -0.12063E-05  4942   0.327E-02
  27 F= -.13396920E+03 E0= -.13396847E+03  d E =-.782042E-04
