 vasp.5.3.5 31Mar14 (build Apr 08 2024 10:12:10) complex                        
  
 executed on             LinuxIFC date 2024.07.29  11:07:35
 running on    8 total cores
 distrk:  each k-point on    8 cores,    1 groups
 distr:  one band on NCORES_PER_BAND=   4 cores,    2 groups


--------------------------------------------------------------------------------------------------------


 INCAR:
 POTCAR:    PAW_PBE O 08Apr2002                   
 POTCAR:    PAW_PBE Mg 13Apr2007                  
 POTCAR:    PAW_PBE Al 04Jan2001                  
 POTCAR:    PAW_PBE O 08Apr2002                   
   VRHFIN =O: s2p4                                                              
   LEXCH  = PE                                                                  
   EATOM  =   432.3788 eV,   31.7789 Ry                                         
                                                                                
   TITEL  = PAW_PBE O 08Apr2002                                                 
   LULTRA =        F    use ultrasoft PP ?                                      
   IUNSCR =        1    unscreen: 0-lin 1-nonlin 2-no                           
   RPACOR =    1.200    partial core radius                                     
   POMASS =   16.000; ZVAL   =    6.000    mass and valenz                      
   RCORE  =    1.520    outmost cutoff radius                                   
   RWIGS  =    1.550; RWIGS  =    0.820    wigner-seitz radius (au A)           
   ENMAX  =  400.000; ENMIN  =  300.000 eV                                      
   ICORE  =        2    local potential                                         
   LCOR   =        T    correct aug charges                                     
   LPAW   =        T    paw PP                                                  
   EAUG   =  605.392                                                            
   DEXC   =    0.000                                                            
   RMAX   =    1.553    core radius for proj-oper                               
   RAUG   =    1.300    factor for augmentation sphere                          
   RDEP   =    1.550    radius for radial grids                                 
   RDEPT  =    1.329    core radius for aug-charge                              
                                                                                
   Atomic configuration                                                         
    4 entries                                                                   
     n  l   j            E        occ.                                          
     1  0  0.50      -514.6923   2.0000                                         
     2  0  0.50       -23.9615   2.0000                                         
     2  1  0.50        -9.0305   4.0000                                         
     3  2  1.50        -9.5241   0.0000                                         
   Description                                                                  
     l       E           TYP  RCUT    TYP  RCUT                                 
     0    -23.9615318     23  1.200                                             
     0     -9.5240782     23  1.200                                             
     1     -9.0304911     23  1.520                                             
     1      8.1634956     23  1.520                                             
     2     -9.5240782      7  1.500                                             
  local pseudopotential read in
  partial core-charges read in
  partial kinetic energy density read in
  kinetic energy density of atom read in
  atomic valenz-charges read in
  non local Contribution for L=           0  read in
    real space projection operators read in
  non local Contribution for L=           0  read in
    real space projection operators read in
  non local Contribution for L=           1  read in
    real space projection operators read in
  non local Contribution for L=           1  read in
    real space projection operators read in
    PAW grid and wavefunctions read in
 
   number of l-projection  operators is LMAX  =           4
   number of lm-projection operators is LMMAX =           8
 
 POTCAR:    PAW_PBE Mg 13Apr2007                  
   VRHFIN =Mg: s2p0                                                             
   LEXCH  = PE                                                                  
   EATOM  =    23.0369 eV,    1.6932 Ry                                         
                                                                                
   TITEL  = PAW_PBE Mg 13Apr2007                                                
   LULTRA =        F    use ultrasoft PP ?                                      
   IUNSCR =        1    unscreen: 0-lin 1-nonlin 2-no                           
   RPACOR =    1.500    partial core radius                                     
   POMASS =   24.305; ZVAL   =    2.000    mass and valenz                      
   RCORE  =    2.000    outmost cutoff radius                                   
   RWIGS  =    2.880; RWIGS  =    1.524    wigner-seitz radius (au A)           
   ENMAX  =  200.000; ENMIN  =  100.000 eV                                      
   RCLOC  =    1.506    cutoff for local pot                                    
   LCOR   =        T    correct aug charges                                     
   LPAW   =        T    paw PP                                                  
   EAUG   =  454.734                                                            
   DEXC   =    0.000                                                            
   RMAX   =    2.045    core radius for proj-oper                               
   RAUG   =    1.300    factor for augmentation sphere                          
   RDEP   =    2.025    radius for radial grids                                 
   RDEPT  =    1.942    core radius for aug-charge                              
                                                                                
   Atomic configuration                                                         
    6 entries                                                                   
     n  l   j            E        occ.                                          
     1  0  0.50     -1259.6230   2.0000                                         
     2  0  0.50       -79.8442   2.0000                                         
     2  1  1.50       -46.6121   6.0000                                         
     3  0  0.50        -4.7055   2.0000                                         
     3  1  0.50        -1.3660   0.0000                                         
     3  2  1.50        -1.3606   0.0000                                         
   Description                                                                  
     l       E           TYP  RCUT    TYP  RCUT                                 
     0     -4.7054661     23  2.000                                             
     0     27.2116520     23  2.000                                             
     1      1.3605826     23  2.000                                             
     1     27.2116520     23  2.000                                             
     2     -1.3605826     23  2.000                                             
  local pseudopotential read in
  partial core-charges read in
  partial kinetic energy density read in
  atomic valenz-charges read in
  non local Contribution for L=           0  read in
    real space projection operators read in
  non local Contribution for L=           0  read in
    real space projection operators read in
  non local Contribution for L=           1  read in
    real space projection operators read in
  non local Contribution for L=           1  read in
    real space projection operators read in
  non local Contribution for L=           2  read in
    real space projection operators read in
    PAW grid and wavefunctions read in
 
   number of l-projection  operators is LMAX  =           5
   number of lm-projection operators is LMMAX =          13
 
 POTCAR:    PAW_PBE Al 04Jan2001                  
   VRHFIN =Al: s2p1                                                             
   LEXCH  = PE                                                                  
   EATOM  =    53.5387 eV,    3.9350 Ry                                         
                                                                                
   TITEL  = PAW_PBE Al 04Jan2001                                                
   LULTRA =        F    use ultrasoft PP ?                                      
   IUNSCR =        1    unscreen: 0-lin 1-nonlin 2-no                           
   RPACOR =    1.500    partial core radius                                     
   POMASS =   26.981; ZVAL   =    3.000    mass and valenz                      
   RCORE  =    1.900    outmost cutoff radius                                   
   RWIGS  =    2.650; RWIGS  =    1.402    wigner-seitz radius (au A)           
   ENMAX  =  240.300; ENMIN  =  180.225 eV                                      
   ICORE  =        2    local potential                                         
   LCOR   =        T    correct aug charges                                     
   LPAW   =        T    paw PP                                                  
   EAUG   =  291.052                                                            
   DEXC   =    0.000                                                            
   RMAX   =    1.939    core radius for proj-oper                               
   RAUG   =    1.300    factor for augmentation sphere                          
   RDEP   =    1.966    radius for radial grids                                 
   RDEPT  =    1.856    core radius for aug-charge                              
                                                                                
   Atomic configuration                                                         
    6 entries                                                                   
     n  l   j            E        occ.                                          
     1  0  0.50     -1511.1048   2.0000                                         
     2  0  0.50      -108.1629   2.0000                                         
     2  1  1.50       -69.6402   6.0000                                         
     3  0  0.50        -7.7528   2.0000                                         
     3  1  1.50        -2.7121   1.0000                                         
     3  2  2.50        -2.7212   0.0000                                         
   Description                                                                  
     l       E           TYP  RCUT    TYP  RCUT                                 
     0     -7.7528455     23  1.900                                             
     0     -3.3096929     23  1.900                                             
     1     -2.7120682     23  1.900                                             
     1     13.6058260     23  1.900                                             
     2     -2.7211652      7  1.900                                             
  local pseudopotential read in
  partial core-charges read in
  partial kinetic energy density read in
  atomic valenz-charges read in
  non local Contribution for L=           0  read in
    real space projection operators read in
  non local Contribution for L=           0  read in
    real space projection operators read in
  non local Contribution for L=           1  read in
    real space projection operators read in
  non local Contribution for L=           1  read in
    real space projection operators read in
    PAW grid and wavefunctions read in
 
   number of l-projection  operators is LMAX  =           4
   number of lm-projection operators is LMMAX =           8
 

 ----------------------------------------------------------------------------- 
|                                                                             |
|  ADVICE TO THIS USER RUNNING 'VASP/VAMP'   (HEAR YOUR MASTER'S VOICE ...):  |
|                                                                             |
|      You have a (more or less) 'large supercell' and for larger cells       |
|      it might be more efficient to use real space projection opertators     |
|      So try LREAL= Auto  in the INCAR   file.                               |
|      Mind: At the moment your POTCAR file does not contain real space       |
|       projectors, and has to be modified,  BUT if you                       |
|      want to do an extremely  accurate calculation you might also keep the  |
|      reciprocal projection scheme          (i.e. LREAL=.FALSE.)             |
|                                                                             |
 ----------------------------------------------------------------------------- 

  PAW_PBE O 08Apr2002                   :
 energy of atom  1       EATOM= -432.3788
 kinetic energy error for atom=    0.0208 (will be added to EATOM!!)
  PAW_PBE Mg 13Apr2007                  :
 energy of atom  2       EATOM=  -23.0369
 kinetic energy error for atom=    0.0000 (will be added to EATOM!!)
  PAW_PBE Al 04Jan2001                  :
 energy of atom  3       EATOM=  -53.5387
 kinetic energy error for atom=    0.0002 (will be added to EATOM!!)
 
 
 POSCAR: Layer                                   
  positions in direct lattice
  velocities in cartesian coordinates
 exchange correlation table for  LEXCH =        8
   RHO(1)=    0.500       N(1)  =     2000
   RHO(2)=  100.500       N(2)  =     4000
 


--------------------------------------------------------------------------------------------------------


 ion  position               nearest neighbor table
   1  0.553  0.447  0.345-  15 2.13  14 2.13  15 2.14  15 2.14  14 2.14  14 2.14
   2  0.500  0.500  0.526-  17 2.13  16 2.13  16 2.14  16 2.14  17 2.14  17 2.14
   3  0.447  0.553  0.707-  18 2.13  19 2.13  18 2.14  18 2.14  19 2.14  19 2.14
   4  0.239  0.761  0.284-  14 2.13  14 2.14  14 2.14  10 2.15  10 2.15  10 2.15
   5  0.868  0.132  0.405-  11 2.13  15 2.13  15 2.14  15 2.14  11 2.14  11 2.14
   6  0.184  0.816  0.465-  16 2.13  11 2.13  16 2.14  16 2.14  11 2.14  11 2.14
   7  0.816  0.184  0.586-  12 2.13  17 2.13  12 2.14  12 2.14  17 2.14  17 2.14
   8  0.132  0.868  0.647-  12 2.13  18 2.13  18 2.14  18 2.14  12 2.14  12 2.14
   9  0.761  0.239  0.767-  19 2.13  19 2.14  19 2.14  13 2.15  13 2.15  13 2.15
  10  0.582  0.418  0.253-   4 2.15   4 2.15   4 2.15  21 3.02  21 3.02  21 3.03  14 3.07  14 3.07
                            14 3.07
  11  0.526  0.474  0.435-   5 2.13   6 2.13   5 2.14   5 2.14   6 2.14   6 2.14  16 3.04  16 3.04
                            15 3.04  15 3.04  15 3.05  16 3.05
  12  0.474  0.526  0.616-   7 2.13   8 2.13   8 2.14   8 2.14   7 2.14   7 2.14  17 3.04  17 3.04
                            18 3.04  18 3.04  18 3.05  17 3.05
  13  0.418  0.582  0.798-   9 2.15   9 2.15   9 2.15  24 3.02  24 3.02  24 3.03  19 3.07  19 3.07
                            19 3.07
  14  0.896  0.104  0.314-   4 2.13   1 2.13   4 2.14   4 2.14   1 2.14   1 2.14  15 3.04  15 3.04
                            15 3.05  10 3.07  10 3.07  10 3.07
  15  0.211  0.789  0.375-   5 2.13   1 2.13   5 2.14   5 2.14   1 2.14   1 2.14  11 3.04  11 3.04
                            14 3.04  14 3.04  11 3.05  14 3.05
  16  0.842  0.158  0.496-   6 2.13   2 2.13   2 2.14   2 2.14   6 2.14   6 2.14  11 3.04  11 3.04
                            17 3.04  17 3.04  17 3.05  11 3.05
  17  0.158  0.842  0.556-   7 2.13   2 2.13   2 2.14   2 2.14   7 2.14   7 2.14  12 3.04  12 3.04
                            16 3.04  16 3.04  16 3.05  12 3.05
  18  0.789  0.211  0.677-   8 2.13   3 2.13   8 2.14   8 2.14   3 2.14   3 2.14  12 3.04  12 3.04
                            19 3.04  19 3.04  12 3.05  19 3.05
  19  0.104  0.896  0.737-   9 2.13   3 2.13   9 2.14   9 2.14   3 2.14   3 2.14  18 3.04  18 3.04
                            18 3.05  13 3.07  13 3.07  13 3.07
  20  1.000  0.000  0.026-  23 2.87  25 2.87  23 2.89  23 2.89  25 2.89  25 2.89
  21  0.937  0.063  0.193-  22 2.88  22 2.89  22 2.89  10 3.02  10 3.02  10 3.03
  22  0.623  0.377  0.138-  21 2.88  21 2.89  21 2.89  23 2.90  23 2.91  23 2.91
  23  0.311  0.689  0.081-  20 2.87  20 2.89  20 2.89  22 2.90  22 2.91  22 2.91
  24  0.063  0.937  0.858-  26 2.88  26 2.89  26 2.89  13 3.02  13 3.02  13 3.03
  25  0.689  0.311  0.970-  20 2.87  20 2.89  20 2.89  26 2.90  26 2.91  26 2.91
  26  0.376  0.624  0.914-  24 2.88  24 2.89  24 2.89  25 2.90  25 2.91  25 2.91
 
  LATTYP: Found a base centered monoclinic cell.
 ALAT       =     5.1835214829
 B/A-ratio  =     0.5778353023
 C/A-ratio  =     8.1758948150
 COS(beta)  =    -0.1781203038
  
  Lattice vectors:
  
 A1 = (  -2.5925900058,   1.4952752266,  -0.0518951648)
 A2 = (   0.0013482762,   2.9928857368,  -0.0518951490)
 A3 = (   4.7735158528,  -8.2679694689, -41.2905847652)


Analysis of symmetry for initial positions (statically):
=====================================================================
 Subroutine PRICEL returns:
 Original cell was already a primitive cell.
 

 Routine SETGRP: Setting up the symmetry group for a 
 base centered monoclinic supercell.


 Subroutine GETGRP returns: Found  2 space group operations
 (whereof  2 operations were pure point group operations)
 out of a pool of  4 trial point group operations.


The static configuration has the point symmetry C_1h.


Analysis of symmetry for dynamics (positions and initial velocities):
=====================================================================
 Subroutine PRICEL returns:
 Original cell was already a primitive cell.
 

 Routine SETGRP: Setting up the symmetry group for a 
 base centered monoclinic supercell.


 Subroutine GETGRP returns: Found  2 space group operations
 (whereof  2 operations were pure point group operations)
 out of a pool of  4 trial point group operations.


The dynamic configuration has the point symmetry C_1h.


Analysis of constrained symmetry for selective dynamics:
=====================================================================
 Subroutine PRICEL returns:
 Original cell was already a primitive cell.
 

 Routine SETGRP: Setting up the symmetry group for a 
 base centered monoclinic supercell.


 Subroutine GETGRP returns: Found  2 space group operations
 (whereof  2 operations were pure point group operations)
 out of a pool of  4 trial point group operations.


The constrained configuration has the point symmetry C_1h.
 
 
 KPOINTS: K-Spacing Value to Generate K-Mesh: 0.02

Automatic generation of k-mesh.
Space group operators:
 irot       det(A)        alpha          n_x          n_y          n_z        tau_x        tau_y        tau_z
    1     1.000000     0.000000     1.000000     0.000000     0.000000     0.000000     0.000000     0.000000
    2    -1.000000   180.000000     0.866025     0.500000     0.000000     0.000000     0.000000     0.000000
 
 Subroutine IBZKPT returns following result:
 ===========================================
 
 Found     49 irreducible k-points:
 
 Following reciprocal coordinates:
            Coordinates               Weight
  0.000000  0.000000  0.000000      1.000000
  0.076923  0.000000  0.000000      4.000000
  0.153846 -0.000000  0.000000      4.000000
  0.230769 -0.000000 -0.000000      4.000000
  0.307692  0.000000 -0.000000      4.000000
  0.384615 -0.000000  0.000000      4.000000
  0.461538 -0.000000 -0.000000      4.000000
  0.076923  0.076923 -0.000000      2.000000
  0.153846  0.076923  0.000000      4.000000
  0.230769  0.076923  0.000000      4.000000
  0.307692  0.076923 -0.000000      4.000000
  0.384615  0.076923  0.000000      4.000000
  0.461538  0.076923 -0.000000      4.000000
 -0.461538  0.076923  0.000000      4.000000
 -0.384615  0.076923 -0.000000      4.000000
 -0.307692  0.076923  0.000000      4.000000
 -0.230769  0.076923  0.000000      4.000000
 -0.153846  0.076923  0.000000      4.000000
 -0.076923  0.076923 -0.000000      2.000000
  0.153846  0.153846 -0.000000      2.000000
  0.230769  0.153846 -0.000000      4.000000
  0.307692  0.153846 -0.000000      4.000000
  0.384615  0.153846  0.000000      4.000000
  0.461538  0.153846 -0.000000      4.000000
 -0.461538  0.153846  0.000000      4.000000
 -0.384615  0.153846 -0.000000      4.000000
 -0.307692  0.153846 -0.000000      4.000000
 -0.230769  0.153846 -0.000000      4.000000
 -0.153846  0.153846 -0.000000      2.000000
  0.230769  0.230769 -0.000000      2.000000
  0.307692  0.230769 -0.000000      4.000000
  0.384615  0.230769  0.000000      4.000000
  0.461538  0.230769 -0.000000      4.000000
 -0.461538  0.230769  0.000000      4.000000
 -0.384615  0.230769 -0.000000      4.000000
 -0.307692  0.230769  0.000000      4.000000
 -0.230769  0.230769  0.000000      2.000000
  0.307692  0.307692 -0.000000      2.000000
  0.384615  0.307692 -0.000000      4.000000
  0.461538  0.307692 -0.000000      4.000000
 -0.461538  0.307692  0.000000      4.000000
 -0.384615  0.307692 -0.000000      4.000000
 -0.307692  0.307692  0.000000      2.000000
  0.384615  0.384615  0.000000      2.000000
  0.461538  0.384615 -0.000000      4.000000
 -0.461538  0.384615  0.000000      4.000000
 -0.384615  0.384615 -0.000000      2.000000
  0.461538  0.461538 -0.000000      2.000000
 -0.461538  0.461538  0.000000      2.000000
 
 Following cartesian coordinates:
            Coordinates               Weight
  0.000000  0.000000  0.000000      1.000000
  0.029666 -0.000018 -0.000293      4.000000
  0.059331 -0.000037 -0.000585      4.000000
  0.088997 -0.000055 -0.000878      4.000000
  0.118662 -0.000074 -0.001171      4.000000
  0.148328 -0.000092 -0.001463      4.000000
  0.177993 -0.000111 -0.001756      4.000000
  0.044482  0.025682  0.000000      2.000000
  0.074148  0.025663 -0.000293      4.000000
  0.103814  0.025645 -0.000585      4.000000
  0.133479  0.025627 -0.000878      4.000000
  0.163145  0.025608 -0.001171      4.000000
  0.192810  0.025590 -0.001463      4.000000
 -0.163177  0.025811  0.002049      4.000000
 -0.133511  0.025793  0.001756      4.000000
 -0.103846  0.025774  0.001463      4.000000
 -0.074180  0.025756  0.001171      4.000000
 -0.044514  0.025737  0.000878      4.000000
 -0.014849  0.025719  0.000585      2.000000
  0.088965  0.051364  0.000000      2.000000
  0.118630  0.051345 -0.000293      4.000000
  0.148296  0.051327 -0.000585      4.000000
  0.177962  0.051309 -0.000878      4.000000
  0.207627  0.051290 -0.001171      4.000000
 -0.148360  0.051511  0.002341      4.000000
 -0.118694  0.051493  0.002049      4.000000
 -0.089029  0.051475  0.001756      4.000000
 -0.059363  0.051456  0.001463      4.000000
 -0.029698  0.051438  0.001171      2.000000
  0.133447  0.077046  0.000000      2.000000
  0.163113  0.077027 -0.000293      4.000000
  0.192778  0.077009 -0.000585      4.000000
  0.222444  0.076990 -0.000878      4.000000
 -0.133543  0.077212  0.002634      4.000000
 -0.103877  0.077193  0.002341      4.000000
 -0.074212  0.077175  0.002049      4.000000
 -0.044546  0.077156  0.001756      2.000000
  0.177930  0.102728  0.000000      2.000000
  0.207595  0.102709 -0.000293      4.000000
  0.237261  0.102691 -0.000585      4.000000
 -0.118726  0.102912  0.002927      4.000000
 -0.089061  0.102894  0.002634      4.000000
 -0.059395  0.102875  0.002341      2.000000
  0.222412  0.128410  0.000000      2.000000
  0.252078  0.128391 -0.000293      4.000000
 -0.103909  0.128613  0.003219      4.000000
 -0.074244  0.128594  0.002927      2.000000
  0.266894  0.154092  0.000000      2.000000
 -0.089093  0.154313  0.003512      2.000000
 


--------------------------------------------------------------------------------------------------------




 Dimension of arrays:
   k-points           NKPTS =     49   k-points in BZ     NKDIM =     49   number of bands    NBANDS=     62
   number of dos      NEDOS =    301   number of ions     NIONS =     26
   non local maximal  LDIM  =      5   non local SUM 2l+1 LMDIM =     13
   total plane-waves  NPLWV = 184320
   max r-space proj   IRMAX =      1   max aug-charges    IRDMAX= 194736
   dimension x,y,z NGX =    24 NGY =   24 NGZ =  320
   dimension x,y,z NGXF=    48 NGYF=   48 NGZF=  640
   support grid    NGXF=    96 NGYF=   96 NGZF= 1280
   ions per type =               9  10   7
 NGX,Y,Z   is equivalent  to a cutoff of  13.33, 13.33, 12.82 a.u.
 NGXF,Y,Z  is equivalent  to a cutoff of  26.66, 26.66, 25.63 a.u.


 I would recommend the setting:
   dimension x,y,z NGX =    22 NGY =   22 NGZ =  309
 SYSTEM =  unknown system                          
 POSCAR =  Layer                                   

 Startparameter for this run:
   NWRITE =      2    write-flag & timer
   PREC   = accura    normal or accurate (medium, high low for compatibility)
   ISTART =      0    job   : 0-new  1-cont  2-samecut
   ICHARG =      2    charge: 1-file 2-atom 10-const
   ISPIN  =      1    spin polarized calculation?
   LNONCOLLINEAR =      F non collinear calculations
   LSORBIT =      F    spin-orbit coupling
   INIWAV =      1    electr: 0-lowe 1-rand  2-diag
   LASPH  =      F    aspherical Exc in radial PAW
   METAGGA=      F    non-selfconsistent MetaGGA calc.

 Electronic Relaxation 1
   ENCUT  =  520.0 eV  38.22 Ry    6.18 a.u.   5.57  5.57 77.17*2*pi/ulx,y,z
   ENINI  =  520.0     initial cutoff
   ENAUG  =  605.4 eV  augmentation charge cutoff
   NELM   =    100;   NELMIN=  6; NELMDL=  0     # of ELM steps 
   EDIFF  = 0.1E-04   stopping-criterion for ELM
   LREAL  =      F    real-space projection
   NLSPLINE    = F    spline interpolate recip. space projectors
   LCOMPAT=      F    compatible to vasp.4.4
   GGA_COMPAT  = T    GGA compatible to vasp.4.4-vasp.4.6
   LMAXPAW     = -100 max onsite density
   LMAXMIX     =    2 max onsite mixed and CHGCAR
   VOSKOWN=      0    Vosko Wilk Nusair interpolation
   ROPT   =    0.00000   0.00000   0.00000
 Ionic relaxation
   EDIFFG = -.2E-01   stopping-criterion for IOM
   NSW    =    500    number of steps for IOM
   NBLOCK =      1;   KBLOCK =    500    inner block; outer block 
   IBRION =      2    ionic relax: 0-MD 1-quasi-New 2-CG
   NFREE  =      1    steps in history (QN), initial steepest desc. (CG)
   ISIF   =      2    stress and relaxation
   IWAVPR =     11    prediction:  0-non 1-charg 2-wave 3-comb
   ISYM   =      2    0-nonsym 1-usesym 2-fastsym
   LCORR  =      T    Harris-Foulkes like correction to forces

   POTIM  = 0.5000    time-step for ionic-motion
   TEIN   =    0.0    initial temperature
   TEBEG  =    0.0;   TEEND  =   0.0 temperature during run
   SMASS  =  -3.00    Nose mass-parameter (am)
   estimated Nose-frequenzy (Omega)   =  0.10E-29 period in steps =****** mass=  -0.205E-27a.u.
   SCALEE = 1.0000    scale energy and forces
   NPACO  =    256;   APACO  = 16.0  distance and # of slots for P.C.
   PSTRESS=    0.0 pullay stress

  Mass of Ions in am
   POMASS =  16.00 24.30 26.98
  Ionic Valenz
   ZVAL   =   6.00  2.00  3.00
  Atomic Wigner-Seitz radii
   RWIGS  =  -1.00 -1.00 -1.00
  virtual crystal weights 
   VCA    =   1.00  1.00  1.00
   NELECT =      95.0000    total number of electrons
   NUPDOWN=      -1.0000    fix difference up-down

 DOS related values:
   EMIN   =  10.00;   EMAX   =-10.00  energy-range for DOS
   EFERMI =   0.00
   ISMEAR =     0;   SIGMA  =   0.05  broadening in eV -4-tet -1-fermi 0-gaus

 Electronic relaxation 2 (details)
   IALGO  =     38    algorithm
   LDIAG  =      T    sub-space diagonalisation (order eigenvalues)
   LSUBROT=      F    optimize rotation matrix (better conditioning)
   TURBO    =      0    0=normal 1=particle mesh
   IRESTART =      0    0=no restart 2=restart with 2 vectors
   NREBOOT  =      0    no. of reboots
   NMIN     =      0    reboot dimension
   EREF     =   0.00    reference energy to select bands
   IMIX   =      4    mixing-type and parameters
     AMIX     =   0.40;   BMIX     =  1.00
     AMIX_MAG =   1.60;   BMIX_MAG =  1.00
     AMIN     =   0.01
     WC   =   100.;   INIMIX=   1;  MIXPRE=   1;  MAXMIX= -45

 Intra band minimization:
   WEIMIN = 0.0010     energy-eigenvalue tresh-hold
   EBREAK =  0.40E-07  absolut break condition
   DEPER  =   0.30     relativ break condition  

   TIME   =   0.40     timestep for ELM

  volume/ion in A,a.u.               =      12.38        83.56
  Fermi-wavevector in a.u.,A,eV,Ry     =   1.089895  2.059603 16.161965  1.187871
  Thomas-Fermi vector in A             =   2.226108
 
 Write flags
   LWAVE  =      F    write WAVECAR
   LCHARG =      T    write CHGCAR
   LVTOT  =      F    write LOCPOT, total local potential
   LVHAR  =      F    write LOCPOT, Hartree potential only
   LELF   =      F    write electronic localiz. function (ELF)
   LORBIT =      0    0 simple, 1 ext, 2 COOP (PROOUT)


 Dipole corrections
   LMONO  =      F    monopole corrections only (constant potential shift)
   LDIPOL =      F    correct potential (dipole corrections)
   IDIPOL =      0    1-x, 2-y, 3-z, 4-all directions 
   EPSILON=  1.0000000 bulk dielectric constant

 Exchange correlation treatment:
   GGA     =    --    GGA type
   LEXCH   =     8    internal setting for exchange type
   VOSKOWN=      0    Vosko Wilk Nusair interpolation
   LHFCALC =     F    Hartree Fock is set to
   LHFONE  =     F    Hartree Fock one center treatment
   AEXX    =    0.0000 exact exchange contribution

 Linear response parameters
   LEPSILON=     F    determine dielectric tensor
   LRPA    =     F    only Hartree local field effects (RPA)
   LNABLA  =     F    use nabla operator in PAW spheres
   LVEL    =     F    velocity operator in full k-point grid
   LINTERFAST=   F  fast interpolation
   KINTER  =     0    interpolate to denser k-point grid
   CSHIFT  =0.1000    complex shift for real part using Kramers Kronig
   OMEGAMAX=  -1.0    maximum frequency
   DEG_THRESHOLD= 0.2000000E-02 threshold for treating states as degnerate
   RTIME   =    0.100 relaxation time in fs

 Orbital magnetization related:
   ORBITALMAG=     F  switch on orbital magnetization
   LCHIMAG   =     F  perturbation theory with respect to B field
   DQ        =  0.001000  dq finite difference perturbation B field



--------------------------------------------------------------------------------------------------------


 conjugate gradient relaxation of ions
   using selective dynamics as specified on POSCAR
 charge density and potential will be updated during run
 non-spin polarized calculation
 Variant of blocked Davidson
 Davidson routine will perform the subspace rotation
 perform sub-space diagonalisation
    after iterative eigenvector-optimisation
 modified Broyden-mixing scheme, WC =      100.0
 initial mixing is a Kerker type mixing with AMIX =  0.4000 and BMIX =      1.0000
 Hartree-type preconditioning will be used
 using additional bands           14
 reciprocal scheme for non local part
 use partial core corrections
 calculate Harris-corrections to forces 
   (improved forces if not selfconsistent)
 use gradient corrections 
 use of overlap-Matrix (Vanderbilt PP)
 Gauss-broadening in eV      SIGMA  =   0.05


--------------------------------------------------------------------------------------------------------


  energy-cutoff  :      520.00
  volume of cell :      321.95
      direct lattice vectors                 reciprocal lattice vectors
     2.592590006 -1.495275227  0.051895165     0.385652578 -0.000239706 -0.003804727
     0.001348276  2.992885737 -0.051895149     0.192618697  0.334104885  0.003804727
     0.408967606 -0.708352458 41.498165393    -0.000241397  0.000418112  0.024106967

  length of vectors
     2.993336608  2.993335925 41.506225421     0.385671421  0.385671509  0.024111801


 
 k-points in units of 2pi/SCALE and weight: K-Spacing Value to Generate K-Mesh: 0.02
   0.00000000  0.00000000  0.00000000       0.006
   0.02966558 -0.00001844 -0.00029267       0.024
   0.05933117 -0.00003688 -0.00058534       0.024
   0.08899675 -0.00005532 -0.00087801       0.024
   0.11866233 -0.00007376 -0.00117069       0.024
   0.14832791 -0.00009219 -0.00146336       0.024
   0.17799350 -0.00011063 -0.00175603       0.024
   0.04448241  0.02568194  0.00000000       0.012
   0.07414799  0.02566350 -0.00029267       0.024
   0.10381357  0.02564506 -0.00058534       0.024
   0.13347915  0.02562662 -0.00087801       0.024
   0.16314474  0.02560818 -0.00117069       0.024
   0.19281032  0.02558974 -0.00146336       0.024
  -0.16317667  0.02581101  0.00204870       0.024
  -0.13351109  0.02579257  0.00175603       0.024
  -0.10384551  0.02577413  0.00146336       0.024
  -0.07417993  0.02575569  0.00117069       0.024
  -0.04451434  0.02573725  0.00087801       0.024
  -0.01484876  0.02571881  0.00058534       0.012
   0.08896481  0.05136387  0.00000000       0.012
   0.11863039  0.05134543 -0.00029267       0.024
   0.14829598  0.05132700 -0.00058534       0.024
   0.17796156  0.05130856 -0.00087801       0.024
   0.20762714  0.05129012 -0.00117069       0.024
  -0.14835985  0.05151139  0.00234137       0.024
  -0.11869427  0.05149295  0.00204870       0.024
  -0.08902869  0.05147451  0.00175603       0.024
  -0.05936310  0.05145607  0.00146336       0.024
  -0.02969752  0.05143763  0.00117069       0.012
   0.13344722  0.07704581  0.00000000       0.012
   0.16311280  0.07702737 -0.00029267       0.024
   0.19277838  0.07700893 -0.00058534       0.024
   0.22244397  0.07699049 -0.00087801       0.024
  -0.13354303  0.07721176  0.00263404       0.024
  -0.10387745  0.07719332  0.00234137       0.024
  -0.07421186  0.07717488  0.00204870       0.024
  -0.04454628  0.07715644  0.00175603       0.012
   0.17792962  0.10272775  0.00000000       0.012
   0.20759521  0.10270931 -0.00029267       0.024
   0.23726079  0.10269087 -0.00058534       0.024
  -0.11872621  0.10291214  0.00292671       0.024
  -0.08906062  0.10289370  0.00263404       0.024
  -0.05939504  0.10287526  0.00234137       0.012
   0.22241203  0.12840968  0.00000000       0.012
   0.25207761  0.12839125 -0.00029267       0.024
  -0.10390938  0.12861251  0.00321938       0.024
  -0.07424380  0.12859407  0.00292671       0.012
   0.26689444  0.15409162  0.00000000       0.012
  -0.08909256  0.15431289  0.00351206       0.012
 
 k-points in reciprocal lattice and weights: K-Spacing Value to Generate K-Mesh: 0.02
   0.00000000  0.00000000  0.00000000       0.006
   0.07692308  0.00000000  0.00000000       0.024
   0.15384615 -0.00000000  0.00000000       0.024
   0.23076923 -0.00000000 -0.00000000       0.024
   0.30769231  0.00000000 -0.00000000       0.024
   0.38461538 -0.00000000  0.00000000       0.024
   0.46153846 -0.00000000 -0.00000000       0.024
   0.07692308  0.07692308 -0.00000000       0.012
   0.15384615  0.07692308  0.00000000       0.024
   0.23076923  0.07692308  0.00000000       0.024
   0.30769231  0.07692308 -0.00000000       0.024
   0.38461538  0.07692308  0.00000000       0.024
   0.46153846  0.07692308 -0.00000000       0.024
  -0.46153846  0.07692308  0.00000000       0.024
  -0.38461538  0.07692308 -0.00000000       0.024
  -0.30769231  0.07692308  0.00000000       0.024
  -0.23076923  0.07692308  0.00000000       0.024
  -0.15384615  0.07692308  0.00000000       0.024
  -0.07692308  0.07692308 -0.00000000       0.012
   0.15384615  0.15384615 -0.00000000       0.012
   0.23076923  0.15384615 -0.00000000       0.024
   0.30769231  0.15384615 -0.00000000       0.024
   0.38461538  0.15384615  0.00000000       0.024
   0.46153846  0.15384615 -0.00000000       0.024
  -0.46153846  0.15384615  0.00000000       0.024
  -0.38461538  0.15384615 -0.00000000       0.024
  -0.30769231  0.15384615 -0.00000000       0.024
  -0.23076923  0.15384615 -0.00000000       0.024
  -0.15384615  0.15384615 -0.00000000       0.012
   0.23076923  0.23076923 -0.00000000       0.012
   0.30769231  0.23076923 -0.00000000       0.024
   0.38461538  0.23076923  0.00000000       0.024
   0.46153846  0.23076923 -0.00000000       0.024
  -0.46153846  0.23076923  0.00000000       0.024
  -0.38461538  0.23076923 -0.00000000       0.024
  -0.30769231  0.23076923  0.00000000       0.024
  -0.23076923  0.23076923  0.00000000       0.012
   0.30769231  0.30769231 -0.00000000       0.012
   0.38461538  0.30769231 -0.00000000       0.024
   0.46153846  0.30769231 -0.00000000       0.024
  -0.46153846  0.30769231  0.00000000       0.024
  -0.38461538  0.30769231 -0.00000000       0.024
  -0.30769231  0.30769231  0.00000000       0.012
   0.38461538  0.38461538  0.00000000       0.012
   0.46153846  0.38461538 -0.00000000       0.024
  -0.46153846  0.38461538  0.00000000       0.024
  -0.38461538  0.38461538 -0.00000000       0.012
   0.46153846  0.46153846 -0.00000000       0.012
  -0.46153846  0.46153846  0.00000000       0.012
 
 position of ions in fractional coordinates (direct lattice) 
   0.55324121  0.44675879  0.34463594
   0.50008494  0.49991506  0.52578936
   0.44682356  0.55317644  0.70694052
   0.23858954  0.76141046  0.28420693
   0.86844854  0.13155146  0.40504862
   0.18430705  0.81569295  0.46542234
   0.81586947  0.18413053  0.58616040
   0.13163015  0.86836985  0.64652884
   0.76146287  0.23853713  0.76736685
   0.58170553  0.41829447  0.25331105
   0.52636036  0.47363964  0.43523028
   0.47377857  0.52622143  0.61634240
   0.41833915  0.58166085  0.79827427
   0.89584312  0.10415688  0.31439969
   0.21070834  0.78929166  0.37485997
   0.84222708  0.15777292  0.49560429
   0.15796408  0.84203592  0.55597563
   0.78934394  0.21065606  0.67672017
   0.10422031  0.89577969  0.73717946
   0.99976788  0.00023212  0.02578959
   0.93691118  0.06308882  0.19344116
   0.62345231  0.37654769  0.13778106
   0.31100938  0.68899062  0.08147822
   0.06302787  0.93697213  0.85814475
   0.68859471  0.31140529  0.97009398
   0.37628886  0.62371114  0.91378924
 
 position of ions in cartesian coordinates  (Angst):
   1.57587491  0.26572644 14.30728522
   1.51222006  0.37597984 21.81930279
   1.44829190  0.48670663 29.33121539
   0.73582286  1.72073882 11.76693424
   2.41736013 -1.19176827 16.84701608
   0.66927507  1.83600295 19.28140756
   2.35518391 -1.08407593 24.35736553
   0.60684316  1.94413816 26.79152733
   2.28831083 -0.96824839 31.87145365
   1.61228394  0.20266416 10.52042422
   1.54327030  0.32219927 18.06399411
   1.48108714  0.42990362 25.57435714
   1.41183446  0.54985274 33.11844192
   2.45127365 -1.25050819 13.08809510
   0.70065009  1.78165983 15.52597537
   2.38644834 -1.13822750 20.60218854
   0.63804740  1.89009084 23.03646873
   2.32348587 -1.02917333 28.11267647
   0.57289080  2.00294534 30.55051716
   2.60253564 -1.51250157  1.12209163
   2.50822280 -1.34914698  8.07280048
   1.67321191  0.09713386  5.73047429
   0.84057072  1.53931026  3.36158115
   0.51562212  2.10213758 35.56607930
   2.18240063 -0.78480661 40.27669456
   1.35011388  0.65675590 37.90773716
 


--------------------------------------------------------------------------------------------------------


 k-point  1 :   0.0000 0.0000 0.0000  plane waves:    8783
 k-point  2 :   0.0769 0.0000 0.0000  plane waves:    8781
 k-point  3 :   0.1538-0.0000 0.0000  plane waves:    8764
 k-point  4 :   0.2308-0.0000-0.0000  plane waves:    8722
 k-point  5 :   0.3077 0.0000-0.0000  plane waves:    8674
 k-point  6 :   0.3846-0.0000 0.0000  plane waves:    8615
 k-point  7 :   0.4615-0.0000-0.0000  plane waves:    8627
 k-point  8 :   0.0769 0.0769-0.0000  plane waves:    8765
 k-point  9 :   0.1538 0.0769 0.0000  plane waves:    8739
 k-point 10 :   0.2308 0.0769 0.0000  plane waves:    8688
 k-point 11 :   0.3077 0.0769-0.0000  plane waves:    8661
 k-point 12 :   0.3846 0.0769 0.0000  plane waves:    8628
 k-point 13 :   0.4615 0.0769-0.0000  plane waves:    8597
 k-point 14 :  -0.4615 0.0769 0.0000  plane waves:    8623
 k-point 15 :  -0.3846 0.0769-0.0000  plane waves:    8660
 k-point 16 :  -0.3077 0.0769 0.0000  plane waves:    8681
 k-point 17 :  -0.2308 0.0769 0.0000  plane waves:    8736
 k-point 18 :  -0.1538 0.0769 0.0000  plane waves:    8766
 k-point 19 :  -0.0769 0.0769-0.0000  plane waves:    8781
 k-point 20 :   0.1538 0.1538-0.0000  plane waves:    8693
 k-point 21 :   0.2308 0.1538-0.0000  plane waves:    8665
 k-point 22 :   0.3077 0.1538-0.0000  plane waves:    8653
 k-point 23 :   0.3846 0.1538 0.0000  plane waves:    8618
 k-point 24 :   0.4615 0.1538-0.0000  plane waves:    8613
 k-point 25 :  -0.4615 0.1538 0.0000  plane waves:    8655
 k-point 26 :  -0.3846 0.1538-0.0000  plane waves:    8669
 k-point 27 :  -0.3077 0.1538-0.0000  plane waves:    8697
 k-point 28 :  -0.2308 0.1538-0.0000  plane waves:    8730
 k-point 29 :  -0.1538 0.1538-0.0000  plane waves:    8756
 k-point 30 :   0.2308 0.2308-0.0000  plane waves:    8658
 k-point 31 :   0.3077 0.2308-0.0000  plane waves:    8627
 k-point 32 :   0.3846 0.2308 0.0000  plane waves:    8644
 k-point 33 :   0.4615 0.2308-0.0000  plane waves:    8623
 k-point 34 :  -0.4615 0.2308 0.0000  plane waves:    8657
 k-point 35 :  -0.3846 0.2308-0.0000  plane waves:    8668
 k-point 36 :  -0.3077 0.2308 0.0000  plane waves:    8690
 k-point 37 :  -0.2308 0.2308 0.0000  plane waves:    8720
 k-point 38 :   0.3077 0.3077-0.0000  plane waves:    8662
 k-point 39 :   0.3846 0.3077-0.0000  plane waves:    8658
 k-point 40 :   0.4615 0.3077-0.0000  plane waves:    8622
 k-point 41 :  -0.4615 0.3077 0.0000  plane waves:    8656
 k-point 42 :  -0.3846 0.3077-0.0000  plane waves:    8664
 k-point 43 :  -0.3077 0.3077 0.0000  plane waves:    8669
 k-point 44 :   0.3846 0.3846 0.0000  plane waves:    8646
 k-point 45 :   0.4615 0.3846-0.0000  plane waves:    8612
 k-point 46 :  -0.4615 0.3846 0.0000  plane waves:    8621
 k-point 47 :  -0.3846 0.3846-0.0000  plane waves:    8626
 k-point 48 :   0.4615 0.4615-0.0000  plane waves:    8590
 k-point 49 :  -0.4615 0.4615 0.0000  plane waves:    8624

 maximum and minimum number of plane-waves per node :      2222     2136

 maximum number of plane-waves:      8783
 maximum index in each direction: 
   IXMAX=    6   IYMAX=    5   IZMAX=   77
   IXMIN=   -6   IYMIN=   -6   IZMIN=  -77

 WARNING: aliasing errors must be expected set NGX to  26 to avoid them
 NGY is ok and might be reduce to  24
 NGZ is ok and might be reduce to 310
 aliasing errors are usually negligible using standard VASP settings
 and one can safely disregard these warnings

 parallel 3D FFT for wavefunctions:
    minimum data exchange during FFTs selected (reduces bandwidth)
 parallel 3D FFT for charge:
    minimum data exchange during FFTs selected (reduces bandwidth)


 total amount of memory used by VASP on root node   197993. kBytes
========================================================================

   base      :      30000. kBytes
   nonl-proj :      34894. kBytes
   fftplans  :      55172. kBytes
   grid      :      22118. kBytes
   one-center:         56. kBytes
   wavefun   :      55753. kBytes
 
     INWAV:  cpu time    0.00: real time    0.00
 Broyden mixing: mesh for mixing (old mesh)
   NGX = 11   NGY = 11   NGZ =155
  (NGX  = 48   NGY  = 48   NGZ  =640)
  gives a total of  18755 points

 initial charge density was supplied:
 charge density of overlapping atoms calculated
 number of electron      95.0000000 magnetization 
 keeping initial charge density in first step


--------------------------------------------------------------------------------------------------------


 Maximum index for augmentation-charges        23700 (set IRDMAX)


--------------------------------------------------------------------------------------------------------


 First call to EWALD:  gamma=   0.259
 Maximum number of real-space cells 6x 6x 1
 Maximum number of reciprocal cells 1x 1x14

 FEWALD executed in parallel
    FEWALD:  cpu time    0.00: real time    0.00


----------------------------------------- Iteration    1(   1)  ---------------------------------------


    POTLOK:  cpu time    0.10: real time    0.10
    SETDIJ:  cpu time    0.11: real time    0.11
     EDDAV:  cpu time    9.23: real time    9.26
       DOS:  cpu time    0.00: real time    0.00
    --------------------------------------------
      LOOP:  cpu time    9.44: real time    9.47

 eigenvalue-minimisations  :  6092
 total energy-change (2. order) : 0.4647788E+03  (-0.4145949E+04)
 number of electron      95.0000000 magnetization 
 augmentation part       95.0000000 magnetization 

 Free energy of the ion-electron system (eV)
  ---------------------------------------------------
  alpha Z        PSCENC =       125.58982935
  Ewald energy   TEWEN  =     12399.76683387
  -Hartree energ DENC   =    -17177.04374615
  -exchange      EXHF   =         0.00000000
  -V(xc)+E(xc)   XCENC  =      -418.73017174
  PAW double counting   =      4235.41334458    -3509.29226066
  entropy T*S    EENTRO =        -0.00384956
  eigenvalues    EBANDS =       312.71909393
  atomic energy  EATOM  =      4496.35971583
  ---------------------------------------------------
  free energy    TOTEN  =       464.77878944 eV

  energy without entropy =      464.78263900  energy(sigma->0) =      464.78071422


--------------------------------------------------------------------------------------------------------




----------------------------------------- Iteration    1(   2)  ---------------------------------------


     EDDAV:  cpu time   11.04: real time   11.06
       DOS:  cpu time    0.00: real time    0.00
    --------------------------------------------
      LOOP:  cpu time   11.05: real time   11.07

 eigenvalue-minimisations  :  7856
 total energy-change (2. order) :-0.5601635E+03  (-0.5330130E+03)
 number of electron      95.0000000 magnetization 
 augmentation part       95.0000000 magnetization 

 Free energy of the ion-electron system (eV)
  ---------------------------------------------------
  alpha Z        PSCENC =       125.58982935
  Ewald energy   TEWEN  =     12399.76683387
  -Hartree energ DENC   =    -17177.04374615
  -exchange      EXHF   =         0.00000000
  -V(xc)+E(xc)   XCENC  =      -418.73017174
  PAW double counting   =      4235.41334458    -3509.29226066
  entropy T*S    EENTRO =        -0.00588535
  eigenvalues    EBANDS =      -247.44241058
  atomic energy  EATOM  =      4496.35971583
  ---------------------------------------------------
  free energy    TOTEN  =       -95.38475085 eV

  energy without entropy =      -95.37886550  energy(sigma->0) =      -95.38180818


--------------------------------------------------------------------------------------------------------




----------------------------------------- Iteration    1(   3)  ---------------------------------------


     EDDAV:  cpu time   10.15: real time   10.17
       DOS:  cpu time    0.00: real time    0.00
    --------------------------------------------
      LOOP:  cpu time   10.16: real time   10.18

 eigenvalue-minimisations  :  7124
 total energy-change (2. order) :-0.5247239E+02  (-0.5217398E+02)
 number of electron      95.0000000 magnetization 
 augmentation part       95.0000000 magnetization 

 Free energy of the ion-electron system (eV)
  ---------------------------------------------------
  alpha Z        PSCENC =       125.58982935
  Ewald energy   TEWEN  =     12399.76683387
  -Hartree energ DENC   =    -17177.04374615
  -exchange      EXHF   =         0.00000000
  -V(xc)+E(xc)   XCENC  =      -418.73017174
  PAW double counting   =      4235.41334458    -3509.29226066
  entropy T*S    EENTRO =        -0.00378406
  eigenvalues    EBANDS =      -299.91690299
  atomic energy  EATOM  =      4496.35971583
  ---------------------------------------------------
  free energy    TOTEN  =      -147.85714198 eV

  energy without entropy =     -147.85335792  energy(sigma->0) =     -147.85524995


--------------------------------------------------------------------------------------------------------




----------------------------------------- Iteration    1(   4)  ---------------------------------------


     EDDAV:  cpu time   10.10: real time   10.12
       DOS:  cpu time    0.00: real time    0.00
    --------------------------------------------
      LOOP:  cpu time   10.11: real time   10.12

 eigenvalue-minimisations  :  7088
 total energy-change (2. order) :-0.6711110E+00  (-0.6698450E+00)
 number of electron      95.0000000 magnetization 
 augmentation part       95.0000000 magnetization 

 Free energy of the ion-electron system (eV)
  ---------------------------------------------------
  alpha Z        PSCENC =       125.58982935
  Ewald energy   TEWEN  =     12399.76683387
  -Hartree energ DENC   =    -17177.04374615
  -exchange      EXHF   =         0.00000000
  -V(xc)+E(xc)   XCENC  =      -418.73017174
  PAW double counting   =      4235.41334458    -3509.29226066
  entropy T*S    EENTRO =        -0.00381681
  eigenvalues    EBANDS =      -300.58798119
  atomic energy  EATOM  =      4496.35971583
  ---------------------------------------------------
  free energy    TOTEN  =      -148.52825293 eV

  energy without entropy =     -148.52443612  energy(sigma->0) =     -148.52634452


--------------------------------------------------------------------------------------------------------




----------------------------------------- Iteration    1(   5)  ---------------------------------------


     EDDAV:  cpu time   10.28: real time   10.29
       DOS:  cpu time    0.00: real time    0.00
    CHARGE:  cpu time    0.70: real time    0.70
    MIXING:  cpu time    0.00: real time    0.00
    --------------------------------------------
      LOOP:  cpu time   10.98: real time   11.00

 eigenvalue-minimisations  :  7226
 total energy-change (2. order) :-0.1017777E-01  (-0.1017182E-01)
 number of electron      95.0000001 magnetization 
 augmentation part        6.9390561 magnetization 

 Broyden mixing:
  rms(total) = 0.21917E+01    rms(broyden)= 0.21912E+01
  rms(prec ) = 0.22485E+01
  weight for this iteration     100.00

 Free energy of the ion-electron system (eV)
  ---------------------------------------------------
  alpha Z        PSCENC =       125.58982935
  Ewald energy   TEWEN  =     12399.76683387
  -Hartree energ DENC   =    -17177.04374615
  -exchange      EXHF   =         0.00000000
  -V(xc)+E(xc)   XCENC  =      -418.73017174
  PAW double counting   =      4235.41334458    -3509.29226066
  entropy T*S    EENTRO =        -0.00382168
  eigenvalues    EBANDS =      -300.59815409
  atomic energy  EATOM  =      4496.35971583
  ---------------------------------------------------
  free energy    TOTEN  =      -148.53843070 eV

  energy without entropy =     -148.53460901  energy(sigma->0) =     -148.53651985


--------------------------------------------------------------------------------------------------------




----------------------------------------- Iteration    1(   6)  ---------------------------------------


    POTLOK:  cpu time    0.10: real time    0.10
    SETDIJ:  cpu time    0.10: real time    0.10
     EDDAV:  cpu time    9.98: real time   10.00
       DOS:  cpu time    0.00: real time    0.00
    CHARGE:  cpu time    0.68: real time    0.68
    MIXING:  cpu time    0.01: real time    0.01
    --------------------------------------------
      LOOP:  cpu time   10.88: real time   10.90

 eigenvalue-minimisations  :  6914
 total energy-change (2. order) : 0.1435455E+02  (-0.8236387E+01)
 number of electron      95.0000001 magnetization 
 augmentation part        5.6153856 magnetization 

 Broyden mixing:
  rms(total) = 0.74177E+00    rms(broyden)= 0.74085E+00
  rms(prec ) = 0.74856E+00
  weight for this iteration     100.00

 eigenvalues of (default mixing * dielectric matrix)
  average eigenvalue GAMMA=   0.8432
  0.8432

 Free energy of the ion-electron system (eV)
  ---------------------------------------------------
  alpha Z        PSCENC =       125.58982935
  Ewald energy   TEWEN  =     12399.76683387
  -Hartree energ DENC   =    -17348.10490291
  -exchange      EXHF   =         0.00000000
  -V(xc)+E(xc)   XCENC  =      -406.56479675
  PAW double counting   =      5031.08073062    -4308.10340710
  entropy T*S    EENTRO =        -0.00403289
  eigenvalues    EBANDS =      -124.20384777
  atomic energy  EATOM  =      4496.35971583
  ---------------------------------------------------
  free energy    TOTEN  =      -134.18387774 eV

  energy without entropy =     -134.17984484  energy(sigma->0) =     -134.18186129


--------------------------------------------------------------------------------------------------------




----------------------------------------- Iteration    1(   7)  ---------------------------------------


    POTLOK:  cpu time    0.10: real time    0.10
    SETDIJ:  cpu time    0.10: real time    0.10
     EDDAV:  cpu time    9.68: real time    9.70
       DOS:  cpu time    0.00: real time    0.00
    CHARGE:  cpu time    0.69: real time    0.69
    MIXING:  cpu time    0.00: real time    0.00
    --------------------------------------------
      LOOP:  cpu time   10.58: real time   10.60

 eigenvalue-minimisations  :  6668
 total energy-change (2. order) : 0.1103010E+00  (-0.1580146E+00)
 number of electron      95.0000001 magnetization 
 augmentation part        5.6526702 magnetization 

 Broyden mixing:
  rms(total) = 0.45496E+00    rms(broyden)= 0.45495E+00
  rms(prec ) = 0.46026E+00
  weight for this iteration     100.00

 eigenvalues of (default mixing * dielectric matrix)
  average eigenvalue GAMMA=   1.6410
  0.9774  2.3046

 Free energy of the ion-electron system (eV)
  ---------------------------------------------------
  alpha Z        PSCENC =       125.58982935
  Ewald energy   TEWEN  =     12399.76683387
  -Hartree energ DENC   =    -17346.17427303
  -exchange      EXHF   =         0.00000000
  -V(xc)+E(xc)   XCENC  =      -406.17193602
  PAW double counting   =      5317.89768050    -4594.51086831
  entropy T*S    EENTRO =        -0.00369586
  eigenvalues    EBANDS =      -126.82686307
  atomic energy  EATOM  =      4496.35971583
  ---------------------------------------------------
  free energy    TOTEN  =      -134.07357674 eV

  energy without entropy =     -134.06988088  energy(sigma->0) =     -134.07172881


--------------------------------------------------------------------------------------------------------




----------------------------------------- Iteration    1(   8)  ---------------------------------------


    POTLOK:  cpu time    0.10: real time    0.10
    SETDIJ:  cpu time    0.10: real time    0.10
     EDDAV:  cpu time   10.23: real time   10.24
       DOS:  cpu time    0.00: real time    0.00
    CHARGE:  cpu time    0.68: real time    0.68
    MIXING:  cpu time    0.00: real time    0.00
    --------------------------------------------
      LOOP:  cpu time   11.12: real time   11.14

 eigenvalue-minimisations  :  7164
 total energy-change (2. order) : 0.9623553E-01  (-0.4451419E-01)
 number of electron      95.0000001 magnetization 
 augmentation part        5.7010124 magnetization 

 Broyden mixing:
  rms(total) = 0.78850E-01    rms(broyden)= 0.78805E-01
  rms(prec ) = 0.86823E-01
  weight for this iteration     100.00

 eigenvalues of (default mixing * dielectric matrix)
  average eigenvalue GAMMA=   1.3952
  2.4382  0.8736  0.8736

 Free energy of the ion-electron system (eV)
  ---------------------------------------------------
  alpha Z        PSCENC =       125.58982935
  Ewald energy   TEWEN  =     12399.76683387
  -Hartree energ DENC   =    -17350.69189205
  -exchange      EXHF   =         0.00000000
  -V(xc)+E(xc)   XCENC  =      -404.70282887
  PAW double counting   =      5818.55929210    -5094.87435442
  entropy T*S    EENTRO =        -0.00224503
  eigenvalues    EBANDS =      -123.98169199
  atomic energy  EATOM  =      4496.35971583
  ---------------------------------------------------
  free energy    TOTEN  =      -133.97734121 eV

  energy without entropy =     -133.97509618  energy(sigma->0) =     -133.97621869


--------------------------------------------------------------------------------------------------------




----------------------------------------- Iteration    1(   9)  ---------------------------------------


    POTLOK:  cpu time    0.10: real time    0.10
    SETDIJ:  cpu time    0.10: real time    0.10
     EDDAV:  cpu time    9.47: real time    9.48
       DOS:  cpu time    0.00: real time    0.00
    CHARGE:  cpu time    0.68: real time    0.68
    MIXING:  cpu time    0.00: real time    0.00
    --------------------------------------------
      LOOP:  cpu time   10.36: real time   10.37

 eigenvalue-minimisations  :  6902
 total energy-change (2. order) : 0.1356493E-01  (-0.7263615E-02)
 number of electron      95.0000001 magnetization 
 augmentation part        5.6806354 magnetization 

 Broyden mixing:
  rms(total) = 0.47668E-01    rms(broyden)= 0.47666E-01
  rms(prec ) = 0.48963E-01
  weight for this iteration     100.00

 eigenvalues of (default mixing * dielectric matrix)
  average eigenvalue GAMMA=   1.5009
  2.4499  0.9637  0.9637  1.6264

 Free energy of the ion-electron system (eV)
  ---------------------------------------------------
  alpha Z        PSCENC =       125.58982935
  Ewald energy   TEWEN  =     12399.76683387
  -Hartree energ DENC   =    -17354.39814682
  -exchange      EXHF   =         0.00000000
  -V(xc)+E(xc)   XCENC  =      -404.33571260
  PAW double counting   =      5838.71438624    -5115.07899444
  entropy T*S    EENTRO =        -0.00300611
  eigenvalues    EBANDS =      -120.57868160
  atomic energy  EATOM  =      4496.35971583
  ---------------------------------------------------
  free energy    TOTEN  =      -133.96377628 eV

  energy without entropy =     -133.96077018  energy(sigma->0) =     -133.96227323


--------------------------------------------------------------------------------------------------------




----------------------------------------- Iteration    1(  10)  ---------------------------------------


    POTLOK:  cpu time    0.10: real time    0.10
    SETDIJ:  cpu time    0.10: real time    0.10
     EDDAV:  cpu time    9.53: real time    9.54
       DOS:  cpu time    0.00: real time    0.00
    CHARGE:  cpu time    0.68: real time    0.68
    MIXING:  cpu time    0.01: real time    0.01
    --------------------------------------------
      LOOP:  cpu time   10.43: real time   10.44

 eigenvalue-minimisations  :  6972
 total energy-change (2. order) : 0.7103273E-03  (-0.3627224E-02)
 number of electron      95.0000001 magnetization 
 augmentation part        5.6641200 magnetization 

 Broyden mixing:
  rms(total) = 0.23914E-01    rms(broyden)= 0.23896E-01
  rms(prec ) = 0.24575E-01
  weight for this iteration     100.00

 eigenvalues of (default mixing * dielectric matrix)
  average eigenvalue GAMMA=   1.3398
  2.5103  1.9654  0.9241  0.9241  0.3748

 Free energy of the ion-electron system (eV)
  ---------------------------------------------------
  alpha Z        PSCENC =       125.58982935
  Ewald energy   TEWEN  =     12399.76683387
  -Hartree energ DENC   =    -17355.79404731
  -exchange      EXHF   =         0.00000000
  -V(xc)+E(xc)   XCENC  =      -404.17871925
  PAW double counting   =      5823.81287981    -5100.20603417
  entropy T*S    EENTRO =        -0.00303723
  eigenvalues    EBANDS =      -119.31048685
  atomic energy  EATOM  =      4496.35971583
  ---------------------------------------------------
  free energy    TOTEN  =      -133.96306595 eV

  energy without entropy =     -133.96002872  energy(sigma->0) =     -133.96154734


--------------------------------------------------------------------------------------------------------




----------------------------------------- Iteration    1(  11)  ---------------------------------------


    POTLOK:  cpu time    0.10: real time    0.10
    SETDIJ:  cpu time    0.10: real time    0.10
     EDDAV:  cpu time    9.52: real time    9.53
       DOS:  cpu time    0.00: real time    0.00
    CHARGE:  cpu time    0.68: real time    0.68
    MIXING:  cpu time    0.01: real time    0.01
    --------------------------------------------
      LOOP:  cpu time   10.41: real time   10.43

 eigenvalue-minimisations  :  6956
 total energy-change (2. order) :-0.4413863E-03  (-0.2887554E-03)
 number of electron      95.0000001 magnetization 
 augmentation part        5.6656626 magnetization 

 Broyden mixing:
  rms(total) = 0.16375E-01    rms(broyden)= 0.16374E-01
  rms(prec ) = 0.17115E-01
  weight for this iteration     100.00

 eigenvalues of (default mixing * dielectric matrix)
  average eigenvalue GAMMA=   1.4361
  2.7799  2.2705  1.0154  0.9283  0.9283  0.6941

 Free energy of the ion-electron system (eV)
  ---------------------------------------------------
  alpha Z        PSCENC =       125.58982935
  Ewald energy   TEWEN  =     12399.76683387
  -Hartree energ DENC   =    -17355.63478757
  -exchange      EXHF   =         0.00000000
  -V(xc)+E(xc)   XCENC  =      -404.13584096
  PAW double counting   =      5804.19521768    -5080.59105349
  entropy T*S    EENTRO =        -0.00302427
  eigenvalues    EBANDS =      -119.51039778
  atomic energy  EATOM  =      4496.35971583
  ---------------------------------------------------
  free energy    TOTEN  =      -133.96350734 eV

  energy without entropy =     -133.96048307  energy(sigma->0) =     -133.96199521


--------------------------------------------------------------------------------------------------------




----------------------------------------- Iteration    1(  12)  ---------------------------------------


    POTLOK:  cpu time    0.10: real time    0.10
    SETDIJ:  cpu time    0.11: real time    0.11
     EDDAV:  cpu time   10.86: real time   10.87
       DOS:  cpu time    0.00: real time    0.00
    CHARGE:  cpu time    0.68: real time    0.68
    MIXING:  cpu time    0.00: real time    0.00
    --------------------------------------------
      LOOP:  cpu time   11.75: real time   11.77

 eigenvalue-minimisations  :  8276
 total energy-change (2. order) : 0.1984955E-03  (-0.2372768E-03)
 number of electron      95.0000001 magnetization 
 augmentation part        5.6648947 magnetization 

 Broyden mixing:
  rms(total) = 0.60293E-02    rms(broyden)= 0.60264E-02
  rms(prec ) = 0.71114E-02
  weight for this iteration     100.00

 eigenvalues of (default mixing * dielectric matrix)
  average eigenvalue GAMMA=   1.4050
  2.9009  2.4935  0.9569  0.9569  0.9228  0.9228  0.6809

 Free energy of the ion-electron system (eV)
  ---------------------------------------------------
  alpha Z        PSCENC =       125.58982935
  Ewald energy   TEWEN  =     12399.76683387
  -Hartree energ DENC   =    -17355.46615314
  -exchange      EXHF   =         0.00000000
  -V(xc)+E(xc)   XCENC  =      -404.08717094
  PAW double counting   =      5782.08952650    -5058.49873378
  entropy T*S    EENTRO =        -0.00293428
  eigenvalues    EBANDS =      -119.71422224
  atomic energy  EATOM  =      4496.35971583
  ---------------------------------------------------
  free energy    TOTEN  =      -133.96330885 eV

  energy without entropy =     -133.96037456  energy(sigma->0) =     -133.96184170


--------------------------------------------------------------------------------------------------------




----------------------------------------- Iteration    1(  13)  ---------------------------------------


    POTLOK:  cpu time    0.10: real time    0.10
    SETDIJ:  cpu time    0.10: real time    0.10
     EDDAV:  cpu time    9.66: real time    9.67
       DOS:  cpu time    0.00: real time    0.00
    CHARGE:  cpu time    0.69: real time    0.69
    MIXING:  cpu time    0.01: real time    0.01
    --------------------------------------------
      LOOP:  cpu time   10.55: real time   10.57

 eigenvalue-minimisations  :  7080
 total energy-change (2. order) : 0.5960851E-04  (-0.1161524E-03)
 number of electron      95.0000001 magnetization 
 augmentation part        5.6681094 magnetization 

 Broyden mixing:
  rms(total) = 0.48335E-02    rms(broyden)= 0.48311E-02
  rms(prec ) = 0.57727E-02
  weight for this iteration     100.00

 eigenvalues of (default mixing * dielectric matrix)
  average eigenvalue GAMMA=   1.3368
  2.9495  2.5359  1.0125  1.0125  0.9019  0.9019  0.6901  0.6901

 Free energy of the ion-electron system (eV)
  ---------------------------------------------------
  alpha Z        PSCENC =       125.58982935
  Ewald energy   TEWEN  =     12399.76683387
  -Hartree energ DENC   =    -17354.89539609
  -exchange      EXHF   =         0.00000000
  -V(xc)+E(xc)   XCENC  =      -404.11177328
  PAW double counting   =      5774.63608878    -5051.04052303
  entropy T*S    EENTRO =        -0.00289107
  eigenvalues    EBANDS =      -120.26513359
  atomic energy  EATOM  =      4496.35971583
  ---------------------------------------------------
  free energy    TOTEN  =      -133.96324924 eV

  energy without entropy =     -133.96035817  energy(sigma->0) =     -133.96180370


--------------------------------------------------------------------------------------------------------




----------------------------------------- Iteration    1(  14)  ---------------------------------------


    POTLOK:  cpu time    0.10: real time    0.10
    SETDIJ:  cpu time    0.10: real time    0.10
     EDDAV:  cpu time   10.37: real time   10.39
       DOS:  cpu time    0.00: real time    0.00
    CHARGE:  cpu time    0.68: real time    0.68
    MIXING:  cpu time    0.00: real time    0.00
    --------------------------------------------
      LOOP:  cpu time   11.26: real time   11.28

 eigenvalue-minimisations  :  7796
 total energy-change (2. order) : 0.6855479E-04  (-0.1395805E-04)
 number of electron      95.0000001 magnetization 
 augmentation part        5.6687348 magnetization 

 Broyden mixing:
  rms(total) = 0.32342E-02    rms(broyden)= 0.32339E-02
  rms(prec ) = 0.42898E-02
  weight for this iteration     100.00

 eigenvalues of (default mixing * dielectric matrix)
  average eigenvalue GAMMA=   1.4339
  3.0416  2.5546  1.8203  0.9832  0.9832  1.0284  0.9093  0.9093  0.6756

 Free energy of the ion-electron system (eV)
  ---------------------------------------------------
  alpha Z        PSCENC =       125.58982935
  Ewald energy   TEWEN  =     12399.76683387
  -Hartree energ DENC   =    -17354.71499474
  -exchange      EXHF   =         0.00000000
  -V(xc)+E(xc)   XCENC  =      -404.11578259
  PAW double counting   =      5773.06402551    -5049.46750908
  entropy T*S    EENTRO =        -0.00288102
  eigenvalues    EBANDS =      -120.44241781
  atomic energy  EATOM  =      4496.35971583
  ---------------------------------------------------
  free energy    TOTEN  =      -133.96318068 eV

  energy without entropy =     -133.96029966  energy(sigma->0) =     -133.96174017


--------------------------------------------------------------------------------------------------------




----------------------------------------- Iteration    1(  15)  ---------------------------------------


    POTLOK:  cpu time    0.10: real time    0.10
    SETDIJ:  cpu time    0.10: real time    0.10
     EDDAV:  cpu time   10.36: real time   10.37
       DOS:  cpu time    0.00: real time    0.00
    CHARGE:  cpu time    0.68: real time    0.68
    MIXING:  cpu time    0.01: real time    0.01
    --------------------------------------------
      LOOP:  cpu time   11.24: real time   11.25

 eigenvalue-minimisations  :  7768
 total energy-change (2. order) : 0.1035673E-03  (-0.1145385E-04)
 number of electron      95.0000001 magnetization 
 augmentation part        5.6682387 magnetization 

 Broyden mixing:
  rms(total) = 0.14424E-02    rms(broyden)= 0.14419E-02
  rms(prec ) = 0.26524E-02
  weight for this iteration     100.00

 eigenvalues of (default mixing * dielectric matrix)
  average eigenvalue GAMMA=   1.4249
  3.0158  2.4943  2.4943  1.0342  1.0342  0.9289  0.9289  0.6891  0.8149  0.8149

 Free energy of the ion-electron system (eV)
  ---------------------------------------------------
  alpha Z        PSCENC =       125.58982935
  Ewald energy   TEWEN  =     12399.76683387
  -Hartree energ DENC   =    -17354.49336574
  -exchange      EXHF   =         0.00000000
  -V(xc)+E(xc)   XCENC  =      -404.11248549
  PAW double counting   =      5773.21367096    -5049.61743987
  entropy T*S    EENTRO =        -0.00285739
  eigenvalues    EBANDS =      -120.66697863
  atomic energy  EATOM  =      4496.35971583
  ---------------------------------------------------
  free energy    TOTEN  =      -133.96307711 eV

  energy without entropy =     -133.96021972  energy(sigma->0) =     -133.96164842


--------------------------------------------------------------------------------------------------------




----------------------------------------- Iteration    1(  16)  ---------------------------------------


    POTLOK:  cpu time    0.10: real time    0.10
    SETDIJ:  cpu time    0.10: real time    0.10
     EDDAV:  cpu time    9.67: real time    9.68
       DOS:  cpu time    0.00: real time    0.00
    CHARGE:  cpu time    0.68: real time    0.68
    MIXING:  cpu time    0.01: real time    0.01
    --------------------------------------------
      LOOP:  cpu time   10.55: real time   10.56

 eigenvalue-minimisations  :  7090
 total energy-change (2. order) : 0.3553430E-04  (-0.1229014E-04)
 number of electron      95.0000001 magnetization 
 augmentation part        5.6677283 magnetization 

 Broyden mixing:
  rms(total) = 0.13855E-02    rms(broyden)= 0.13846E-02
  rms(prec ) = 0.24411E-02
  weight for this iteration     100.00

 eigenvalues of (default mixing * dielectric matrix)
  average eigenvalue GAMMA=   1.3803
  2.8762  2.4663  2.4663  1.0314  1.0314  1.0045  1.0045  0.6840  0.8690  0.8748
  0.8748

 Free energy of the ion-electron system (eV)
  ---------------------------------------------------
  alpha Z        PSCENC =       125.58982935
  Ewald energy   TEWEN  =     12399.76683387
  -Hartree energ DENC   =    -17354.38163571
  -exchange      EXHF   =         0.00000000
  -V(xc)+E(xc)   XCENC  =      -404.10926191
  PAW double counting   =      5773.92198591    -5050.32600598
  entropy T*S    EENTRO =        -0.00285070
  eigenvalues    EBANDS =      -120.78165225
  atomic energy  EATOM  =      4496.35971583
  ---------------------------------------------------
  free energy    TOTEN  =      -133.96304158 eV

  energy without entropy =     -133.96019088  energy(sigma->0) =     -133.96161623


--------------------------------------------------------------------------------------------------------




----------------------------------------- Iteration    1(  17)  ---------------------------------------


    POTLOK:  cpu time    0.10: real time    0.10
    SETDIJ:  cpu time    0.10: real time    0.10
     EDDAV:  cpu time    9.68: real time    9.69
       DOS:  cpu time    0.00: real time    0.00
    CHARGE:  cpu time    0.68: real time    0.68
    MIXING:  cpu time    0.00: real time    0.00
    --------------------------------------------
      LOOP:  cpu time   10.56: real time   10.58

 eigenvalue-minimisations  :  7100
 total energy-change (2. order) : 0.4611135E-04  (-0.1525835E-04)
 number of electron      95.0000001 magnetization 
 augmentation part        5.6684396 magnetization 

 Broyden mixing:
  rms(total) = 0.26449E-02    rms(broyden)= 0.26443E-02
  rms(prec ) = 0.30944E-02
  weight for this iteration     100.00

 eigenvalues of (default mixing * dielectric matrix)
  average eigenvalue GAMMA=   1.5862
  4.7312  2.8623  2.3763  1.7111  1.0615  1.0615  0.8602  0.8602  1.0078  1.0078
  0.6884  0.8058

 Free energy of the ion-electron system (eV)
  ---------------------------------------------------
  alpha Z        PSCENC =       125.58982935
  Ewald energy   TEWEN  =     12399.76683387
  -Hartree energ DENC   =    -17354.02553287
  -exchange      EXHF   =         0.00000000
  -V(xc)+E(xc)   XCENC  =      -404.11465518
  PAW double counting   =      5774.42293089    -5050.82518009
  entropy T*S    EENTRO =        -0.00281624
  eigenvalues    EBANDS =      -121.13412102
  atomic energy  EATOM  =      4496.35971583
  ---------------------------------------------------
  free energy    TOTEN  =      -133.96299547 eV

  energy without entropy =     -133.96017923  energy(sigma->0) =     -133.96158735


--------------------------------------------------------------------------------------------------------




----------------------------------------- Iteration    1(  18)  ---------------------------------------


    POTLOK:  cpu time    0.10: real time    0.10
    SETDIJ:  cpu time    0.10: real time    0.10
     EDDAV:  cpu time    9.85: real time    9.87
       DOS:  cpu time    0.00: real time    0.00
    CHARGE:  cpu time    0.68: real time    0.68
    MIXING:  cpu time    0.01: real time    0.01
    --------------------------------------------
      LOOP:  cpu time   10.74: real time   10.76

 eigenvalue-minimisations  :  7238
 total energy-change (2. order) : 0.7580596E-04  (-0.7800923E-05)
 number of electron      95.0000001 magnetization 
 augmentation part        5.6686150 magnetization 

 Broyden mixing:
  rms(total) = 0.20371E-02    rms(broyden)= 0.20369E-02
  rms(prec ) = 0.23056E-02
  weight for this iteration     100.00

 eigenvalues of (default mixing * dielectric matrix)
  average eigenvalue GAMMA=   1.6141
  4.6889  3.1209  2.3800  2.3800  1.0824  1.0824  0.9050  0.9050  1.0407  1.0407
  0.6890  0.8345  0.8345

 Free energy of the ion-electron system (eV)
  ---------------------------------------------------
  alpha Z        PSCENC =       125.58982935
  Ewald energy   TEWEN  =     12399.76683387
  -Hartree energ DENC   =    -17353.55765876
  -exchange      EXHF   =         0.00000000
  -V(xc)+E(xc)   XCENC  =      -404.11399668
  PAW double counting   =      5773.66099044    -5050.06272692
  entropy T*S    EENTRO =        -0.00278829
  eigenvalues    EBANDS =      -121.60311850
  atomic energy  EATOM  =      4496.35971583
  ---------------------------------------------------
  free energy    TOTEN  =      -133.96291966 eV

  energy without entropy =     -133.96013137  energy(sigma->0) =     -133.96152552


--------------------------------------------------------------------------------------------------------




----------------------------------------- Iteration    1(  19)  ---------------------------------------


    POTLOK:  cpu time    0.10: real time    0.10
    SETDIJ:  cpu time    0.10: real time    0.10
     EDDAV:  cpu time   10.16: real time   10.17
       DOS:  cpu time    0.00: real time    0.00
    CHARGE:  cpu time    0.68: real time    0.68
    MIXING:  cpu time    0.01: real time    0.01
    --------------------------------------------
      LOOP:  cpu time   11.05: real time   11.07

 eigenvalue-minimisations  :  7554
 total energy-change (2. order) : 0.2841516E-04  (-0.1129777E-04)
 number of electron      95.0000001 magnetization 
 augmentation part        5.6683837 magnetization 

 Broyden mixing:
  rms(total) = 0.10025E-02    rms(broyden)= 0.10021E-02
  rms(prec ) = 0.12403E-02
  weight for this iteration     100.00

 eigenvalues of (default mixing * dielectric matrix)
  average eigenvalue GAMMA=   1.6041
  5.3805  3.2065  2.4492  2.4492  1.0900  1.0900  0.9063  0.9063  1.1301  1.0392
  0.8568  0.8568  0.6886  0.4078

 Free energy of the ion-electron system (eV)
  ---------------------------------------------------
  alpha Z        PSCENC =       125.58982935
  Ewald energy   TEWEN  =     12399.76683387
  -Hartree energ DENC   =    -17353.36732778
  -exchange      EXHF   =         0.00000000
  -V(xc)+E(xc)   XCENC  =      -404.11095503
  PAW double counting   =      5774.23055402    -5050.63309010
  entropy T*S    EENTRO =        -0.00278402
  eigenvalues    EBANDS =      -121.79566738
  atomic energy  EATOM  =      4496.35971583
  ---------------------------------------------------
  free energy    TOTEN  =      -133.96289125 eV

  energy without entropy =     -133.96010723  energy(sigma->0) =     -133.96149924


--------------------------------------------------------------------------------------------------------




----------------------------------------- Iteration    1(  20)  ---------------------------------------


    POTLOK:  cpu time    0.10: real time    0.10
    SETDIJ:  cpu time    0.10: real time    0.10
     EDDAV:  cpu time    9.86: real time    9.87
       DOS:  cpu time    0.00: real time    0.00
    CHARGE:  cpu time    0.68: real time    0.68
    MIXING:  cpu time    0.01: real time    0.01
    --------------------------------------------
      LOOP:  cpu time   10.75: real time   10.76

 eigenvalue-minimisations  :  7260
 total energy-change (2. order) : 0.1433997E-04  (-0.1042915E-04)
 number of electron      95.0000001 magnetization 
 augmentation part        5.6676967 magnetization 

 Broyden mixing:
  rms(total) = 0.10457E-02    rms(broyden)= 0.10447E-02
  rms(prec ) = 0.11430E-02
  weight for this iteration     100.00

 eigenvalues of (default mixing * dielectric matrix)
  average eigenvalue GAMMA=   1.6868
  6.6248  3.2378  2.6413  2.4965  1.1044  1.1044  1.0770  1.0770  0.6887  0.8887
  0.8887  0.9116  0.9116  0.8244  0.8244

 Free energy of the ion-electron system (eV)
  ---------------------------------------------------
  alpha Z        PSCENC =       125.58982935
  Ewald energy   TEWEN  =     12399.76683387
  -Hartree energ DENC   =    -17353.26116293
  -exchange      EXHF   =         0.00000000
  -V(xc)+E(xc)   XCENC  =      -404.10503895
  PAW double counting   =      5774.85006824    -5051.25450254
  entropy T*S    EENTRO =        -0.00277970
  eigenvalues    EBANDS =      -121.90584008
  atomic energy  EATOM  =      4496.35971583
  ---------------------------------------------------
  free energy    TOTEN  =      -133.96287691 eV

  energy without entropy =     -133.96009721  energy(sigma->0) =     -133.96148706


--------------------------------------------------------------------------------------------------------




----------------------------------------- Iteration    1(  21)  ---------------------------------------


    POTLOK:  cpu time    0.10: real time    0.10
    SETDIJ:  cpu time    0.10: real time    0.10
     EDDAV:  cpu time    9.05: real time    9.06
       DOS:  cpu time    0.00: real time    0.00
    --------------------------------------------
      LOOP:  cpu time    9.25: real time    9.26

 eigenvalue-minimisations  :  6434
 total energy-change (2. order) : 0.4904151E-05  (-0.5604260E-05)
 number of electron      95.0000001 magnetization 
 augmentation part        5.6676967 magnetization 

 Free energy of the ion-electron system (eV)
  ---------------------------------------------------
  alpha Z        PSCENC =       125.58982935
  Ewald energy   TEWEN  =     12399.76683387
  -Hartree energ DENC   =    -17353.15780481
  -exchange      EXHF   =         0.00000000
  -V(xc)+E(xc)   XCENC  =      -404.10388558
  PAW double counting   =      5774.76291596    -5051.16748040
  entropy T*S    EENTRO =        -0.00277350
  eigenvalues    EBANDS =      -122.01022271
  atomic energy  EATOM  =      4496.35971583
  ---------------------------------------------------
  free energy    TOTEN  =      -133.96287200 eV

  energy without entropy =     -133.96009850  energy(sigma->0) =     -133.96148525


--------------------------------------------------------------------------------------------------------




 average (electrostatic) potential at core
  the test charge radii are     0.7215  1.0714  1.0406
  (the norm of the test charge is              1.0000)
       1 -69.8365       2 -69.8250       3 -69.8313       4 -69.9264       5 -69.8365
[...]
     58      10.7423      0.00000
     59      10.7898      0.00000
     60      10.9885      0.00000
     61      11.2108      0.00000
     62      11.3393      0.00000

 k-point    47 :      -0.3846    0.3846   -0.0000
  band No.  band energies     occupation 
      1     -13.1887      2.00000
      2     -13.1690      2.00000
      3     -13.1240      2.00000
      4     -13.0595      2.00000
      5     -12.9889      2.00000
      6     -12.9136      2.00000
      7     -12.8445      2.00000
      8     -12.7830      2.00000
      9     -12.7395      2.00000
     10      -1.1470      2.00000
     11      -1.0476      2.00000
     12      -0.8858      2.00000
     13      -0.8340      2.00000
     14      -0.7441      2.00000
     15      -0.6887      2.00000
     16      -0.6004      2.00000
     17      -0.5879      2.00000
     18      -0.4931      2.00000
     19      -0.4627      2.00000
     20      -0.2610      2.00000
     21       0.1755      2.00000
     22       0.2403      2.00000
     23       0.5212      2.00000
     24       0.7665      2.00000
     25       1.1016      2.00000
     26       1.1937      2.00000
     27       1.5123      2.00000
     28       1.6526      2.00000
     29       1.7280      2.00000
     30       1.7740      2.00000
     31       1.8031      2.00000
     32       1.8633      2.00000
     33       1.9204      2.00000
     34       1.9483      2.00000
     35       2.0422      2.00000
     36       2.0652      2.00000
     37       2.1423      2.00000
     38       2.2028      2.00000
     39       2.2346      2.00000
     40       2.3160      2.00000
     41       2.3741      2.00000
     42       3.0417      2.00000
     43       4.1732      2.00000
     44       4.3012      2.00000
     45       4.6158      2.00000
     46       5.0303      2.00000
     47       5.3862      2.00000
     48       6.0027      2.00000
     49       6.7112      0.00860
     50       7.1728      0.00000
     51       7.7382      0.00000
     52       8.4587      0.00000
     53       8.8743      0.00000
     54       9.7393      0.00000
     55      10.0308      0.00000
     56      10.5255      0.00000
     57      10.8417      0.00000
     58      11.0499      0.00000
     59      11.3753      0.00000
     60      11.4800      0.00000
     61      11.5924      0.00000
     62      11.8878      0.00000

 k-point    48 :       0.4615    0.4615   -0.0000
  band No.  band energies     occupation 
      1     -12.9590      2.00000
      2     -12.9539      2.00000
      3     -12.9310      2.00000
      4     -12.9014      2.00000
      5     -12.8694      2.00000
      6     -12.8318      2.00000
      7     -12.7962      2.00000
      8     -12.7611      2.00000
      9     -12.7351      2.00000
     10      -1.4342      2.00000
     11      -1.3321      2.00000
     12      -1.1669      2.00000
     13      -0.9721      2.00000
     14      -0.9481      2.00000
     15      -0.8745      2.00000
     16      -0.8187      2.00000
     17      -0.7474      2.00000
     18      -0.7153      2.00000
     19       0.8957      2.00000
     20       0.9207      2.00000
     21       1.0530      2.00000
     22       1.1339      2.00000
     23       1.2696      2.00000
     24       1.4199      2.00000
     25       1.4545      2.00000
     26       1.5210      2.00000
     27       1.5784      2.00000
     28       1.6418      2.00000
     29       1.6854      2.00000
     30       1.6990      2.00000
     31       1.7369      2.00000
     32       1.7580      2.00000
     33       1.8893      2.00000
     34       1.9411      2.00000
     35       2.0032      2.00000
     36       2.0215      2.00000
     37       2.0570      2.00000
     38       2.0796      2.00000
     39       2.1717      2.00000
     40       2.1877      2.00000
     41       2.4768      2.00000
     42       2.5745      2.00000
     43       3.2005      2.00000
     44       3.2936      2.00000
     45       4.0789      2.00000
     46       4.2728      2.00000
     47       4.9617      2.00000
     48       5.4886      2.00000
     49       6.1573      2.00000
     50       6.6687      0.15439
     51       7.2610      0.00000
     52       7.7795      0.00000
     53       8.7406      0.00000
     54       9.2973      0.00000
     55       9.5171      0.00000
     56       9.6434      0.00000
     57      10.4631      0.00000
     58      10.5998      0.00000
     59      10.6981      0.00000
     60      10.9389      0.00000
     61      11.1826      0.00000
     62      11.2989      0.00000

 k-point    49 :      -0.4615    0.4615    0.0000
  band No.  band energies     occupation 
      1     -13.0035      2.00000
      2     -12.9964      2.00000
      3     -12.9700      2.00000
      4     -12.9328      2.00000
      5     -12.8930      2.00000
      6     -12.8481      2.00000
      7     -12.8063      2.00000
      8     -12.7663      2.00000
      9     -12.7371      2.00000
     10      -1.4545      2.00000
     11      -1.3519      2.00000
     12      -1.1857      2.00000
     13      -0.9919      2.00000
     14      -0.9806      2.00000
     15      -0.9018      2.00000
     16      -0.8370      2.00000
     17      -0.7622      2.00000
     18      -0.7285      2.00000
     19       0.7169      2.00000
     20       0.7898      2.00000
     21       0.8701      2.00000
     22       1.0409      2.00000
     23       1.1719      2.00000
     24       1.2716      2.00000
     25       1.3056      2.00000
     26       1.4662      2.00000
     27       1.5301      2.00000
     28       1.6756      2.00000
     29       1.7040      2.00000
     30       1.7333      2.00000
     31       1.7937      2.00000
     32       1.8693      2.00000
     33       1.8790      2.00000
     34       1.9734      2.00000
     35       2.0738      2.00000
     36       2.1237      2.00000
     37       2.1665      2.00000
     38       2.2483      2.00000
     39       2.3067      2.00000
     40       2.3661      2.00000
     41       2.4726      2.00000
     42       2.7722      2.00000
     43       3.2317      2.00000
     44       3.3186      2.00000
     45       3.9976      2.00000
     46       4.3477      2.00000
     47       4.8624      2.00000
     48       5.6018      2.00000
     49       5.9692      2.00000
     50       6.7305      0.00151
     51       7.1239      0.00000
     52       8.2060      0.00000
     53       8.3177      0.00000
     54       9.5039      0.00000
     55       9.7541      0.00000
     56      10.6090      0.00000
     57      10.7079      0.00000
     58      10.9011      0.00000
     59      11.2005      0.00000
     60      11.3658      0.00000
     61      11.5285      0.00000
     62      11.6612      0.00000


--------------------------------------------------------------------------------------------------------


 soft charge-density along one line, spin component           1
         0         1         2         3         4         5         6         7         8         9
 total charge-density along one line
 
 pseudopotential strength for first ion, spin component:           1
 12.139   0.000 -14.767   0.000  -0.000   0.000  -0.000   0.000   0.000   0.000   0.000   0.000   0.000   0.000  -0.000   0.000
-14.767   0.000  17.983   0.000   0.000   0.000   0.000   0.000  -0.000   0.000  -0.000   0.000  -0.000   0.000   0.000   0.000
 -0.000   0.000   0.000   0.000  -8.260   0.000  -0.000   0.000   0.000   0.000   9.878   0.000   0.000   0.000  -0.000   0.000
 -0.000   0.000   0.000   0.000  -0.000   0.000  -8.264   0.000   0.000   0.000   0.000   0.000   9.884   0.000  -0.000   0.000
  0.000   0.000  -0.000   0.000   0.000   0.000   0.000   0.000  -8.260   0.000  -0.000   0.000  -0.000   0.000   9.878   0.000
  0.000   0.000  -0.000   0.000   9.878   0.000   0.000   0.000  -0.000   0.000 -11.649   0.000  -0.000   0.000   0.000   0.000
  0.000   0.000  -0.000   0.000   0.000   0.000   9.884   0.000  -0.000   0.000  -0.000   0.000 -11.657   0.000   0.000   0.000
 -0.000   0.000   0.000   0.000  -0.000   0.000  -0.000   0.000   9.878   0.000   0.000   0.000   0.000   0.000 -11.649   0.000
 total augmentation occupancy for first ion, spin component:           1
  2.597   0.361   0.000   0.000  -0.000   0.000  -0.000  -0.000
  0.361   0.067   0.000   0.000  -0.000   0.000  -0.000  -0.000
  0.000   0.000   2.158   0.000  -0.000   0.258   0.000  -0.000
  0.000   0.000   0.000   2.154  -0.000   0.000   0.262  -0.000
 -0.000  -0.000  -0.000  -0.000   2.157  -0.000  -0.000   0.258
  0.000   0.000   0.258   0.000  -0.000   0.033   0.000  -0.000
 -0.000  -0.000   0.000   0.262  -0.000   0.000   0.034  -0.000
 -0.000  -0.000  -0.000  -0.000   0.258  -0.000  -0.000   0.033


------------------------ aborting loop because EDIFF is reached ----------------------------------------


    CHARGE:  cpu time    0.68: real time    0.68
    FORLOC:  cpu time    0.03: real time    0.03
    FORNL :  cpu time    6.12: real time    6.13
    STRESS:  cpu time    6.99: real time    7.00
    FORCOR:  cpu time    0.13: real time    0.13
    FORHAR:  cpu time    0.06: real time    0.06
    MIXING:  cpu time    0.00: real time    0.00
    OFIELD:  cpu time    0.00: real time    0.00

  FORCE on cell =-STRESS in cart. coord.  units (eV):
  Direction    XX          YY          ZZ          XY          YZ          ZX
  --------------------------------------------------------------------------------------
  Alpha Z   125.58983   125.58983   125.58983
  Ewald   15152.56161 15147.35881-17611.51781     4.50599  -567.39935   327.58811
  Hartree 16780.57468 16774.09241-15914.75254     5.61375  -566.99397   327.35426
  E(xc)    -389.18549  -389.20040  -389.52137     0.01290    -0.00598     0.00346
  Local  -33074.00426-33062.28099 32382.91197   -10.15241  1134.41390  -654.95431
  n-local   -29.01121   -36.75445   -27.77940    -2.38691     1.63690     2.74540
  augment    53.89700    53.89240    53.17194     0.00395    -0.00662     0.00384
  Kinetic  1392.55038  1368.62471  1370.90859    -6.82010     0.35135     1.07862
  Fock        0.00000     0.00000     0.00000     0.00000     0.00000     0.00000
  -------------------------------------------------------------------------------------
  Total      -2.88986    -2.81528   -10.98878    -0.06459    -0.15659     0.09041
  in kB     -14.38116   -14.00999   -54.68471    -0.32143    -0.77926     0.44991
  external pressure =      -27.69 kB  Pullay stress =        0.00 kB


 VOLUME and BASIS-vectors are now :
 -----------------------------------------------------------------------------
  energy-cutoff  :      520.00
  volume of cell :      321.95
      direct lattice vectors                 reciprocal lattice vectors
     2.592590006 -1.495275227  0.051895165     0.385652578 -0.000239706 -0.003804727
     0.001348276  2.992885737 -0.051895149     0.192618697  0.334104885  0.003804727
     0.408967606 -0.708352458 41.498165393    -0.000241397  0.000418112  0.024106967

  length of vectors
     2.993336608  2.993335925 41.506225421     0.385671421  0.385671509  0.024111801


 FORCES acting on ions
    electron-ion (+dipol)            ewald-force                    non-local-force                 convergence-correction
 -----------------------------------------------------------------------------------------------
   -.959E+01 0.166E+02 0.957E+03   0.959E+01 -.166E+02 -.957E+03   0.794E-03 -.138E-02 0.139E-01   -.151E-03 0.261E-03 0.202E-01
   0.298E-03 -.516E-03 -.403E-01   0.918E-04 -.159E-03 0.491E-02   0.808E-04 -.140E-03 -.822E-02   -.400E-03 0.693E-03 0.398E-01
   0.959E+01 -.166E+02 -.957E+03   -.959E+01 0.166E+02 0.957E+03   -.777E-03 0.135E-02 -.202E-01   0.917E-05 -.159E-04 -.162E-01
   -.127E+02 0.221E+02 0.127E+04   0.127E+02 -.221E+02 -.127E+04   -.734E-02 0.127E-01 0.776E+00   0.174E-03 -.302E-03 -.672E-03
   -.639E+01 0.111E+02 0.637E+03   0.639E+01 -.111E+02 -.637E+03   0.647E-03 -.112E-02 0.612E-02   -.378E-03 0.655E-03 0.427E-01
   -.319E+01 0.553E+01 0.319E+03   0.319E+01 -.553E+01 -.319E+03   0.463E-03 -.801E-03 -.145E-02   -.381E-03 0.659E-03 0.450E-01
   0.320E+01 -.553E+01 -.319E+03   -.320E+01 0.553E+01 0.319E+03   -.369E-03 0.640E-03 -.344E-02   -.260E-03 0.451E-03 0.199E-01
   0.639E+01 -.111E+02 -.637E+03   -.639E+01 0.111E+02 0.637E+03   -.733E-03 0.127E-02 -.264E-02   0.601E-05 -.104E-04 -.104E-01
   0.127E+02 -.221E+02 -.127E+04   -.127E+02 0.221E+02 0.127E+04   0.733E-02 -.127E-01 -.762E+00   0.139E-03 -.241E-03 -.217E-01
   -.462E+01 0.801E+01 0.460E+03   0.462E+01 -.800E+01 -.460E+03   0.656E-02 -.114E-01 0.528E-01   0.221E-04 -.383E-04 -.226E-02
   -.160E+01 0.277E+01 0.159E+03   0.160E+01 -.277E+01 -.159E+03   0.164E-02 -.284E-02 -.168E-02   -.159E-03 0.275E-03 0.158E-01
   0.160E+01 -.277E+01 -.159E+03   -.160E+01 0.277E+01 0.159E+03   -.168E-02 0.291E-02 -.179E-02   -.901E-05 0.156E-04 0.950E-03
   0.462E+01 -.801E+01 -.460E+03   -.462E+01 0.800E+01 0.460E+03   -.642E-02 0.111E-01 -.515E-01   0.728E-04 -.126E-03 -.724E-02
   -.374E+01 0.647E+01 0.372E+03   0.373E+01 -.647E+01 -.372E+03   0.225E-02 -.390E-02 -.230E-01   -.254E-04 0.440E-04 0.247E-02
   -.267E+01 0.462E+01 0.266E+03   0.267E+01 -.462E+01 -.266E+03   0.215E-02 -.372E-02 0.494E-02   -.106E-03 0.184E-03 0.105E-01
   -.534E+00 0.925E+00 0.531E+02   0.534E+00 -.925E+00 -.531E+02   0.687E-03 -.119E-02 -.545E-02   -.155E-03 0.268E-03 0.154E-01
   0.534E+00 -.925E+00 -.531E+02   -.534E+00 0.924E+00 0.531E+02   -.607E-03 0.105E-02 0.275E-02   -.997E-04 0.173E-03 0.996E-02
   0.267E+01 -.462E+01 -.266E+03   -.267E+01 0.462E+01 0.266E+03   -.224E-02 0.387E-02 -.238E-02   0.499E-04 -.864E-04 -.490E-02
   0.374E+01 -.647E+01 -.372E+03   -.373E+01 0.647E+01 0.372E+03   -.233E-02 0.403E-02 0.278E-01   0.642E-04 -.111E-03 -.634E-02
   -.101E-02 0.176E-02 0.404E-01   0.587E-03 -.102E-02 -.322E-01   0.398E-03 -.689E-03 -.628E-04   0.816E-04 -.141E-03 -.815E-02
   -.494E+01 0.856E+01 0.493E+03   0.493E+01 -.854E+01 -.492E+03   0.116E-01 -.201E-01 -.883E+00   0.372E-04 -.645E-04 -.374E-02
   -.331E+01 0.573E+01 0.329E+03   0.330E+01 -.571E+01 -.329E+03   0.938E-02 -.162E-01 -.975E-01   0.379E-04 -.656E-04 -.379E-02
   -.163E+01 0.283E+01 0.163E+03   0.163E+01 -.283E+01 -.163E+03   0.145E-03 -.251E-03 0.108E+00   0.544E-04 -.943E-04 -.544E-02
   0.494E+01 -.856E+01 -.493E+03   -.493E+01 0.854E+01 0.492E+03   -.117E-01 0.202E-01 0.884E+00   0.111E-03 -.193E-03 -.111E-01
   0.163E+01 -.283E+01 -.163E+03   -.163E+01 0.283E+01 0.163E+03   -.163E-03 0.282E-03 -.108E+00   0.108E-03 -.187E-03 -.108E-01
   0.331E+01 -.573E+01 -.329E+03   -.330E+01 0.571E+01 0.329E+03   -.922E-02 0.160E-01 0.973E-01   0.118E-03 -.205E-03 -.118E-01
 -----------------------------------------------------------------------------------------------
   0.683E-03 -.118E-02 -.974E-01   0.666E-14 0.364E-13 -.909E-12   0.558E-03 -.966E-03 0.139E-02   -.104E-02 0.180E-02 0.983E-01
 
 
 POSITION                                       TOTAL-FORCE (eV/Angst)
 -----------------------------------------------------------------------------------
      1.57953      0.25940     14.32972         0.001373     -0.002378     -0.008625
      1.51213      0.37613     21.81927         0.000062     -0.000108     -0.003910
      1.44471      0.49292     29.30899        -0.001344      0.002328      0.006597
      0.74020      1.71316     11.80249         0.001208     -0.002092     -0.000151
      2.41994     -1.19624     16.85911         0.001185     -0.002053      0.005973
      0.67012      1.83454     19.28734         0.000605     -0.001047     -0.000093
      2.35416     -1.08231     24.35097        -0.000687      0.001190      0.000969
      0.60434      1.94847     26.77924        -0.001153      0.001998     -0.004856
      2.28393     -0.96065     31.83600        -0.001267      0.002195      0.004654
      1.61684      0.19477     10.56191         0.001197     -0.002073      0.005790
      1.54490      0.31938     18.07339         0.000818     -0.001418      0.002721
      1.47939      0.43284     25.56524        -0.000834      0.001445     -0.006435
      1.40720      0.55788     33.07670        -0.001085      0.001879     -0.010512
      2.45533     -1.25754     13.11623         0.000893     -0.001547      0.013897
      0.70394      1.77596     15.54198         0.000903     -0.001564      0.018051
      2.38669     -1.13865     20.60562         0.000377     -0.000653     -0.006002
      0.63758      1.89091     23.03292        -0.000400      0.000693      0.009219
      2.32033     -1.02370     28.09632        -0.000990      0.001716     -0.015337
      0.56885      2.00994     30.52201        -0.000965      0.001672     -0.011421
      2.60266     -1.51271      1.12227         0.000045     -0.000078     -0.000150
      2.51011     -1.35242      8.11563         0.001384     -0.002396      0.001154
      1.67528      0.09356      5.76097         0.000883     -0.001529      0.000844
      0.84321      1.53475      3.37884         0.000005     -0.000008     -0.000135
      0.51360      2.10565     35.52308        -0.001355      0.002347     -0.001017
      2.18004     -0.78071     40.26004         0.000016     -0.000028     -0.000113
      1.34815      0.66017     37.87784        -0.000872      0.001510     -0.001110
 -----------------------------------------------------------------------------------
    total drift:                                0.000204     -0.000353      0.002255


--------------------------------------------------------------------------------------------------------



  FREE ENERGIE OF THE ION-ELECTRON SYSTEM (eV)
  ---------------------------------------------------
  free  energy   TOTEN  =      -133.96919553 eV

  energy  without entropy=     -133.96774162  energy(sigma->0) =     -133.96846858
 
 d Force = 0.8265537E-04[ 0.338E-04, 0.132E-03]  d Energy = 0.7820425E-04 0.445E-05
 d Force =-0.2239733E+01[-0.224E+01,-0.224E+01]  d Ewald  =-0.2239732E+01-0.303E-06


--------------------------------------------------------------------------------------------------------


    POTLOK:  cpu time    0.20: real time    0.20


--------------------------------------------------------------------------------------------------------


 Conjugate gradient step on ions:
 trial-energy change:   -0.000078  1 .order   -0.000083   -0.000132   -0.000034
  (g-gl).g = 0.118E-03      g.g   = 0.173E-03  gl.gl    = 0.364E-03
 g(Force)  = 0.173E-03   g(Stress)= 0.000E+00 ortho     = 0.112E-04
 gamma     =   0.32454
 trial     =   0.74341
 opt step  =   1.00024  (harmonic =   1.00024) maximal distance =0.00145606
 next E    =  -133.969206   (d E  =  -0.00009)


--------------------------------------------------------------------------------------------------------


  
 reached required accuracy - stopping structural energy minimisation
     LOOP+:  cpu time   66.82: real time   66.89
    4ORBIT:  cpu time    0.00: real time    0.00

 total amount of memory used by VASP on root node   197993. kBytes
========================================================================

   base      :      30000. kBytes
   nonl-proj :      34894. kBytes
   fftplans  :      55172. kBytes
   grid      :      22118. kBytes
   one-center:         56. kBytes
   wavefun   :      55753. kBytes
 
  
  
 General timing and accounting informations for this job:
 ========================================================
  
                  Total CPU time used (sec):     2338.013
                            User time (sec):     2322.610
                          System time (sec):       15.403
                         Elapsed time (sec):     2340.417
  
                   Maximum memory used (kb):      307360.
                   Average memory used (kb):           0.
  
                          Minor page faults:       702640
                          Major page faults:            0
                 Voluntary context switches:          335
