  19  19   0   0
  0.1525485E+02  0.3004406E-09  0.3004406E-09  0.3707778E-08  0.5000000E-15
  1.000000000000000E-004
  CAR 
 Al110                                   
     11.26720010    -20.46247512  301     -1.58314340      1.00000000
    -20.462  0.0000E+00  0.0000E+00
    -20.357  0.0000E+00  0.0000E+00
    -20.251  0.0000E+00  0.0000E+00
    -20.145  0.0000E+00  0.0000E+00
    -20.039  0.0000E+00  0.0000E+00
    -19.934  0.0000E+00  0.0000E+00
    -19.828  0.0000E+00  0.0000E+00
    -19.722  0.0000E+00  0.0000E+00
    -19.616  0.0000E+00  0.0000E+00
    -19.511  0.0000E+00  0.0000E+00
    -19.405  0.0000E+00  0.0000E+00
    -19.299  0.1837E-17  0.1943E-18
    -19.193  0.5804E-09  0.6138E-10
    -19.088  0.3373E-04  0.3567E-05
    -18.982  0.1262E-02  0.1371E-03
    -18.876  0.2539E-02  0.4056E-03
    -18.770  0.4371E-02  0.8679E-03
    -18.664  0.5774E-02  0.1479E-02
    -18.559  0.6970E-02  0.2216E-02
    -18.453  0.7277E-02  0.2985E-02
    -18.347  0.1232E-01  0.4289E-02
    -18.241  0.1214E-01  0.5573E-02
    -18.136  0.1459E-01  0.7117E-02
    -18.030  0.1976E-01  0.9207E-02
    -17.924  0.2724E-01  0.1209E-01
    -17.818  0.3794E-01  0.1610E-01
    -17.713  0.5019E-01  0.2141E-01
    -17.607  0.5840E-01  0.2759E-01
    -17.501  0.3840E-01  0.3165E-01
    -17.395  0.3336E-02  0.3200E-01
    -17.290  0.8129E-03  0.3209E-01
    -17.184  0.6702E-02  0.3279E-01
    -17.078  0.9594E-02  0.3381E-01
    -16.972  0.1423E-01  0.3531E-01
    -16.866  0.2703E-01  0.3817E-01
    -16.761  0.1697E-01  0.3997E-01
    -16.655  0.2987E-03  0.4000E-01
    -16.549  0.8168E-08  0.4000E-01
    -16.443  0.6600E-16  0.4000E-01
    -16.338  0.0000E+00  0.4000E-01
    -16.232  0.0000E+00  0.4000E-01
    -16.126  0.0000E+00  0.4000E-01
    -16.020  0.0000E+00  0.4000E-01
    -15.915  0.0000E+00  0.4000E-01
    -15.809  0.0000E+00  0.4000E-01
    -15.703  0.0000E+00  0.4000E-01
    -15.597  0.0000E+00  0.4000E-01
    -15.491  0.0000E+00  0.4000E-01
    -15.386  0.0000E+00  0.4000E-01
    -15.280  0.0000E+00  0.4000E-01
    -15.174  0.0000E+00  0.4000E-01
    -15.068  0.0000E+00  0.4000E-01
    -14.963  0.0000E+00  0.4000E-01
    -14.857  0.0000E+00  0.4000E-01
    -14.751  0.0000E+00  0.4000E-01
    -14.645  0.0000E+00  0.4000E-01
    -14.540  0.0000E+00  0.4000E-01
    -14.434  0.0000E+00  0.4000E-01
    -14.328  0.0000E+00  0.4000E-01
    -14.222  0.0000E+00  0.4000E-01
    -14.117  0.0000E+00  0.4000E-01
    -14.011  0.0000E+00  0.4000E-01
    -13.905  0.0000E+00  0.4000E-01
    -13.799  0.0000E+00  0.4000E-01
    -13.693  0.0000E+00  0.4000E-01
    -13.588  0.0000E+00  0.4000E-01
    -13.482  0.0000E+00  0.4000E-01
    -13.376  0.0000E+00  0.4000E-01
    -13.270  0.0000E+00  0.4000E-01
    -13.165  0.0000E+00  0.4000E-01
    -13.059  0.0000E+00  0.4000E-01
    -12.953  0.0000E+00  0.4000E-01
    -12.847  0.0000E+00  0.4000E-01
    -12.742  0.0000E+00  0.4000E-01
    -12.636  0.0000E+00  0.4000E-01
    -12.530  0.0000E+00  0.4000E-01
    -12.424  0.0000E+00  0.4000E-01
    -12.319  0.0000E+00  0.4000E-01
    -12.213  0.0000E+00  0.4000E-01
    -12.107  0.0000E+00  0.4000E-01
    -12.001  0.0000E+00  0.4000E-01
    -11.895  0.0000E+00  0.4000E-01
    -11.790  0.0000E+00  0.4000E-01
    -11.684  0.0000E+00  0.4000E-01
    -11.578  0.0000E+00  0.4000E-01
    -11.472  0.0000E+00  0.4000E-01
    -11.367  0.0000E+00  0.4000E-01
    -11.261  0.0000E+00  0.4000E-01
    -11.155  0.0000E+00  0.4000E-01
    -11.049  0.0000E+00  0.4000E-01
    -10.944  0.0000E+00  0.4000E-01
    -10.838  0.0000E+00  0.4000E-01
    -10.732  0.0000E+00  0.4000E-01
    -10.626  0.0000E+00  0.4000E-01
    -10.521  0.0000E+00  0.4000E-01
    -10.415  0.0000E+00  0.4000E-01
    -10.309  0.0000E+00  0.4000E-01
    -10.203  0.0000E+00  0.4000E-01
    -10.097  0.0000E+00  0.4000E-01
     -9.992  0.0000E+00  0.4000E-01
     -9.886  0.0000E+00  0.4000E-01
     -9.780  0.0000E+00  0.4000E-01
     -9.674  0.0000E+00  0.4000E-01
     -9.569  0.0000E+00  0.4000E-01
     -9.463  0.0000E+00  0.4000E-01
     -9.357  0.0000E+00  0.4000E-01
     -9.251  0.0000E+00  0.4000E-01
     -9.146  0.0000E+00  0.4000E-01
     -9.040  0.0000E+00  0.4000E-01
     -8.934  0.0000E+00  0.4000E-01
     -8.828  0.0000E+00  0.4000E-01
     -8.722  0.0000E+00  0.4000E-01
     -8.617  0.0000E+00  0.4000E-01
     -8.511  0.0000E+00  0.4000E-01
     -8.405  0.0000E+00  0.4000E-01
     -8.299  0.0000E+00  0.4000E-01
     -8.194  0.0000E+00  0.4000E-01
     -8.088  0.0000E+00  0.4000E-01
     -7.982  0.0000E+00  0.4000E-01
     -7.876  0.0000E+00  0.4000E-01
     -7.771  0.0000E+00  0.4000E-01
     -7.665  0.0000E+00  0.4000E-01
     -7.559  0.0000E+00  0.4000E-01
     -7.453  0.0000E+00  0.4000E-01
     -7.348  0.0000E+00  0.4000E-01
     -7.242  0.0000E+00  0.4000E-01
     -7.136  0.0000E+00  0.4000E-01
     -7.030  0.0000E+00  0.4000E-01
     -6.924  0.0000E+00  0.4000E-01
     -6.819  0.0000E+00  0.4000E-01
     -6.713  0.0000E+00  0.4000E-01
     -6.607  0.5249E-17  0.4000E-01
     -6.501  0.1464E-08  0.4000E-01
     -6.396  0.7847E-04  0.4001E-01
     -6.290  0.3298E-02  0.4036E-01
     -6.184  0.3784E-02  0.4076E-01
     -6.078  0.6055E-02  0.4140E-01
     -5.973  0.6556E-02  0.4209E-01
     -5.867  0.1213E-01  0.4337E-01
     -5.761  0.1359E-01  0.4481E-01
     -5.655  0.2176E-01  0.4711E-01
     -5.550  0.2800E-01  0.5007E-01
     -5.444  0.3777E-01  0.5407E-01
     -5.338  0.3635E-01  0.5791E-01
     -5.232  0.2605E-01  0.6067E-01
     -5.126  0.1965E-01  0.6275E-01
     -5.021  0.1821E-01  0.6467E-01
     -4.915  0.1558E-01  0.6632E-01
     -4.809  0.7764E-02  0.6714E-01
     -4.703  0.1200E-01  0.6841E-01
     -4.598  0.1198E-01  0.6968E-01
     -4.492  0.1413E-01  0.7117E-01
     -4.386  0.2161E-01  0.7346E-01
     -4.280  0.2526E-01  0.7613E-01
     -4.175  0.1235E-01  0.7743E-01
     -4.069  0.1824E-01  0.7936E-01
     -3.963  0.1741E-01  0.8121E-01
     -3.857  0.2069E-01  0.8339E-01
     -3.752  0.2151E-01  0.8567E-01
     -3.646  0.2078E-01  0.8787E-01
     -3.540  0.2147E-01  0.9014E-01
     -3.434  0.1751E-01  0.9199E-01
     -3.328  0.3497E-01  0.9569E-01
     -3.223  0.3590E-01  0.9948E-01
     -3.117  0.3554E-01  0.1032E+00
     -3.011  0.4188E-01  0.1077E+00
     -2.905  0.4002E-01  0.1119E+00
     -2.800  0.4176E-01  0.1163E+00
     -2.694  0.5484E-01  0.1221E+00
     -2.588  0.6363E-01  0.1289E+00
     -2.482  0.4316E-01  0.1334E+00
     -2.377  0.3310E-01  0.1369E+00
     -2.271  0.2977E-01  0.1401E+00
     -2.165  0.2573E-01  0.1428E+00
     -2.059  0.1759E-01  0.1446E+00
     -1.953  0.1447E-01  0.1462E+00
     -1.848  0.9519E-02  0.1472E+00
     -1.742  0.1623E-01  0.1489E+00
     -1.636  0.4161E-01  0.1533E+00
     -1.530  0.4210E-01  0.1578E+00
     -1.425  0.1599E-01  0.1594E+00
     -1.319  0.5001E-02  0.1600E+00
     -1.213  0.2102E-03  0.1600E+00
     -1.107  0.1394E-07  0.1600E+00
     -1.002  0.1968E-15  0.1600E+00
     -0.896  0.0000E+00  0.1600E+00
     -0.790  0.0000E+00  0.1600E+00
     -0.684  0.0000E+00  0.1600E+00
     -0.579  0.0000E+00  0.1600E+00
     -0.473  0.0000E+00  0.1600E+00
     -0.367  0.0000E+00  0.1600E+00
     -0.261  0.0000E+00  0.1600E+00
     -0.155  0.0000E+00  0.1600E+00
     -0.050  0.0000E+00  0.1600E+00
      0.056  0.0000E+00  0.1600E+00
      0.162  0.0000E+00  0.1600E+00
      0.268  0.0000E+00  0.1600E+00
      0.373  0.0000E+00  0.1600E+00
      0.479  0.0000E+00  0.1600E+00
      0.585  0.0000E+00  0.1600E+00
      0.691  0.0000E+00  0.1600E+00
      0.796  0.0000E+00  0.1600E+00
      0.902  0.0000E+00  0.1600E+00
      1.008  0.0000E+00  0.1600E+00
      1.114  0.0000E+00  0.1600E+00
      1.219  0.0000E+00  0.1600E+00
      1.325  0.0000E+00  0.1600E+00
      1.431  0.0000E+00  0.1600E+00
      1.537  0.0000E+00  0.1600E+00
      1.643  0.0000E+00  0.1600E+00
      1.748  0.0000E+00  0.1600E+00
      1.854  0.0000E+00  0.1600E+00
      1.960  0.0000E+00  0.1600E+00
      2.066  0.0000E+00  0.1600E+00
      2.171  0.0000E+00  0.1600E+00
      2.277  0.0000E+00  0.1600E+00
      2.383  0.0000E+00  0.1600E+00
      2.489  0.0000E+00  0.1600E+00
      2.594  0.0000E+00  0.1600E+00
      2.700  0.5905E-18  0.1600E+00
      2.806  0.2768E-09  0.1600E+00
      2.912  0.2401E-04  0.1600E+00
      3.017  0.9539E-03  0.1601E+00
      3.123  0.2039E-03  0.1601E+00
      3.229  0.6551E-07  0.1601E+00
      3.335  0.1363E-03  0.1601E+00
      3.441  0.1005E-02  0.1602E+00
      3.546  0.7114E-03  0.1603E+00
      3.652  0.5098E-03  0.1604E+00
      3.758  0.1070E-05  0.1604E+00
      3.864  0.2951E-03  0.1604E+00
      3.969  0.1152E-02  0.1605E+00
      4.075  0.2015E-02  0.1607E+00
      4.181  0.4865E-03  0.1608E+00
      4.287  0.1686E-02  0.1610E+00
      4.392  0.3462E-03  0.1610E+00
      4.498  0.2432E-02  0.1613E+00
      4.604  0.1050E-02  0.1614E+00
      4.710  0.1633E-02  0.1615E+00
      4.815  0.2261E-02  0.1618E+00
      4.921  0.8218E-03  0.1619E+00
      5.027  0.1176E-02  0.1620E+00
      5.133  0.3513E-02  0.1624E+00
      5.239  0.1839E-02  0.1626E+00
      5.344  0.2454E-02  0.1628E+00
      5.450  0.4008E-02  0.1632E+00
      5.556  0.1183E-02  0.1634E+00
      5.662  0.5525E-02  0.1640E+00
      5.767  0.5786E-02  0.1646E+00
      5.873  0.4126E-02  0.1650E+00
      5.979  0.3935E-02  0.1654E+00
      6.085  0.6287E-02  0.1661E+00
      6.190  0.8483E-02  0.1670E+00
      6.296  0.7761E-02  0.1678E+00
      6.402  0.5560E-02  0.1684E+00
      6.508  0.3995E-02  0.1688E+00
      6.614  0.6044E-02  0.1695E+00
      6.719  0.1132E-01  0.1707E+00
      6.825  0.6144E-02  0.1713E+00
      6.931  0.8551E-02  0.1722E+00
      7.037  0.7802E-02  0.1730E+00
      7.142  0.1067E-01  0.1742E+00
      7.248  0.1269E-01  0.1755E+00
      7.354  0.5227E-02  0.1761E+00
      7.460  0.8067E-02  0.1769E+00
      7.565  0.1298E-01  0.1783E+00
      7.671  0.1697E-01  0.1801E+00
      7.777  0.1269E-01  0.1814E+00
      7.883  0.1386E-01  0.1829E+00
      7.988  0.1590E-01  0.1846E+00
      8.094  0.1871E-01  0.1865E+00
      8.200  0.2135E-01  0.1888E+00
      8.306  0.8933E-02  0.1897E+00
      8.412  0.1708E-01  0.1916E+00
      8.517  0.9573E-02  0.1926E+00
      8.623  0.8929E-02  0.1935E+00
      8.729  0.1317E-01  0.1949E+00
      8.835  0.8619E-02  0.1958E+00
      8.940  0.6547E-02  0.1965E+00
      9.046  0.8585E-02  0.1974E+00
      9.152  0.8209E-02  0.1983E+00
      9.258  0.5857E-02  0.1989E+00
      9.363  0.2767E-02  0.1992E+00
      9.469  0.1977E-02  0.1994E+00
      9.575  0.1244E-02  0.1995E+00
      9.681  0.1949E-02  0.1997E+00
      9.786  0.4777E-03  0.1998E+00
      9.892  0.1895E-02  0.2000E+00
      9.998  0.4988E-04  0.2000E+00
     10.104  0.7004E-09  0.2000E+00
     10.210  0.1968E-17  0.2000E+00
     10.315  0.0000E+00  0.2000E+00
     10.421  0.0000E+00  0.2000E+00
     10.527  0.0000E+00  0.2000E+00
     10.633  0.0000E+00  0.2000E+00
     10.738  0.0000E+00  0.2000E+00
     10.844  0.0000E+00  0.2000E+00
     10.950  0.0000E+00  0.2000E+00
     11.056  0.0000E+00  0.2000E+00
     11.161  0.0000E+00  0.2000E+00
     11.267  0.0000E+00  0.2000E+00
