       N       E                     dE             d eps       ncg     rms          rms(c)
DAV:   1     0.587843841077E+03    0.58784E+03   -0.36741E+04  2000   0.135E+03
DAV:   2    -0.561216082994E+02   -0.64397E+03   -0.63051E+03  2670   0.316E+02
DAV:   3    -0.119821246927E+03   -0.63700E+02   -0.63063E+02  2380   0.107E+02
DAV:   4    -0.121189784746E+03   -0.13685E+01   -0.13647E+01  2370   0.176E+01
DAV:   5    -0.121222188399E+03   -0.32404E-01   -0.32393E-01  2350   0.253E+00
DAV:   6    -0.121223357827E+03   -0.11694E-02   -0.11691E-02  2440   0.468E-01
DAV:   7    -0.121223401814E+03   -0.43987E-04   -0.43984E-04  2360   0.813E-02
DAV:   8    -0.121223403776E+03   -0.19624E-05   -0.19625E-05  1790   0.164E-02    0.212E+01
RMM:   9    -0.108311407405E+03    0.12912E+02   -0.63358E+01  2000   0.289E+01    0.761E+00
RMM:  10    -0.108433888085E+03   -0.12248E+00   -0.23663E+00  2000   0.483E+00    0.543E+00
RMM:  11    -0.108072757540E+03    0.36113E+00   -0.43810E-01  2000   0.216E+00    0.355E+00
RMM:  12    -0.108729976669E+03   -0.65722E+00   -0.12107E+00  2000   0.406E+00    0.955E+00
RMM:  13    -0.108061317476E+03    0.66866E+00   -0.81693E-01  2000   0.254E+00    0.121E+00
RMM:  14    -0.108046504739E+03    0.14813E-01   -0.15478E-02  2000   0.543E-01    0.101E+00
RMM:  15    -0.107994984424E+03    0.51520E-01   -0.94831E-02  2000   0.813E-01    0.638E-01
RMM:  16    -0.107995831354E+03   -0.84693E-03   -0.34216E-02  2000   0.596E-01    0.786E-01
RMM:  17    -0.107993452281E+03    0.23791E-02   -0.25456E-03  2008   0.209E-01    0.439E-01
RMM:  18    -0.107995229733E+03   -0.17775E-02   -0.26797E-03  2000   0.183E-01    0.333E-01
RMM:  19    -0.107991699046E+03    0.35307E-02   -0.13445E-03  1973   0.125E-01    0.273E-01
RMM:  20    -0.107989522929E+03    0.21761E-02   -0.82708E-04  1859   0.674E-02    0.228E-01
RMM:  21    -0.107987855146E+03    0.16678E-02   -0.12017E-03  1948   0.828E-02    0.134E-01
RMM:  22    -0.107987653722E+03    0.20142E-03   -0.29724E-04  1916   0.424E-02    0.113E-01
RMM:  23    -0.107987668197E+03   -0.14475E-04   -0.92198E-06  1189   0.118E-02    0.101E-01
RMM:  24    -0.107987642463E+03    0.25734E-04   -0.16939E-04  1872   0.420E-02    0.632E-02
RMM:  25    -0.107987640620E+03    0.18424E-05   -0.31043E-05  1372   0.239E-02
   1 F= -.10798764E+03 E0= -.10797682E+03  d E =-.107988E+03
       N       E                     dE             d eps       ncg     rms          rms(c)
DAV:   1    -0.108191542541E+03   -0.20390E+00   -0.22382E+01  2260   0.190E+01
DAV:   2    -0.108229933457E+03   -0.38391E-01   -0.38387E-01  2380   0.250E+00
DAV:   3    -0.108230234001E+03   -0.30054E-03   -0.30054E-03  2540   0.204E-01
DAV:   4    -0.108230237733E+03   -0.37322E-05   -0.37322E-05  2280   0.238E-02
DAV:   5    -0.108230237863E+03   -0.12988E-06   -0.12982E-06  1600   0.419E-03
DAV:   6    -0.108230237887E+03   -0.23925E-07   -0.23775E-07  1530   0.162E-03
DAV:   7    -0.108230237895E+03   -0.77334E-08   -0.80292E-08  1460   0.874E-04
DAV:   8    -0.108230237898E+03   -0.30977E-08   -0.29439E-08  1400   0.514E-04    0.346E+00
RMM:   9    -0.108394857543E+03   -0.16462E+00   -0.73069E-01  2000   0.238E+00    0.341E+00
RMM:  10    -0.108160968170E+03    0.23389E+00   -0.20107E-01  2000   0.146E+00    0.924E-01
RMM:  11    -0.108167418406E+03   -0.64502E-02   -0.94077E-02  2000   0.796E-01    0.161E+00
RMM:  12    -0.108143469476E+03    0.23949E-01   -0.98620E-03  2000   0.383E-01    0.253E-01
RMM:  13    -0.108144187290E+03   -0.71781E-03   -0.70301E-03  1992   0.272E-01    0.895E-02
RMM:  14    -0.108144457355E+03   -0.27007E-03   -0.54039E-04  1943   0.834E-02    0.125E-01
RMM:  15    -0.108144306215E+03    0.15114E-03   -0.89879E-05  1652   0.306E-02    0.889E-02
RMM:  16    -0.108144336429E+03   -0.30214E-04   -0.41244E-04  1880   0.587E-02    0.881E-02
RMM:  17    -0.108144282483E+03    0.53946E-04   -0.61353E-05  1589   0.314E-02    0.800E-03
RMM:  18    -0.108144340984E+03   -0.58502E-04   -0.12587E-05  1181   0.115E-02    0.114E-02
RMM:  19    -0.108144380912E+03   -0.39928E-04   -0.76444E-06  1008   0.702E-03    0.803E-03
RMM:  20    -0.108144403424E+03   -0.22512E-04   -0.29070E-06   891   0.525E-03    0.117E-03
RMM:  21    -0.108144412500E+03   -0.90760E-05   -0.10412E-06   542   0.317E-03
   2 F= -.10814441E+03 E0= -.10813053E+03  d E =-.156772E+00
       N       E                     dE             d eps       ncg     rms          rms(c)
DAV:   1    -0.108451916136E+03   -0.30751E+00   -0.67214E+01  2090   0.333E+01
DAV:   2    -0.108576666331E+03   -0.12475E+00   -0.12468E+00  2380   0.469E+00
DAV:   3    -0.108577594161E+03   -0.92783E-03   -0.92781E-03  2540   0.384E-01
DAV:   4    -0.108577607110E+03   -0.12948E-04   -0.12948E-04  2430   0.450E-02
DAV:   5    -0.108577607501E+03   -0.39117E-06   -0.39138E-06  1600   0.709E-03
DAV:   6    -0.108577607555E+03   -0.53470E-07   -0.53353E-07  1490   0.254E-03
DAV:   7    -0.108577607571E+03   -0.16749E-07   -0.16884E-07  1470   0.132E-03
DAV:   8    -0.108577607578E+03   -0.63283E-08   -0.60204E-08  1450   0.768E-04    0.598E+00
RMM:   9    -0.110091706839E+03   -0.15141E+01   -0.51378E+00  2000   0.605E+00    0.740E+00
RMM:  10    -0.108694073538E+03    0.13976E+01   -0.11111E+00  2000   0.319E+00    0.341E+00
RMM:  11    -0.108553938552E+03    0.14013E+00   -0.83667E-02  2039   0.697E-01    0.277E+00
RMM:  12    -0.108270406129E+03    0.28353E+00   -0.18494E-01  2000   0.950E-01    0.109E+00
RMM:  13    -0.108286763096E+03   -0.16357E-01   -0.66555E-02  2015   0.627E-01    0.129E+00
RMM:  14    -0.108260371667E+03    0.26391E-01   -0.14247E-02  2000   0.374E-01    0.397E-01
RMM:  15    -0.108269289301E+03   -0.89176E-02   -0.55825E-03  1980   0.218E-01    0.501E-01
RMM:  16    -0.108263190709E+03    0.60986E-02   -0.33864E-03  2000   0.203E-01    0.222E-01
RMM:  17    -0.108265301072E+03   -0.21104E-02   -0.20915E-03  1943   0.144E-01    0.435E-01
RMM:  18    -0.108261493620E+03    0.38075E-02   -0.37020E-04  1848   0.574E-02    0.285E-01
RMM:  19    -0.108258900506E+03    0.25931E-02   -0.77193E-04  1914   0.717E-02    0.169E-01
RMM:  20    -0.108258154058E+03    0.74645E-03   -0.47515E-04  1930   0.597E-02    0.108E-01
RMM:  21    -0.108257959310E+03    0.19475E-03   -0.14792E-04  1736   0.314E-02    0.696E-02
RMM:  22    -0.108257979103E+03   -0.19792E-04   -0.19656E-04  1771   0.339E-02    0.432E-02
RMM:  23    -0.108257995113E+03   -0.16011E-04   -0.10948E-05  1205   0.145E-02    0.324E-02
RMM:  24    -0.108257988502E+03    0.66111E-05   -0.87912E-06  1140   0.107E-02
   3 F= -.10825799E+03 E0= -.10824419E+03  d E =-.270348E+00
       N       E                     dE             d eps       ncg     rms          rms(c)
DAV:   1    -0.108258850831E+03   -0.85572E-03   -0.21789E-01  2470   0.193E+00
DAV:   2    -0.108259221819E+03   -0.37099E-03   -0.37099E-03  2280   0.248E-01
DAV:   3    -0.108259224729E+03   -0.29106E-05   -0.29105E-05  2200   0.199E-02
DAV:   4    -0.108259224838E+03   -0.10824E-06   -0.10832E-06  1450   0.389E-03
DAV:   5    -0.108259224865E+03   -0.27013E-07   -0.27044E-07  1270   0.170E-03
DAV:   6    -0.108259224873E+03   -0.81573E-08   -0.81410E-08  1270   0.897E-04
DAV:   7    -0.108259224876E+03   -0.27685E-08   -0.25835E-08  1270   0.488E-04
DAV:   8    -0.108259224876E+03   -0.70122E-09   -0.85177E-09  1270   0.276E-04    0.330E-01
RMM:   9    -0.108267131957E+03   -0.79071E-02   -0.11648E-02  1994   0.303E-01    0.820E-01
RMM:  10    -0.108258163687E+03    0.89683E-02   -0.70399E-03  1993   0.255E-01    0.116E-01
RMM:  11    -0.108258233253E+03   -0.69566E-04   -0.86275E-05  1615   0.484E-02    0.111E-02
RMM:  12    -0.108258232425E+03    0.82795E-06   -0.18487E-05  1241   0.128E-02
   4 F= -.10825823E+03 E0= -.10824453E+03  d E =-.270592E+00
       N       E                     dE             d eps       ncg     rms          rms(c)
DAV:   1    -0.108279745718E+03   -0.21512E-01   -0.17261E+01  2050   0.184E+01
DAV:   2    -0.108309262069E+03   -0.29516E-01   -0.29514E-01  2350   0.230E+00
DAV:   3    -0.108309478094E+03   -0.21603E-03   -0.21602E-03  2620   0.173E-01
DAV:   4    -0.108309479744E+03   -0.16497E-05   -0.16497E-05  2000   0.177E-02
DAV:   5    -0.108309479834E+03   -0.90006E-07   -0.90000E-07  1550   0.431E-03
DAV:   6    -0.108309479856E+03   -0.22145E-07   -0.22292E-07  1450   0.193E-03
DAV:   7    -0.108309479863E+03   -0.69558E-08   -0.70101E-08  1380   0.103E-03
DAV:   8    -0.108309479865E+03   -0.24256E-08   -0.23338E-08  1340   0.575E-04    0.136E+00
RMM:   9    -0.108384876118E+03   -0.75396E-01   -0.15701E-01  2000   0.108E+00    0.248E+00
RMM:  10    -0.108287592243E+03    0.97284E-01   -0.89214E-02  2000   0.917E-01    0.322E-01
RMM:  11    -0.108288021011E+03   -0.42877E-03   -0.29110E-03  1963   0.187E-01    0.832E-02
RMM:  12    -0.108287815615E+03    0.20540E-03   -0.75350E-04  1947   0.826E-02    0.313E-02
RMM:  13    -0.108287793801E+03    0.21813E-04   -0.13329E-04  1704   0.322E-02    0.141E-02
RMM:  14    -0.108287811921E+03   -0.18119E-04   -0.25995E-05  1318   0.153E-02    0.213E-02
RMM:  15    -0.108287817023E+03   -0.51018E-05   -0.71808E-06  1105   0.860E-03
   5 F= -.10828782E+03 E0= -.10827421E+03  d E =-.295846E-01
       N       E                     dE             d eps       ncg     rms          rms(c)
DAV:   1    -0.108289412208E+03   -0.16003E-02   -0.42103E+00  2060   0.914E+00
DAV:   2    -0.108296481771E+03   -0.70696E-02   -0.70694E-02  2400   0.114E+00
DAV:   3    -0.108296533400E+03   -0.51629E-04   -0.51629E-04  2560   0.834E-02
DAV:   4    -0.108296533727E+03   -0.32703E-06   -0.32747E-06  1600   0.845E-03
DAV:   5    -0.108296533776E+03   -0.49026E-07   -0.48459E-07  1410   0.289E-03
DAV:   6    -0.108296533790E+03   -0.13651E-07   -0.14026E-07  1380   0.143E-03
DAV:   7    -0.108296533795E+03   -0.48976E-08   -0.46571E-08  1310   0.776E-04
DAV:   8    -0.108296533796E+03   -0.14534E-08   -0.16303E-08  1300   0.439E-04    0.668E-01
RMM:   9    -0.108311950963E+03   -0.15417E-01   -0.34088E-02  1999   0.520E-01    0.117E+00
RMM:  10    -0.108291877921E+03    0.20073E-01   -0.22150E-02  1999   0.454E-01    0.251E-01
RMM:  11    -0.108291329268E+03    0.54865E-03   -0.76947E-04  1951   0.104E-01    0.459E-02
RMM:  12    -0.108291296788E+03    0.32480E-04   -0.22957E-04  1796   0.413E-02    0.583E-02
RMM:  13    -0.108291248820E+03    0.47968E-04   -0.62613E-05  1618   0.251E-02    0.148E-02
RMM:  14    -0.108291259813E+03   -0.10993E-04   -0.11729E-05  1234   0.110E-02    0.790E-03
RMM:  15    -0.108291277900E+03   -0.18086E-04   -0.34739E-06  1029   0.623E-03    0.193E-03
RMM:  16    -0.108291295065E+03   -0.17166E-04   -0.19800E-06   779   0.418E-03    0.121E-03
RMM:  17    -0.108291313570E+03   -0.18505E-04   -0.27030E-06   774   0.420E-03    0.515E-04
RMM:  18    -0.108291318426E+03   -0.48557E-05   -0.64346E-07   524   0.304E-03
   6 F= -.10829132E+03 E0= -.10827768E+03  d E =-.330860E-01
       N       E                     dE             d eps       ncg     rms          rms(c)
DAV:   1    -0.108295931124E+03   -0.46176E-02   -0.38115E+00  2190   0.990E+00
DAV:   2    -0.108302941309E+03   -0.70102E-02   -0.70102E-02  2380   0.126E+00
DAV:   3    -0.108302986169E+03   -0.44860E-04   -0.44860E-04  2460   0.897E-02
DAV:   4    -0.108302986678E+03   -0.50986E-06   -0.50993E-06  1670   0.102E-02
DAV:   5    -0.108302986742E+03   -0.63860E-07   -0.63837E-07  1490   0.345E-03
DAV:   6    -0.108302986761E+03   -0.18542E-07   -0.18555E-07  1420   0.167E-03
DAV:   7    -0.108302986767E+03   -0.64156E-08   -0.63580E-08  1350   0.926E-04
DAV:   8    -0.108302986770E+03   -0.24183E-08   -0.22746E-08  1330   0.526E-04    0.232E-01
RMM:   9    -0.108302620363E+03    0.36641E-03   -0.66121E-03  1999   0.258E-01    0.347E-01
RMM:  10    -0.108301018101E+03    0.16023E-02   -0.21222E-03  1973   0.141E-01    0.138E-01
RMM:  11    -0.108300703384E+03    0.31472E-03   -0.10718E-03  1992   0.108E-01    0.436E-02
RMM:  12    -0.108300691185E+03    0.12198E-04   -0.73952E-05  1742   0.286E-02    0.226E-02
RMM:  13    -0.108300689633E+03    0.15525E-05   -0.25955E-05  1372   0.200E-02
   7 F= -.10830069E+03 E0= -.10828723E+03  d E =-.937121E-02
       N       E                     dE             d eps       ncg     rms          rms(c)
DAV:   1    -0.108299837593E+03    0.85359E-03   -0.17326E+00  2150   0.667E+00
DAV:   2    -0.108303026913E+03   -0.31893E-02   -0.31893E-02  2400   0.851E-01
DAV:   3    -0.108303047437E+03   -0.20525E-04   -0.20525E-04  2430   0.605E-02
DAV:   4    -0.108303047662E+03   -0.22495E-06   -0.22487E-06  1640   0.685E-03
DAV:   5    -0.108303047695E+03   -0.32512E-07   -0.32467E-07  1400   0.237E-03
DAV:   6    -0.108303047705E+03   -0.97571E-08   -0.98200E-08  1330   0.116E-03
DAV:   7    -0.108303047708E+03   -0.34970E-08   -0.34243E-08  1330   0.649E-04
DAV:   8    -0.108303047709E+03   -0.12778E-08   -0.12433E-08  1300   0.369E-04    0.155E-01
RMM:   9    -0.108302746680E+03    0.30103E-03   -0.28503E-03  1991   0.170E-01    0.209E-01
RMM:  10    -0.108302140083E+03    0.60660E-03   -0.87989E-04  1958   0.911E-02    0.913E-02
RMM:  11    -0.108302000116E+03    0.13997E-03   -0.49790E-04  1955   0.735E-02    0.276E-02
RMM:  12    -0.108301996519E+03    0.35973E-05   -0.29582E-05  1437   0.186E-02
   8 F= -.10830200E+03 E0= -.10828868E+03  d E =-.106781E-01
       N       E                     dE             d eps       ncg     rms          rms(c)
DAV:   1    -0.108303215719E+03   -0.12156E-02   -0.12942E+00  2020   0.573E+00
DAV:   2    -0.108305835750E+03   -0.26200E-02   -0.26200E-02  2400   0.757E-01
DAV:   3    -0.108305860279E+03   -0.24530E-04   -0.24530E-04  2460   0.611E-02
DAV:   4    -0.108305860464E+03   -0.18474E-06   -0.18463E-06  1610   0.656E-03
DAV:   5    -0.108305860492E+03   -0.27870E-07   -0.27986E-07  1420   0.225E-03
DAV:   6    -0.108305860500E+03   -0.82855E-08   -0.82155E-08  1330   0.110E-03
DAV:   7    -0.108305860503E+03   -0.28604E-08   -0.28117E-08  1300   0.604E-04
DAV:   8    -0.108305860504E+03   -0.11923E-08   -0.10073E-08  1270   0.346E-04    0.215E-01
RMM:   9    -0.108308334928E+03   -0.24744E-02   -0.64557E-03  1999   0.239E-01    0.493E-01
RMM:  10    -0.108304832388E+03    0.35025E-02   -0.27849E-03  1979   0.161E-01    0.569E-02
RMM:  11    -0.108304917014E+03   -0.84626E-04   -0.33964E-04  1995   0.699E-02    0.179E-02
RMM:  12    -0.108304918515E+03   -0.15008E-05   -0.19392E-05  1264   0.162E-02
   9 F= -.10830492E+03 E0= -.10829181E+03  d E =-.292200E-02
       N       E                     dE             d eps       ncg     rms          rms(c)
DAV:   1    -0.108304917243E+03   -0.22898E-06   -0.59855E-03  2430   0.391E-01
DAV:   2    -0.108304930926E+03   -0.13683E-04   -0.13683E-04  2330   0.542E-02
DAV:   3    -0.108304931028E+03   -0.10170E-06   -0.10153E-06  1520   0.452E-03
DAV:   4    -0.108304931049E+03   -0.21072E-07   -0.21191E-07  1250   0.172E-03
DAV:   5    -0.108304931056E+03   -0.68549E-08   -0.70066E-08  1240   0.850E-04
DAV:   6    -0.108304931058E+03   -0.26330E-08   -0.25522E-08  1240   0.482E-04
DAV:   7    -0.108304931059E+03   -0.86675E-09   -0.96726E-09  1220   0.268E-04
DAV:   8    -0.108304931060E+03   -0.45748E-09   -0.37733E-09  1180   0.163E-04    0.175E-02
RMM:   9    -0.108304950079E+03   -0.19019E-04   -0.39985E-05  1334   0.185E-02    0.400E-02
RMM:  10    -0.108304923379E+03    0.26700E-04   -0.16153E-05  1153   0.125E-02    0.439E-03
RMM:  11    -0.108304929372E+03   -0.59938E-05   -0.27141E-06  1081   0.664E-03
  10 F= -.10830493E+03 E0= -.10829185E+03  d E =-.293285E-02
       N       E                     dE             d eps       ncg     rms          rms(c)
DAV:   1    -0.108304913323E+03    0.10055E-04   -0.12752E+00  2100   0.579E+00
DAV:   2    -0.108307267465E+03   -0.23541E-02   -0.23541E-02  2380   0.740E-01
DAV:   3    -0.108307284912E+03   -0.17447E-04   -0.17447E-04  2510   0.549E-02
DAV:   4    -0.108307285075E+03   -0.16276E-06   -0.16252E-06  1470   0.612E-03
DAV:   5    -0.108307285100E+03   -0.25605E-07   -0.25645E-07  1380   0.214E-03
DAV:   6    -0.108307285108E+03   -0.77571E-08   -0.77651E-08  1270   0.106E-03
DAV:   7    -0.108307285110E+03   -0.23902E-08   -0.26775E-08  1260   0.589E-04
DAV:   8    -0.108307285112E+03   -0.13988E-08   -0.96257E-09  1220   0.336E-04    0.115E-01
RMM:   9    -0.108306857539E+03    0.42757E-03   -0.67763E-04  1999   0.878E-02    0.711E-02
RMM:  10    -0.108306876133E+03   -0.18595E-04   -0.32758E-04  1923   0.575E-02    0.922E-02
RMM:  11    -0.108306729547E+03    0.14659E-03   -0.21754E-04  1907   0.482E-02    0.307E-02
RMM:  12    -0.108306733240E+03   -0.36926E-05   -0.31359E-05  1414   0.222E-02
  11 F= -.10830673E+03 E0= -.10829369E+03  d E =-.180387E-02
       N       E                     dE             d eps       ncg     rms          rms(c)
DAV:   1    -0.108306633327E+03    0.96221E-04   -0.10062E-01  2360   0.163E+00
DAV:   2    -0.108306824817E+03   -0.19149E-03   -0.19149E-03  2380   0.211E-01
DAV:   3    -0.108306826089E+03   -0.12715E-05   -0.12712E-05  1720   0.156E-02
DAV:   4    -0.108306826190E+03   -0.10142E-06   -0.10137E-06  1440   0.478E-03
DAV:   5    -0.108306826214E+03   -0.23602E-07   -0.23641E-07  1290   0.209E-03
DAV:   6    -0.108306826221E+03   -0.72951E-08   -0.73065E-08  1240   0.107E-03
DAV:   7    -0.108306826223E+03   -0.24847E-08   -0.24436E-08  1210   0.592E-04
DAV:   8    -0.108306826224E+03   -0.68849E-09   -0.85848E-09  1210   0.332E-04    0.325E-02
RMM:   9    -0.108306790744E+03    0.35480E-04   -0.54197E-05  1793   0.251E-02    0.214E-02
RMM:  10    -0.108306794415E+03   -0.36706E-05   -0.24886E-05  1323   0.164E-02
  12 F= -.10830679E+03 E0= -.10829384E+03  d E =-.186504E-02
       N       E                     dE             d eps       ncg     rms          rms(c)
DAV:   1    -0.108305539701E+03    0.12510E-02   -0.17526E+00  2100   0.670E+00
DAV:   2    -0.108308760744E+03   -0.32210E-02   -0.32210E-02  2350   0.860E-01
DAV:   3    -0.108308784910E+03   -0.24166E-04   -0.24167E-04  2510   0.637E-02
DAV:   4    -0.108308785143E+03   -0.23247E-06   -0.23235E-06  1540   0.711E-03
DAV:   5    -0.108308785180E+03   -0.37253E-07   -0.37102E-07  1380   0.244E-03
DAV:   6    -0.108308785192E+03   -0.11410E-07   -0.11443E-07  1300   0.121E-03
DAV:   7    -0.108308785195E+03   -0.36625E-08   -0.39751E-08  1280   0.679E-04
DAV:   8    -0.108308785197E+03   -0.17326E-08   -0.14364E-08  1240   0.386E-04    0.236E-01
RMM:   9    -0.108309099118E+03   -0.31392E-03   -0.32032E-03  2000   0.178E-01    0.308E-01
RMM:  10    -0.108307985150E+03    0.11140E-02   -0.20577E-03  1983   0.140E-01    0.127E-01
RMM:  11    -0.108307713864E+03    0.27129E-03   -0.30856E-04  1927   0.616E-02    0.292E-02
RMM:  12    -0.108307697747E+03    0.16117E-04   -0.11451E-04  1800   0.353E-02    0.959E-03
RMM:  13    -0.108307695650E+03    0.20973E-05   -0.55780E-06  1200   0.849E-03
  13 F= -.10830770E+03 E0= -.10829466E+03  d E =-.901235E-03
       N       E                     dE             d eps       ncg     rms          rms(c)
DAV:   1    -0.108307696545E+03    0.12023E-05   -0.30415E-06  1370   0.206E-02
DAV:   2    -0.108307696696E+03   -0.15176E-06   -0.15199E-06  1460   0.543E-03
DAV:   3    -0.108307696716E+03   -0.19052E-07   -0.18905E-07  1450   0.177E-03
DAV:   4    -0.108307696720E+03   -0.42455E-08   -0.43696E-08  1270   0.744E-04
DAV:   5    -0.108307696721E+03   -0.13442E-08   -0.13201E-08  1270   0.383E-04
DAV:   6    -0.108307696722E+03   -0.50477E-09   -0.44186E-09  1210   0.206E-04
DAV:   7    -0.108307696722E+03    0.66393E-10   -0.15806E-09  1190   0.120E-04
DAV:   8    -0.108307696722E+03   -0.13551E-09   -0.58197E-10  1160   0.690E-05    0.190E-03
RMM:   9    -0.108307697730E+03   -0.10082E-05   -0.45248E-08   169   0.162E-03
  14 F= -.10830770E+03 E0= -.10829468E+03  d E =-.903315E-03
       N       E                     dE             d eps       ncg     rms          rms(c)
DAV:   1    -0.108307506942E+03    0.18978E-03   -0.41748E-01  2100   0.315E+00
DAV:   2    -0.108308272911E+03   -0.76597E-03   -0.76597E-03  2310   0.404E-01
DAV:   3    -0.108308279296E+03   -0.63851E-05   -0.63853E-05  2310   0.310E-02
DAV:   4    -0.108308279401E+03   -0.10499E-06   -0.10478E-06  1470   0.441E-03
DAV:   5    -0.108308279423E+03   -0.21863E-07   -0.21857E-07  1250   0.172E-03
DAV:   6    -0.108308279429E+03   -0.61455E-08   -0.63773E-08  1150   0.863E-04
DAV:   7    -0.108308279431E+03   -0.21564E-08   -0.20273E-08  1150   0.473E-04
DAV:   8    -0.108308279432E+03   -0.52569E-09   -0.67433E-09  1150   0.266E-04    0.879E-02
RMM:   9    -0.108308116339E+03    0.16309E-03   -0.28942E-04  1903   0.560E-02    0.642E-02
RMM:  10    -0.108308126659E+03   -0.10320E-04   -0.18982E-04  1857   0.433E-02    0.644E-02
RMM:  11    -0.108308045321E+03    0.81338E-04   -0.74754E-05  1669   0.275E-02    0.169E-02
RMM:  12    -0.108308045688E+03   -0.36665E-06   -0.23923E-05  1318   0.168E-02
  15 F= -.10830805E+03 E0= -.10829504E+03  d E =-.347958E-03
       N       E                     dE             d eps       ncg     rms          rms(c)
DAV:   1    -0.108308044636E+03    0.68506E-06   -0.59035E-05  1960   0.443E-02
DAV:   2    -0.108308044972E+03   -0.33573E-06   -0.33591E-06  1490   0.933E-03
DAV:   3    -0.108308044998E+03   -0.25627E-07   -0.25476E-07  1470   0.240E-03
DAV:   4    -0.108308045002E+03   -0.48822E-08   -0.47331E-08  1270   0.932E-04
DAV:   5    -0.108308045004E+03   -0.11232E-08   -0.13065E-08  1240   0.445E-04
DAV:   6    -0.108308045004E+03   -0.43201E-09   -0.41932E-09  1230   0.232E-04
DAV:   7    -0.108308045004E+03   -0.22010E-09   -0.14640E-09  1210   0.132E-04
DAV:   8    -0.108308045004E+03   -0.17826E-09   -0.52933E-10  1170   0.741E-05    0.287E-03
RMM:   9    -0.108308045506E+03   -0.50142E-06   -0.84084E-08   243   0.208E-03
  16 F= -.10830805E+03 E0= -.10829505E+03  d E =-.347776E-03
       N       E                     dE             d eps       ncg     rms          rms(c)
DAV:   1    -0.108308113013E+03   -0.68009E-04   -0.19475E-01  2100   0.201E+00
DAV:   2    -0.108308456271E+03   -0.34326E-03   -0.34326E-03  2310   0.252E-01
DAV:   3    -0.108308459664E+03   -0.33923E-05   -0.33923E-05  2140   0.209E-02
DAV:   4    -0.108308459770E+03   -0.10683E-06   -0.10693E-06  1350   0.428E-03
DAV:   5    -0.108308459798E+03   -0.27123E-07   -0.27127E-07  1270   0.191E-03
DAV:   6    -0.108308459806E+03   -0.82464E-08   -0.81119E-08  1240   0.989E-04
DAV:   7    -0.108308459808E+03   -0.25984E-08   -0.25795E-08  1220   0.529E-04
DAV:   8    -0.108308459809E+03   -0.65393E-09   -0.85276E-09  1180   0.298E-04    0.481E-02
RMM:   9    -0.108308418839E+03    0.40970E-04   -0.43879E-05  1457   0.224E-02    0.356E-02
RMM:  10    -0.108308429015E+03   -0.10176E-04   -0.57041E-05  1449   0.228E-02    0.371E-02
RMM:  11    -0.108308402959E+03    0.26056E-04   -0.19676E-05  1296   0.148E-02    0.105E-02
RMM:  12    -0.108308408162E+03   -0.52032E-05   -0.74895E-06  1190   0.106E-02
  17 F= -.10830841E+03 E0= -.10829544E+03  d E =-.362657E-03
       N       E                     dE             d eps       ncg     rms          rms(c)
DAV:   1    -0.108307694401E+03    0.70856E-03   -0.56081E-01  2100   0.342E+00
DAV:   2    -0.108308683550E+03   -0.98915E-03   -0.98914E-03  2400   0.429E-01
DAV:   3    -0.108308693543E+03   -0.99929E-05   -0.99929E-05  2360   0.355E-02
DAV:   4    -0.108308693662E+03   -0.11945E-06   -0.11961E-06  1480   0.461E-03
DAV:   5    -0.108308693687E+03   -0.24891E-07   -0.24643E-07  1350   0.175E-03
DAV:   6    -0.108308693694E+03   -0.72978E-08   -0.73356E-08  1250   0.883E-04
DAV:   7    -0.108308693697E+03   -0.23165E-08   -0.23693E-08  1230   0.485E-04
DAV:   8    -0.108308693697E+03   -0.64665E-09   -0.79612E-09  1240   0.274E-04    0.822E-02
RMM:   9    -0.108308584903E+03    0.10879E-03   -0.13526E-04  1807   0.387E-02    0.642E-02
RMM:  10    -0.108308598121E+03   -0.13218E-04   -0.17322E-04  1758   0.398E-02    0.620E-02
RMM:  11    -0.108308528542E+03    0.69579E-04   -0.58898E-05  1610   0.256E-02    0.184E-02
RMM:  12    -0.108308532472E+03   -0.39299E-05   -0.20831E-05  1306   0.178E-02
  18 F= -.10830853E+03 E0= -.10829563E+03  d E =-.486966E-03
       N       E                     dE             d eps       ncg     rms          rms(c)
DAV:   1    -0.108308499272E+03    0.29271E-04   -0.58136E-02  2380   0.110E+00
DAV:   2    -0.108308600261E+03   -0.10099E-03   -0.10099E-03  2290   0.136E-01
DAV:   3    -0.108308601247E+03   -0.98542E-06   -0.98534E-06  1760   0.112E-02
DAV:   4    -0.108308601293E+03   -0.46861E-07   -0.46964E-07  1320   0.303E-03
DAV:   5    -0.108308601305E+03   -0.11067E-07   -0.10910E-07  1240   0.134E-03
DAV:   6    -0.108308601308E+03   -0.30932E-08   -0.32597E-08  1240   0.678E-04
DAV:   7    -0.108308601309E+03   -0.12869E-08   -0.10546E-08  1220   0.363E-04
DAV:   8    -0.108308601309E+03   -0.10368E-09   -0.35866E-09  1180   0.201E-04    0.278E-02
RMM:   9    -0.108308590639E+03    0.10670E-04   -0.17976E-05  1267   0.140E-02    0.252E-02
RMM:  10    -0.108308590439E+03    0.20018E-06   -0.20068E-05  1213   0.138E-02
  19 F= -.10830859E+03 E0= -.10829561E+03  d E =-.544933E-03
       N       E                     dE             d eps       ncg     rms          rms(c)
DAV:   1    -0.108308658604E+03   -0.67965E-04   -0.31708E-02  2110   0.893E-01
DAV:   2    -0.108308717237E+03   -0.58632E-04   -0.58632E-04  2380   0.114E-01
DAV:   3    -0.108308717614E+03   -0.37736E-06   -0.37721E-06  1460   0.855E-03
DAV:   4    -0.108308717680E+03   -0.65370E-07   -0.65452E-07  1240   0.310E-03
DAV:   5    -0.108308717700E+03   -0.20419E-07   -0.20349E-07  1170   0.147E-03
DAV:   6    -0.108308717707E+03   -0.68567E-08   -0.71230E-08  1060   0.814E-04
DAV:   7    -0.108308717710E+03   -0.28767E-08   -0.26130E-08  1060   0.441E-04
DAV:   8    -0.108308717711E+03   -0.96315E-09   -0.99272E-09  1030   0.263E-04    0.122E-02
RMM:   9    -0.108308715075E+03    0.26358E-05   -0.47529E-06  1065   0.836E-03
  20 F= -.10830872E+03 E0= -.10829579E+03  d E =-.124636E-03
       N       E                     dE             d eps       ncg     rms          rms(c)
DAV:   1    -0.108308548074E+03    0.16964E-03   -0.28274E-01  2050   0.266E+00
DAV:   2    -0.108309065945E+03   -0.51787E-03   -0.51787E-03  2400   0.340E-01
DAV:   3    -0.108309070146E+03   -0.42016E-05   -0.42019E-05  2140   0.256E-02
DAV:   4    -0.108309070260E+03   -0.11390E-06   -0.11369E-06  1360   0.455E-03
DAV:   5    -0.108309070287E+03   -0.26394E-07   -0.26464E-07  1260   0.191E-03
DAV:   6    -0.108309070294E+03   -0.79881E-08   -0.77358E-08  1240   0.972E-04
DAV:   7    -0.108309070297E+03   -0.22492E-08   -0.24334E-08  1230   0.525E-04
DAV:   8    -0.108309070297E+03   -0.74215E-09   -0.79930E-09  1180   0.294E-04    0.463E-02
RMM:   9    -0.108309012932E+03    0.57365E-04   -0.60647E-05  1819   0.296E-02    0.245E-02
RMM:  10    -0.108309013048E+03   -0.11593E-06   -0.38771E-05  1470   0.232E-02
  21 F= -.10830901E+03 E0= -.10829616E+03  d E =-.422609E-03
       N       E                     dE             d eps       ncg     rms          rms(c)
DAV:   1    -0.108307181306E+03    0.18316E-02   -0.11324E+00  2040   0.533E+00
DAV:   2    -0.108309279539E+03   -0.20982E-02   -0.20982E-02  2320   0.683E-01
DAV:   3    -0.108309297362E+03   -0.17823E-04   -0.17823E-04  2520   0.519E-02
DAV:   4    -0.108309297516E+03   -0.15394E-06   -0.15430E-06  1500   0.580E-03
DAV:   5    -0.108309297541E+03   -0.25339E-07   -0.25061E-07  1370   0.202E-03
DAV:   6    -0.108309297549E+03   -0.75943E-08   -0.75265E-08  1270   0.994E-04
DAV:   7    -0.108309297551E+03   -0.24984E-08   -0.25544E-08  1250   0.554E-04
DAV:   8    -0.108309297552E+03   -0.68212E-09   -0.90321E-09  1240   0.313E-04    0.928E-02
RMM:   9    -0.108309164174E+03    0.13338E-03   -0.40774E-04  1994   0.706E-02    0.785E-02
RMM:  10    -0.108309136046E+03    0.28128E-04   -0.22136E-04  1881   0.466E-02    0.793E-02
RMM:  11    -0.108309068669E+03    0.67376E-04   -0.93246E-05  1858   0.378E-02    0.220E-02
RMM:  12    -0.108309072354E+03   -0.36844E-05   -0.25394E-05  1323   0.202E-02
  22 F= -.10830907E+03 E0= -.10829618E+03  d E =-.481915E-03
       N       E                     dE             d eps       ncg     rms          rms(c)
DAV:   1    -0.108308838512E+03    0.23016E-03   -0.16306E-01  2030   0.202E+00
DAV:   2    -0.108309139916E+03   -0.30140E-03   -0.30140E-03  2390   0.259E-01
DAV:   3    -0.108309142373E+03   -0.24570E-05   -0.24572E-05  1890   0.198E-02
DAV:   4    -0.108309142490E+03   -0.11672E-06   -0.11689E-06  1370   0.496E-03
DAV:   5    -0.108309142519E+03   -0.28944E-07   -0.28781E-07  1240   0.218E-03
DAV:   6    -0.108309142527E+03   -0.86120E-08   -0.84701E-08  1210   0.110E-03
DAV:   7    -0.108309142530E+03   -0.24411E-08   -0.26847E-08  1210   0.580E-04
DAV:   8    -0.108309142531E+03   -0.92950E-09   -0.89334E-09  1180   0.323E-04    0.329E-02
RMM:   9    -0.108309114969E+03    0.27561E-04   -0.41847E-05  1479   0.236E-02    0.211E-02
RMM:  10    -0.108309121782E+03   -0.68129E-05   -0.28678E-05  1318   0.182E-02
  23 F= -.10830912E+03 E0= -.10829630E+03  d E =-.531343E-03
       N       E                     dE             d eps       ncg     rms          rms(c)
DAV:   1    -0.108309292792E+03   -0.17782E-03   -0.34632E-02  2130   0.959E-01
DAV:   2    -0.108309362894E+03   -0.70102E-04   -0.70102E-04  2400   0.126E-01
DAV:   3    -0.108309363239E+03   -0.34493E-06   -0.34476E-06  1410   0.912E-03
DAV:   4    -0.108309363301E+03   -0.61787E-07   -0.61813E-07  1130   0.333E-03
DAV:   5    -0.108309363319E+03   -0.17967E-07   -0.17977E-07  1100   0.157E-03
DAV:   6    -0.108309363325E+03   -0.57917E-08   -0.59409E-08  1090   0.867E-04
DAV:   7    -0.108309363327E+03   -0.23174E-08   -0.20798E-08  1060   0.465E-04
DAV:   8    -0.108309363327E+03   -0.34470E-09   -0.76028E-09  1030   0.276E-04    0.224E-02
RMM:   9    -0.108309364666E+03   -0.13389E-05   -0.41133E-05  1404   0.212E-02
  24 F= -.10830936E+03 E0= -.10829637E+03  d E =-.242884E-03
       N       E                     dE             d eps       ncg     rms          rms(c)
DAV:   1    -0.108309203891E+03    0.15944E-03   -0.30634E-01  2060   0.285E+00
DAV:   2    -0.108309803290E+03   -0.59940E-03   -0.59940E-03  2380   0.369E-01
DAV:   3    -0.108309806667E+03   -0.33764E-05   -0.33765E-05  1970   0.265E-02
DAV:   4    -0.108309806828E+03   -0.16088E-06   -0.16070E-06  1420   0.628E-03
DAV:   5    -0.108309806860E+03   -0.32571E-07   -0.32657E-07  1250   0.256E-03
DAV:   6    -0.108309806870E+03   -0.94005E-08   -0.92483E-08  1240   0.126E-03
DAV:   7    -0.108309806872E+03   -0.26457E-08   -0.29181E-08  1240   0.684E-04
DAV:   8    -0.108309806873E+03   -0.11723E-08   -0.97931E-09  1170   0.370E-04    0.750E-02
RMM:   9    -0.108309778786E+03    0.28087E-04   -0.43405E-04  1966   0.692E-02    0.965E-02
RMM:  10    -0.108309660965E+03    0.11782E-03   -0.19167E-04  1821   0.432E-02    0.413E-02
RMM:  11    -0.108309631663E+03    0.29302E-04   -0.67365E-05  1821   0.295E-02    0.187E-02
RMM:  12    -0.108309627156E+03    0.45069E-05   -0.10729E-05  1196   0.130E-02
  25 F= -.10830963E+03 E0= -.10829664E+03  d E =-.505374E-03
       N       E                     dE             d eps       ncg     rms          rms(c)
DAV:   1    -0.108309748734E+03   -0.11707E-03   -0.84009E-02  2370   0.146E+00
DAV:   2    -0.108309903137E+03   -0.15440E-03   -0.15440E-03  2340   0.184E-01
DAV:   3    -0.108309903809E+03   -0.67143E-06   -0.67148E-06  1510   0.126E-02
DAV:   4    -0.108309903897E+03   -0.88650E-07   -0.88571E-07  1390   0.410E-03
DAV:   5    -0.108309903920E+03   -0.22808E-07   -0.22765E-07  1290   0.185E-03
DAV:   6    -0.108309903927E+03   -0.66948E-08   -0.68383E-08  1240   0.974E-04
DAV:   7    -0.108309903929E+03   -0.20964E-08   -0.22122E-08  1240   0.517E-04
DAV:   8    -0.108309903930E+03   -0.91950E-09   -0.76293E-09  1210   0.295E-04    0.374E-02
RMM:   9    -0.108309900098E+03    0.38323E-05   -0.92567E-05  1761   0.301E-02
  26 F= -.10830990E+03 E0= -.10829708E+03  d E =-.272942E-03
       N       E                     dE             d eps       ncg     rms          rms(c)
DAV:   1    -0.108309352803E+03    0.55113E-03   -0.48522E-01  2160   0.351E+00
DAV:   2    -0.108310242791E+03   -0.88999E-03   -0.88999E-03  2400   0.442E-01
DAV:   3    -0.108310247259E+03   -0.44673E-05   -0.44671E-05  2160   0.303E-02
DAV:   4    -0.108310247388E+03   -0.12964E-06   -0.12967E-06  1420   0.539E-03
DAV:   5    -0.108310247413E+03   -0.24902E-07   -0.24790E-07  1290   0.208E-03
DAV:   6    -0.108310247420E+03   -0.72177E-08   -0.73712E-08  1240   0.102E-03
DAV:   7    -0.108310247423E+03   -0.22874E-08   -0.24575E-08  1200   0.578E-04
DAV:   8    -0.108310247424E+03   -0.10568E-08   -0.86558E-09  1150   0.314E-04    0.108E-01
RMM:   9    -0.108310360399E+03   -0.11297E-03   -0.97335E-04  1975   0.956E-02    0.181E-01
RMM:  10    -0.108309892190E+03    0.46821E-03   -0.48936E-04  1933   0.685E-02    0.465E-02
RMM:  11    -0.108309863139E+03    0.29051E-04   -0.12353E-04  1835   0.389E-02    0.143E-02
RMM:  12    -0.108309857252E+03    0.58866E-05   -0.26017E-05  1332   0.175E-02
  27 F= -.10830986E+03 E0= -.10829691E+03  d E =-.230096E-03
       N       E                     dE             d eps       ncg     rms          rms(c)
DAV:   1    -0.108309833975E+03    0.29164E-04   -0.87659E-02  2280   0.149E+00
DAV:   2    -0.108309992181E+03   -0.15821E-03   -0.15821E-03  2370   0.185E-01
DAV:   3    -0.108309992885E+03   -0.70437E-06   -0.70447E-06  1580   0.128E-02
DAV:   4    -0.108309992976E+03   -0.90349E-07   -0.90477E-07  1410   0.413E-03
DAV:   5    -0.108309992999E+03   -0.23520E-07   -0.23229E-07  1290   0.187E-03
DAV:   6    -0.108309993006E+03   -0.68067E-08   -0.69766E-08  1240   0.987E-04
DAV:   7    -0.108309993008E+03   -0.24102E-08   -0.22560E-08  1240   0.526E-04
DAV:   8    -0.108309993009E+03   -0.44929E-09   -0.77802E-09  1210   0.301E-04    0.403E-02
RMM:   9    -0.108309997445E+03   -0.44364E-05   -0.11569E-04  1774   0.333E-02    0.608E-02
RMM:  10    -0.108309945439E+03    0.52006E-04   -0.63368E-05  1491   0.251E-02    0.186E-02
RMM:  11    -0.108309943830E+03    0.16096E-05   -0.14495E-05  1195   0.140E-02
  28 F= -.10830994E+03 E0= -.10829699E+03  d E =-.316674E-03
       N       E                     dE             d eps       ncg     rms          rms(c)
DAV:   1    -0.108309932933E+03    0.12506E-04   -0.10255E-02  2460   0.510E-01
DAV:   2    -0.108309951480E+03   -0.18547E-04   -0.18547E-04  2340   0.641E-02
DAV:   3    -0.108309951561E+03   -0.80437E-07   -0.80335E-07  1370   0.446E-03
DAV:   4    -0.108309951574E+03   -0.13019E-07   -0.13200E-07  1230   0.156E-03
DAV:   5    -0.108309951578E+03   -0.39690E-08   -0.35689E-08  1170   0.725E-04
DAV:   6    -0.108309951579E+03   -0.76398E-09   -0.11165E-08  1150   0.390E-04
DAV:   7    -0.108309951579E+03   -0.59208E-09   -0.37644E-09  1100   0.209E-04
DAV:   8    -0.108309951579E+03    0.49113E-10   -0.13502E-09  1080   0.122E-04    0.151E-02
RMM:   9    -0.108309953118E+03   -0.15389E-05   -0.16522E-05  1226   0.127E-02
  29 F= -.10830995E+03 E0= -.10829693E+03  d E =-.325962E-03
       N       E                     dE             d eps       ncg     rms          rms(c)
DAV:   1    -0.108310029521E+03   -0.77942E-04   -0.18720E-02  2220   0.699E-01
DAV:   2    -0.108310064856E+03   -0.35335E-04   -0.35335E-04  2320   0.901E-02
DAV:   3    -0.108310065001E+03   -0.14507E-06   -0.14534E-06  1390   0.601E-03
DAV:   4    -0.108310065027E+03   -0.25399E-07   -0.25402E-07  1240   0.214E-03
DAV:   5    -0.108310065034E+03   -0.71896E-08   -0.71733E-08  1160   0.102E-03
DAV:   6    -0.108310065036E+03   -0.23801E-08   -0.22686E-08  1100   0.552E-04
DAV:   7    -0.108310065037E+03   -0.10150E-08   -0.75959E-09  1050   0.297E-04
DAV:   8    -0.108310065037E+03    0.11460E-09   -0.26730E-09  1030   0.173E-04    0.561E-02
RMM:   9    -0.108310145650E+03   -0.80613E-04   -0.24181E-04  1819   0.459E-02    0.926E-02
RMM:  10    -0.108310029440E+03    0.11621E-03   -0.14955E-04  1712   0.375E-02    0.246E-02
RMM:  11    -0.108310030926E+03   -0.14857E-05   -0.60820E-06  1131   0.107E-02
  30 F= -.10831003E+03 E0= -.10829708E+03  d E =-.778077E-04
       N       E                     dE             d eps       ncg     rms          rms(c)
DAV:   1    -0.108310040174E+03   -0.10734E-04   -0.45640E-03  2430   0.344E-01
DAV:   2    -0.108310048507E+03   -0.83324E-05   -0.83326E-05  2340   0.442E-02
DAV:   3    -0.108310048541E+03   -0.34144E-07   -0.33938E-07  1390   0.291E-03
DAV:   4    -0.108310048546E+03   -0.54997E-08   -0.59477E-08  1270   0.105E-03
DAV:   5    -0.108310048548E+03   -0.17872E-08   -0.16753E-08  1210   0.504E-04
DAV:   6    -0.108310048549E+03   -0.80581E-09   -0.52884E-09  1210   0.273E-04
DAV:   7    -0.108310048549E+03   -0.16735E-09   -0.17651E-09  1160   0.148E-04
DAV:   8    -0.108310048549E+03    0.90949E-10   -0.61857E-10  1110   0.859E-05    0.308E-02
RMM:   9    -0.108310074616E+03   -0.26067E-04   -0.78145E-05  1521   0.261E-02    0.536E-02
RMM:  10    -0.108310032353E+03    0.42263E-04   -0.44510E-05  1318   0.204E-02    0.116E-02
RMM:  11    -0.108310036215E+03   -0.38613E-05   -0.18261E-06   963   0.632E-03
  31 F= -.10831004E+03 E0= -.10829709E+03  d E =-.830966E-04
       N       E                     dE             d eps       ncg     rms          rms(c)
DAV:   1    -0.108310048816E+03   -0.16463E-04   -0.69430E-03  2200   0.430E-01
DAV:   2    -0.108310062102E+03   -0.13286E-04   -0.13287E-04  2390   0.554E-02
DAV:   3    -0.108310062153E+03   -0.50422E-07   -0.50101E-07  1360   0.362E-03
DAV:   4    -0.108310062161E+03   -0.83955E-08   -0.86246E-08  1180   0.128E-03
DAV:   5    -0.108310062164E+03   -0.25784E-08   -0.23820E-08  1160   0.605E-04
DAV:   6    -0.108310062164E+03   -0.71850E-09   -0.75141E-09  1090   0.325E-04
DAV:   7    -0.108310062165E+03   -0.31378E-09   -0.25355E-09  1060   0.175E-04
DAV:   8    -0.108310062165E+03    0.10095E-09   -0.90351E-10  1030   0.101E-04    0.104E-02
RMM:   9    -0.108310062313E+03   -0.14793E-06   -0.11629E-05  1130   0.108E-02
  32 F= -.10831006E+03 E0= -.10829704E+03  d E =-.260980E-04
