 vasp.5.4.4.18Apr17-6-g9f103f2a35 (build Nov 15 2019 10:10:58) complex          
  
 executed on             LinuxIFC date 2024.07.29  10:44:49
 running on   20 total cores
 distrk:  each k-point on   20 cores,    1 groups
 distr:  one band on NCORES_PER_BAND=   4 cores,    5 groups


--------------------------------------------------------------------------------------------------------


 INCAR:
 POTCAR:    PAW_PBE O 08Apr2002                   
 POTCAR:    PAW_PBE Mg 13Apr2007                  
 POTCAR:    PAW_PBE O 08Apr2002                   
   VRHFIN =O: s2p4                                                              
   LEXCH  = PE                                                                  
   EATOM  =   432.3788 eV,   31.7789 Ry                                         
                                                                                
   TITEL  = PAW_PBE O 08Apr2002                                                 
   LULTRA =        F    use ultrasoft PP ?                                      
   IUNSCR =        1    unscreen: 0-lin 1-nonlin 2-no                           
   RPACOR =    1.200    partial core radius                                     
   POMASS =   16.000; ZVAL   =    6.000    mass and valenz                      
   RCORE  =    1.520    outmost cutoff radius                                   
   RWIGS  =    1.550; RWIGS  =    0.820    wigner-seitz radius (au A)           
   ENMAX  =  400.000; ENMIN  =  300.000 eV                                      
   ICORE  =        2    local potential                                         
   LCOR   =        T    correct aug charges                                     
   LPAW   =        T    paw PP                                                  
   EAUG   =  605.392                                                            
   DEXC   =    0.000                                                            
   RMAX   =    1.553    core radius for proj-oper                               
   RAUG   =    1.300    factor for augmentation sphere                          
   RDEP   =    1.550    radius for radial grids                                 
   RDEPT  =    1.329    core radius for aug-charge                              
                                                                                
   Atomic configuration                                                         
    4 entries                                                                   
     n  l   j            E        occ.                                          
     1  0  0.50      -514.6923   2.0000                                         
     2  0  0.50       -23.9615   2.0000                                         
     2  1  0.50        -9.0305   4.0000                                         
     3  2  1.50        -9.5241   0.0000                                         
   Description                                                                  
     l       E           TYP  RCUT    TYP  RCUT                                 
     0    -23.9615318     23  1.200                                             
     0     -9.5240782     23  1.200                                             
     1     -9.0304911     23  1.520                                             
     1      8.1634956     23  1.520                                             
     2     -9.5240782      7  1.500                                             
  local pseudopotential read in
  partial core-charges read in
  partial kinetic energy density read in
  kinetic energy density of atom read in
  atomic valenz-charges read in
  non local Contribution for L=           0  read in
    real space projection operators read in
  non local Contribution for L=           0  read in
    real space projection operators read in
  non local Contribution for L=           1  read in
    real space projection operators read in
  non local Contribution for L=           1  read in
    real space projection operators read in
    PAW grid and wavefunctions read in
 
   number of l-projection  operators is LMAX  =           4
   number of lm-projection operators is LMMAX =           8
 
 POTCAR:    PAW_PBE Mg 13Apr2007                  
   VRHFIN =Mg: s2p0                                                             
   LEXCH  = PE                                                                  
   EATOM  =    23.0369 eV,    1.6932 Ry                                         
                                                                                
   TITEL  = PAW_PBE Mg 13Apr2007                                                
   LULTRA =        F    use ultrasoft PP ?                                      
   IUNSCR =        1    unscreen: 0-lin 1-nonlin 2-no                           
   RPACOR =    1.500    partial core radius                                     
   POMASS =   24.305; ZVAL   =    2.000    mass and valenz                      
   RCORE  =    2.000    outmost cutoff radius                                   
   RWIGS  =    2.880; RWIGS  =    1.524    wigner-seitz radius (au A)           
   ENMAX  =  200.000; ENMIN  =  100.000 eV                                      
   RCLOC  =    1.506    cutoff for local pot                                    
   LCOR   =        T    correct aug charges                                     
   LPAW   =        T    paw PP                                                  
   EAUG   =  454.734                                                            
   DEXC   =    0.000                                                            
   RMAX   =    2.045    core radius for proj-oper                               
   RAUG   =    1.300    factor for augmentation sphere                          
   RDEP   =    2.025    radius for radial grids                                 
   RDEPT  =    1.942    core radius for aug-charge                              
                                                                                
   Atomic configuration                                                         
    6 entries                                                                   
     n  l   j            E        occ.                                          
     1  0  0.50     -1259.6230   2.0000                                         
     2  0  0.50       -79.8442   2.0000                                         
     2  1  1.50       -46.6121   6.0000                                         
     3  0  0.50        -4.7055   2.0000                                         
     3  1  0.50        -1.3660   0.0000                                         
     3  2  1.50        -1.3606   0.0000                                         
   Description                                                                  
     l       E           TYP  RCUT    TYP  RCUT                                 
     0     -4.7054661     23  2.000                                             
     0     27.2116520     23  2.000                                             
     1      1.3605826     23  2.000                                             
     1     27.2116520     23  2.000                                             
     2     -1.3605826     23  2.000                                             
  local pseudopotential read in
  partial core-charges read in
  partial kinetic energy density read in
  atomic valenz-charges read in
  non local Contribution for L=           0  read in
    real space projection operators read in
  non local Contribution for L=           0  read in
    real space projection operators read in
  non local Contribution for L=           1  read in
    real space projection operators read in
  non local Contribution for L=           1  read in
    real space projection operators read in
  non local Contribution for L=           2  read in
    real space projection operators read in
    PAW grid and wavefunctions read in
 
   number of l-projection  operators is LMAX  =           5
   number of lm-projection operators is LMMAX =          13
 
 Optimization of the real space projectors (new method)

 maximal supplied QI-value         = 24.76
 optimisation between [QCUT,QGAM] = [ 11.64, 28.96] = [ 37.91,234.92] Ry 
 Optimized for a Real-space Cutoff    0.91 Angstroem

   l    n(q)    QCUT    max X(q) W(low)/X(q) W(high)/X(q)  e(spline) 
   0      8    11.635    20.381    0.20E-03    0.22E-03    0.69E-07
   0      8    11.635    15.268    0.22E-03    0.24E-03    0.73E-07
   1      7    11.635     5.964    0.40E-03    0.67E-03    0.12E-06
   1      7    11.635     5.382    0.33E-03    0.56E-03    0.11E-06
 Optimization of the real space projectors (new method)

 maximal supplied QI-value         = 18.90
 optimisation between [QCUT,QGAM] = [ 11.53, 29.10] = [ 37.21,237.16] Ry 
 Optimized for a Real-space Cutoff    1.12 Angstroem

   l    n(q)    QCUT    max X(q) W(low)/X(q) W(high)/X(q)  e(spline) 
   0     10    11.527    28.265    0.21E-03    0.84E-05    0.64E-06
   0     10    11.527    10.429    0.17E-03    0.65E-05    0.50E-06
   1      9    11.527    13.073    0.75E-04    0.28E-03    0.46E-06
   1      9    11.527     9.625    0.62E-04    0.23E-03    0.39E-06
   2      9    11.527     4.652    0.39E-03    0.81E-04    0.28E-06
  PAW_PBE O 08Apr2002                   :
 energy of atom  1       EATOM= -432.3788
 kinetic energy error for atom=    0.0208 (will be added to EATOM!!)
  PAW_PBE Mg 13Apr2007                  :
 energy of atom  2       EATOM=  -23.0369
 kinetic energy error for atom=    0.0000 (will be added to EATOM!!)
 
 
 POSCAR: MgO(1 1 1 (2)                           
  positions in direct lattice
  No initial velocities read in
 exchange correlation table for  LEXCH =        8
   RHO(1)=    0.500       N(1)  =     2000
   RHO(2)=  100.500       N(2)  =     4000

 VTST: version 3.2, (02/03/18)

 CHAIN: initializing optimizer
 
 OPT: Using VASP Conjugate-Gradient optimizer
 CHAIN: Read ICHAIN            0
 
 POSCAR: MgO(1 1 1 (2)                           
  positions in direct lattice
  No initial velocities read in
 


--------------------------------------------------------------------------------------------------------


 ion  position               nearest neighbor table
   1  0.500  0.500  0.027-  14 2.12  14 2.12  14 2.12
   2  0.500  0.500  0.225-  15 2.12  16 2.12  15 2.12  15 2.12  16 2.12  16 2.12
   3  0.500  0.500  0.424-  18 2.12  18 2.12  18 2.12  17 2.12  17 2.12  17 2.12
   4  0.500  0.500  0.622-  19 2.12  19 2.12  19 2.12
   5  0.833  0.167  0.093-  11 2.12  14 2.12  14 2.12  11 2.12  11 2.12  14 2.12
   6  0.167  0.833  0.159-  11 2.12  11 2.12  11 2.12  15 2.12  15 2.12  15 2.12
   7  0.833  0.167  0.292-  12 2.12  12 2.12  12 2.12  16 2.12  16 2.12  16 2.12
   8  0.167  0.833  0.358-  12 2.12  17 2.12  17 2.12  12 2.12  12 2.12  17 2.12
   9  0.833  0.167  0.490-  18 2.12  18 2.12  18 2.12  13 2.12  13 2.12  13 2.12
  10  0.167  0.833  0.556-  13 2.12  19 2.12  19 2.12  13 2.12  13 2.12  19 2.12
  11  0.500  0.500  0.126-   5 2.12   6 2.12   5 2.12   5 2.12   6 2.12   6 2.12  14 3.00  14 3.00
                            14 3.00  15 3.00  15 3.00  15 3.00
  12  0.500  0.500  0.325-   8 2.12   7 2.12   8 2.12   8 2.12   7 2.12   7 2.12  17 3.00  17 3.00
                            17 3.00  16 3.00  16 3.00  16 3.00
  13  0.500  0.500  0.523-  10 2.12  10 2.12  10 2.12   9 2.12   9 2.12   9 2.12  19 3.00  19 3.00
                            19 3.00  18 3.00  18 3.00  18 3.00
  14  0.167  0.833  0.060-   5 2.12   5 2.12   5 2.12   1 2.12   1 2.12   1 2.12  11 3.00  11 3.00
                            11 3.00
  15  0.833  0.167  0.192-   2 2.12   2 2.12   2 2.12   6 2.12   6 2.12   6 2.12  16 3.00  16 3.00
                            16 3.00  11 3.00  11 3.00  11 3.00
  16  0.167  0.833  0.259-   2 2.12   2 2.12   2 2.12   7 2.12   7 2.12   7 2.12  15 3.00  15 3.00
                            15 3.00  12 3.00  12 3.00  12 3.00
  17  0.833  0.167  0.391-   8 2.12   8 2.12   8 2.12   3 2.12   3 2.12   3 2.12  12 3.00  12 3.00
                            12 3.00  18 3.00  18 3.00  18 3.00
  18  0.167  0.833  0.457-   3 2.12   9 2.12   9 2.12   3 2.12   3 2.12   9 2.12  13 3.00  17 3.00
                            17 3.00  13 3.00  13 3.00  17 3.00
  19  0.833  0.167  0.589-   4 2.12  10 2.12  10 2.12   4 2.12   4 2.12  10 2.12  13 3.00  13 3.00
                            13 3.00
 
  LATTYP: Found a hexagonal cell.
 ALAT       =     3.0044062036
 C/A-ratio  =    12.3411345745
  
  Lattice vectors:
  
 A1 = (   2.1244360000,  -2.1244360000,   0.0000000000)
 A2 = (   0.0000000000,   2.1244360000,  -2.1244360000)
 A3 = (  21.4068670000,  21.4068670000,  21.4068670000)


Analysis of symmetry for initial positions (statically):
=====================================================================
 Subroutine PRICEL returns:
 Original cell was already a primitive cell.
 

 Routine SETGRP: Setting up the symmetry group for a 
 hexagonal supercell.


 Subroutine GETGRP returns: Found 12 space group operations
 (whereof  2 operations were pure point group operations)
 out of a pool of 24 trial point group operations.


The static configuration has the point symmetry C_1h.
 The point group associated with its full space group is D_3d.


Analysis of symmetry for dynamics (positions and initial velocities):
=====================================================================
 Subroutine PRICEL returns:
 Original cell was already a primitive cell.
 

 Routine SETGRP: Setting up the symmetry group for a 
 hexagonal supercell.


 Subroutine GETGRP returns: Found 12 space group operations
 (whereof  2 operations were pure point group operations)
 out of a pool of 24 trial point group operations.


The dynamic configuration has the point symmetry C_1h.
 The point group associated with its full space group is D_3d.


Analysis of constrained symmetry for selective dynamics:
=====================================================================
 Subroutine PRICEL returns:
 Original cell was already a primitive cell.
 

 Routine SETGRP: Setting up the symmetry group for a 
 hexagonal supercell.


 Subroutine GETGRP returns: Found 12 space group operations
 (whereof  2 operations were pure point group operations)
 out of a pool of 24 trial point group operations.


The constrained configuration has the point symmetry C_1h.
 The point group associated with its full space group is D_3d.


 Subroutine INISYM returns: Found 12 space group operations
 (whereof  2 operations are pure point group operations),
 and found     1 'primitive' translations

 
 
 KPOINTS: K-Spacing Value to Generate K-Mesh: 0.02

Automatic generation of k-mesh.
Space group operators:
 irot       det(A)        alpha          n_x          n_y          n_z        tau_x        tau_y        tau_z
    1     1.000000     0.000000     1.000000     0.000000     0.000000     0.000000     0.000000     0.000000
    2    -1.000000   180.000000     0.707107     0.000000    -0.707107     0.000000     0.000000     0.000000
    3    -1.000000     0.000000     1.000000     0.000000     0.000000     0.000000     0.000000     0.649386
    4     1.000000   120.000000    -0.577350    -0.577350    -0.577350     0.000000     0.500000     0.000000
    5    -1.000000   120.000000    -0.577350    -0.577350    -0.577350     0.000000     0.500000     0.649386
    6     1.000000   120.000000     0.577350     0.577350     0.577350     0.500001     0.000000     0.000000
    7    -1.000000   120.000000     0.577350     0.577350     0.577350     0.500001     0.000000     0.649385
    8     1.000000   180.000000     0.707107    -0.707107    -0.000000     0.500001     0.000000     0.649385
    9    -1.000000   180.000000     0.707107    -0.707107    -0.000000     0.500001     0.000000     0.000000
   10     1.000000   180.000000    -0.000000    -0.707107     0.707107     0.000000     0.500000     0.649386
   11    -1.000000   180.000000    -0.000000    -0.707107     0.707107     0.000000     0.500000     0.000000
   12     1.000000   180.000000     0.707107     0.000000    -0.707107     0.000000     0.000000     0.649386
 
 Subroutine IBZKPT returns following result:
 ===========================================
 
 Found     20 irreducible k-points:
 
 Following reciprocal coordinates:
            Coordinates               Weight
  0.062500  0.062500  0.000000     48.000000
  0.187500  0.062500 -0.000000     96.000000
  0.312500  0.062500  0.000000     96.000000
  0.437500  0.062500 -0.000000     96.000000
 -0.437500  0.062500  0.000000     96.000000
 -0.312500  0.062500  0.000000     96.000000
 -0.187500  0.062500 -0.000000     96.000000
 -0.062500  0.062500 -0.000000     48.000000
  0.187500  0.187500  0.000000     48.000000
  0.312500  0.187500  0.000000     96.000000
  0.437500  0.187500  0.000000     96.000000
 -0.437500  0.187500 -0.000000     96.000000
 -0.312500  0.187500  0.000000     96.000000
 -0.187500  0.187500  0.000000     48.000000
  0.312500  0.312500  0.000000     48.000000
  0.437500  0.312500  0.000000     96.000000
 -0.437500  0.312500 -0.000000     96.000000
 -0.312500  0.312500  0.000000     48.000000
  0.437500  0.437500  0.000000     48.000000
 -0.437500  0.437500  0.000000     48.000000
 
 Following cartesian coordinates:
            Coordinates               Weight
  0.029420  0.000000 -0.029420     48.000000
  0.068646 -0.019613 -0.049033     96.000000
  0.107872 -0.039226 -0.068646     96.000000
  0.147098 -0.058839 -0.088259     96.000000
 -0.127485  0.078452  0.049033     96.000000
 -0.088259  0.058839  0.029420     96.000000
 -0.049033  0.039226  0.009807     96.000000
 -0.009807  0.019613 -0.009807     48.000000
  0.088259  0.000000 -0.088259     48.000000
  0.127485 -0.019613 -0.107872     96.000000
  0.166711 -0.039226 -0.127485     96.000000
 -0.107872  0.098065  0.009807     96.000000
 -0.068646  0.078452 -0.009807     96.000000
 -0.029420  0.058839 -0.029420     48.000000
  0.147098  0.000000 -0.147098     48.000000
  0.186324 -0.019613 -0.166711     96.000000
 -0.088259  0.117678 -0.029420     96.000000
 -0.049033  0.098065 -0.049033     48.000000
  0.205937  0.000000 -0.205937     48.000000
 -0.068646  0.137291 -0.068646     48.000000
 


--------------------------------------------------------------------------------------------------------




 Dimension of arrays:
   k-points           NKPTS =     20   k-points in BZ     NKDIM =     20   number of bands    NBANDS=     50
   number of dos      NEDOS =    301   number of ions     NIONS =     19
   non local maximal  LDIM  =      5   non local SUM 2l+1 LMDIM =     13
   total plane-waves  NPLWV = 161280
   max r-space proj   IRMAX =   3350   max aug-charges    IRDMAX=   7703
   dimension x,y,z NGX =    24 NGY =   24 NGZ =  280
   dimension x,y,z NGXF=    32 NGYF=   32 NGZF=  400
   support grid    NGXF=    32 NGYF=   32 NGZF=  400
   ions per type =              10   9
   NGX,Y,Z   is equivalent  to a cutoff of  13.28, 13.28, 12.55 a.u.
   NGXF,Y,Z  is equivalent  to a cutoff of  17.71, 17.71, 17.93 a.u.

 SYSTEM =  Al110                                   
 POSCAR =  MgO(1 1 1 (2)                           

 Startparameter for this run:
   NWRITE =      2    write-flag & timer
   PREC   = h         normal or accurate (medium, high low for compatibility)
   ISTART =      0    job   : 0-new  1-cont  2-samecut
   ICHARG =      2    charge: 1-file 2-atom 10-const
   ISPIN  =      1    spin polarized calculation?
   LNONCOLLINEAR =      F non collinear calculations
   LSORBIT =      F    spin-orbit coupling
   INIWAV =      1    electr: 0-lowe 1-rand  2-diag
   LASPH  =      F    aspherical Exc in radial PAW
   METAGGA=      F    non-selfconsistent MetaGGA calc.

 Electronic Relaxation 1
   ENCUT  =  520.0 eV  38.22 Ry    6.18 a.u.   5.59  5.59 68.94*2*pi/ulx,y,z
   ENINI  =  520.0     initial cutoff
   ENAUG  =  605.4 eV  augmentation charge cutoff
   NELM   =    100;   NELMIN=  6; NELMDL=  8     # of ELM steps 
   EDIFF  = 0.1E-04   stopping-criterion for ELM
   LREAL  =      T    real-space projection
   NLSPLINE    = F    spline interpolate recip. space projectors
   LCOMPAT=      F    compatible to vasp.4.4
   GGA_COMPAT  = T    GGA compatible to vasp.4.4-vasp.4.6
   LMAXPAW     = -100 max onsite density
   LMAXMIX     =    2 max onsite mixed and CHGCAR
   VOSKOWN=      0    Vosko Wilk Nusair interpolation
   ROPT   =   -0.00040  -0.00040
 Ionic relaxation
   EDIFFG = -.1E-01   stopping-criterion for IOM
   NSW    =    500    number of steps for IOM
   NBLOCK =      1;   KBLOCK =    500    inner block; outer block 
   IBRION =      2    ionic relax: 0-MD 1-quasi-New 2-CG
   NFREE  =      1    steps in history (QN), initial steepest desc. (CG)
   ISIF   =      2    stress and relaxation
   IWAVPR =     11    prediction:  0-non 1-charg 2-wave 3-comb
   ISYM   =      2    0-nonsym 1-usesym 2-fastsym
   LCORR  =      T    Harris-Foulkes like correction to forces

   POTIM  = 0.5000    time-step for ionic-motion
   TEIN   =    0.0    initial temperature
   TEBEG  =    0.0;   TEEND  =   0.0 temperature during run
   SMASS  =  -3.00    Nose mass-parameter (am)
   estimated Nose-frequenzy (Omega)   =  0.10E-29 period in steps =****** mass=  -0.206E-27a.u.
   SCALEE = 1.0000    scale energy and forces
   NPACO  =    256;   APACO  = 16.0  distance and # of slots for P.C.
   PSTRESS=    0.0 pullay stress

  Mass of Ions in am
   POMASS =  16.00 24.30
  Ionic Valenz
   ZVAL   =   6.00  2.00
  Atomic Wigner-Seitz radii
   RWIGS  =  -1.00 -1.00
  virtual crystal weights 
   VCA    =   1.00  1.00
   NELECT =      78.0000    total number of electrons
   NUPDOWN=      -1.0000    fix difference up-down

 DOS related values:
   EMIN   =  10.00;   EMAX   =-10.00  energy-range for DOS
   EFERMI =   0.00
   ISMEAR =     0;   SIGMA  =   0.05  broadening in eV -4-tet -1-fermi 0-gaus

 Electronic relaxation 2 (details)
   IALGO  =     68    algorithm
   LDIAG  =      T    sub-space diagonalisation (order eigenvalues)
   LSUBROT=      F    optimize rotation matrix (better conditioning)
   TURBO    =      0    0=normal 1=particle mesh
   IRESTART =      0    0=no restart 2=restart with 2 vectors
   NREBOOT  =      0    no. of reboots
   NMIN     =      0    reboot dimension
   EREF     =   0.00    reference energy to select bands
   IMIX   =      4    mixing-type and parameters
     AMIX     =   0.40;   BMIX     =  1.00
     AMIX_MAG =   1.60;   BMIX_MAG =  1.00
     AMIN     =   0.10
     WC   =   100.;   INIMIX=   1;  MIXPRE=   1;  MAXMIX= -45

 Intra band minimization:
   WEIMIN = 0.0010     energy-eigenvalue tresh-hold
   EBREAK =  0.50E-07  absolut break condition
   DEPER  =   0.30     relativ break condition  

   TIME   =   0.40     timestep for ELM

  volume/ion in A,a.u.               =      15.25       102.94
  Fermi-wavevector in a.u.,A,eV,Ry     =   1.056945  1.997337 15.199520  1.117133
  Thomas-Fermi vector in A             =   2.192200
 
 Write flags
   LWAVE        =      F    write WAVECAR
   LDOWNSAMPLE  =      F    k-point downsampling of WAVECAR
   LCHARG       =      F    write CHGCAR
   LVTOT        =      F    write LOCPOT, total local potential
   LVHAR        =      F    write LOCPOT, Hartree potential only
   LELF         =      F    write electronic localiz. function (ELF)
   LORBIT       =      0    0 simple, 1 ext, 2 COOP (PROOUT), +10 PAW based schemes


 Dipole corrections
   LMONO  =      F    monopole corrections only (constant potential shift)
   LDIPOL =      F    correct potential (dipole corrections)
   IDIPOL =      0    1-x, 2-y, 3-z, 4-all directions 
   EPSILON=  1.0000000 bulk dielectric constant

 Exchange correlation treatment:
   GGA     =    --    GGA type
   LEXCH   =     8    internal setting for exchange type
   VOSKOWN=      0    Vosko Wilk Nusair interpolation
   LHFCALC =     F    Hartree Fock is set to
   LHFONE  =     F    Hartree Fock one center treatment
   AEXX    =    0.0000 exact exchange contribution

 Linear response parameters
   LEPSILON=     F    determine dielectric tensor
   LRPA    =     F    only Hartree local field effects (RPA)
   LNABLA  =     F    use nabla operator in PAW spheres
   LVEL    =     F    velocity operator in full k-point grid
   LINTERFAST=   F  fast interpolation
   KINTER  =     0    interpolate to denser k-point grid
   CSHIFT  =0.1000    complex shift for real part using Kramers Kronig
   OMEGAMAX=  -1.0    maximum frequency
   DEG_THRESHOLD= 0.2000000E-02 threshold for treating states as degnerate
   RTIME   =   -0.100 relaxation time in fs
  (WPLASMAI=    0.000 imaginary part of plasma frequency in eV, 0.658/RTIME)
   DFIELD  = 0.0000000 0.0000000 0.0000000 field for delta impulse in time
 
 Orbital magnetization related:
   ORBITALMAG=     F  switch on orbital magnetization
   LCHIMAG   =     F  perturbation theory with respect to B field
   DQ        =  0.001000  dq finite difference perturbation B field
   LLRAUG    =     F  two centre corrections for induced B field



--------------------------------------------------------------------------------------------------------


 conjugate gradient relaxation of ions
   using selective dynamics as specified on POSCAR
 charge density and potential will be updated during run
 non-spin polarized calculation
 RMM-DIIS sequential band-by-band and
  variant of blocked Davidson during initial phase
 perform sub-space diagonalisation
    before iterative eigenvector-optimisation
 modified Broyden-mixing scheme, WC =      100.0
 initial mixing is a Kerker type mixing with AMIX =  0.4000 and BMIX =      1.0000
 Hartree-type preconditioning will be used
 using additional bands           11
 real space projection scheme for non local part
 use partial core corrections
 calculate Harris-corrections to forces 
   (improved forces if not selfconsistent)
 use gradient corrections 
 use of overlap-Matrix (Vanderbilt PP)
 Gauss-broadening in eV      SIGMA  =   0.05


--------------------------------------------------------------------------------------------------------


  energy-cutoff  :      520.00
  volume of cell :      289.84
      direct lattice vectors                 reciprocal lattice vectors
     2.124436000 -2.124436000  0.000000000     0.313808779 -0.156904389 -0.156904389
     0.000000000  2.124436000 -2.124436000     0.156904389  0.156904389 -0.313808779
    21.406867000 21.406867000 21.406867000     0.015571327  0.015571327  0.015571327

  length of vectors
     3.004406204  3.004406204 37.077781275     0.384335692  0.384335692  0.026970330


 
 k-points in units of 2pi/SCALE and weight: K-Spacing Value to Generate K-Mesh: 0.02
   0.02941957  0.00000000 -0.02941957       0.031
   0.06864567 -0.01961305 -0.04903262       0.062
   0.10787177 -0.03922610 -0.06864567       0.062
   0.14709787 -0.05883915 -0.08825872       0.062
  -0.12748482  0.07845219  0.04903262       0.062
  -0.08825872  0.05883915  0.02941957       0.062
  -0.04903262  0.03922610  0.00980652       0.062
  -0.00980652  0.01961305 -0.00980652       0.031
   0.08825872  0.00000000 -0.08825872       0.031
   0.12748482 -0.01961305 -0.10787177       0.062
   0.16671091 -0.03922610 -0.12748482       0.062
  -0.10787177  0.09806524  0.00980652       0.062
  -0.06864567  0.07845219 -0.00980652       0.062
  -0.02941957  0.05883915 -0.02941957       0.031
   0.14709787  0.00000000 -0.14709787       0.031
   0.18632396 -0.01961305 -0.16671091       0.062
  -0.08825872  0.11767829 -0.02941957       0.062
  -0.04903262  0.09806524 -0.04903262       0.031
   0.20593701  0.00000000 -0.20593701       0.031
  -0.06864567  0.13729134 -0.06864567       0.031
 
 k-points in reciprocal lattice and weights: K-Spacing Value to Generate K-Mesh: 0.02
   0.06250000  0.06250000  0.00000000       0.031
   0.18750000  0.06250000 -0.00000000       0.062
   0.31250000  0.06250000  0.00000000       0.062
   0.43750000  0.06250000 -0.00000000       0.062
  -0.43750000  0.06250000  0.00000000       0.062
  -0.31250000  0.06250000  0.00000000       0.062
  -0.18750000  0.06250000 -0.00000000       0.062
  -0.06250000  0.06250000 -0.00000000       0.031
   0.18750000  0.18750000  0.00000000       0.031
   0.31250000  0.18750000  0.00000000       0.062
   0.43750000  0.18750000  0.00000000       0.062
  -0.43750000  0.18750000 -0.00000000       0.062
  -0.31250000  0.18750000  0.00000000       0.062
  -0.18750000  0.18750000  0.00000000       0.031
   0.31250000  0.31250000  0.00000000       0.031
   0.43750000  0.31250000  0.00000000       0.062
  -0.43750000  0.31250000 -0.00000000       0.062
  -0.31250000  0.31250000  0.00000000       0.031
   0.43750000  0.43750000  0.00000000       0.031
  -0.43750000  0.43750000  0.00000000       0.031
 
 position of ions in fractional coordinates (direct lattice) 
   0.50000000  0.50000000  0.02697000
   0.50000000  0.50000000  0.22545200
   0.50000000  0.50000000  0.42393400
   0.50000000  0.50000000  0.62241500
   0.83333300  0.16666700  0.09313100
   0.16666700  0.83333300  0.15929100
   0.83333300  0.16666700  0.29161300
   0.16666700  0.83333300  0.35777300
   0.83333300  0.16666700  0.49009400
   0.16666700  0.83333300  0.55625500
   0.50000000  0.50000000  0.12621100
   0.50000000  0.50000000  0.32469300
   0.50000000  0.50000000  0.52317500
   0.16666700  0.83333300  0.06005100
   0.83333300  0.16666700  0.19237200
   0.16666700  0.83333300  0.25853200
   0.83333300  0.16666700  0.39085300
   0.16666700  0.83333300  0.45701400
   0.83333300  0.16666700  0.58933500
 
 position of ions in cartesian coordinates  (Angst):
   1.63956120  0.57734320 -0.48487480
   5.88843898  4.82622098  3.76400298
  10.13731675  9.07509875  8.01288075
  14.38617312 13.32395512 12.26173712
   3.76400556  0.57735368  1.63956956
   3.76399463  4.82621050  1.63955863
   8.01288333  4.82623146  5.88844733
   8.01287240  9.07508828  5.88843640
  12.26173970  9.07508783 10.13730370
  12.26175018 13.32396605 10.13731418
   3.76400009  2.70178209  1.63956409
   8.01287787  6.95065987  5.88844187
  12.26175564 11.19953764 10.13731964
   1.63957715  2.70179302 -0.48485885
   5.88844444  2.70179257  3.76400844
   5.88843351  6.95064939  3.76399751
  10.13730081  6.95064894  8.01286481
  10.13731129 11.19952717  8.01287529
  14.38617859 11.19952671 12.26174259
 


--------------------------------------------------------------------------------------------------------


 k-point  1 :   0.0625 0.0625 0.0000  plane waves:    7893
 k-point  2 :   0.1875 0.0625-0.0000  plane waves:    7842
 k-point  3 :   0.3125 0.0625 0.0000  plane waves:    7784
 k-point  4 :   0.4375 0.0625-0.0000  plane waves:    7763
 k-point  5 :  -0.4375 0.0625 0.0000  plane waves:    7771
 k-point  6 :  -0.3125 0.0625 0.0000  plane waves:    7819
 k-point  7 :  -0.1875 0.0625-0.0000  plane waves:    7861
 k-point  8 :  -0.0625 0.0625-0.0000  plane waves:    7903
 k-point  9 :   0.1875 0.1875 0.0000  plane waves:    7811
 k-point 10 :   0.3125 0.1875 0.0000  plane waves:    7788
 k-point 11 :   0.4375 0.1875 0.0000  plane waves:    7755
 k-point 12 :  -0.4375 0.1875-0.0000  plane waves:    7798
 k-point 13 :  -0.3125 0.1875 0.0000  plane waves:    7832
 k-point 14 :  -0.1875 0.1875 0.0000  plane waves:    7864
 k-point 15 :   0.3125 0.3125 0.0000  plane waves:    7792
 k-point 16 :   0.4375 0.3125 0.0000  plane waves:    7770
 k-point 17 :  -0.4375 0.3125-0.0000  plane waves:    7791
 k-point 18 :  -0.3125 0.3125 0.0000  plane waves:    7802
 k-point 19 :   0.4375 0.4375 0.0000  plane waves:    7742
 k-point 20 :  -0.4375 0.4375 0.0000  plane waves:    7786

 maximum and minimum number of plane-waves per node :      1994     1924

 maximum number of plane-waves:      7903
 maximum index in each direction: 
   IXMAX=    6   IYMAX=    5   IZMAX=   68
   IXMIN=   -6   IYMIN=   -6   IZMIN=  -68


 real space projection operators:
  total allocation   :       4006.60 KBytes
  max/ min on nodes  :       1010.73        986.09


 parallel 3D FFT for wavefunctions:
    minimum data exchange during FFTs selected (reduces bandwidth)
 parallel 3D FFT for charge:
    minimum data exchange during FFTs selected (reduces bandwidth)


 total amount of memory used by VASP MPI-rank0    44078. kBytes
=======================================================================

   base      :      30000. kBytes
   nonlr-proj:       2315. kBytes
   fftplans  :       2110. kBytes
   grid      :       3053. kBytes
   one-center:         40. kBytes
   wavefun   :       6560. kBytes
 
     INWAV:  cpu time    0.0000: real time    0.0001
 Broyden mixing: mesh for mixing (old mesh)
   NGX = 11   NGY = 11   NGZ =137
  (NGX  = 32   NGY  = 32   NGZ  =400)
  gives a total of  16577 points

 initial charge density was supplied:
 charge density of overlapping atoms calculated
 number of electron      78.0000000 magnetization 
 keeping initial charge density in first step


--------------------------------------------------------------------------------------------------------


 Maximum index for non-local projection operator          825
 Maximum index for augmentation-charges          659 (set IRDMAX)


--------------------------------------------------------------------------------------------------------


 First call to EWALD:  gamma=   0.268
 Maximum number of real-space cells 6x 6x 1
 Maximum number of reciprocal cells 2x 2x13

    FEWALD:  cpu time    0.0013: real time    0.0013


--------------------------------------- Iteration      1(   1)  ---------------------------------------


    POTLOK:  cpu time    0.0142: real time    0.0142
    SETDIJ:  cpu time    0.0026: real time    0.0026
     EDDAV:  cpu time    2.0949: real time    2.1743
       DOS:  cpu time    0.0012: real time    0.0015
    --------------------------------------------
      LOOP:  cpu time    2.1129: real time    2.1927

 eigenvalue-minimisations  :  2000
 total energy-change (2. order) : 0.5878438E+03  (-0.3674063E+04)
 number of electron      78.0000000 magnetization 
 augmentation part       78.0000000 magnetization 

 Free energy of the ion-electron system (eV)
  ---------------------------------------------------
  alpha Z        PSCENC =       116.82591216
  Ewald energy   TEWEN  =     24148.76422335
  -Hartree energ DENC   =    -28454.84114117
  -exchange      EXHF   =         0.00000000
  -V(xc)+E(xc)   XCENC  =      -158.78780997
  PAW double counting   =      4053.25502632    -3604.47710419
  entropy T*S    EENTRO =        -0.00400411
  eigenvalues    EBANDS =       -43.80290045
  atomic energy  EATOM  =      4530.91163914
  Solvation  Ediel_sol  =         0.00000000
  ---------------------------------------------------
  free energy    TOTEN  =       587.84384108 eV

  energy without entropy =      587.84784519  energy(sigma->0) =      587.84584313


--------------------------------------------------------------------------------------------------------




--------------------------------------- Iteration      1(   2)  ---------------------------------------


     EDDAV:  cpu time    2.5139: real time    2.5213
       DOS:  cpu time    0.0008: real time    0.0008
    --------------------------------------------
      LOOP:  cpu time    2.5147: real time    2.5221

 eigenvalue-minimisations  :  2670
 total energy-change (2. order) :-0.6439654E+03  (-0.6305147E+03)
 number of electron      78.0000000 magnetization 
 augmentation part       78.0000000 magnetization 

 Free energy of the ion-electron system (eV)
  ---------------------------------------------------
  alpha Z        PSCENC =       116.82591216
  Ewald energy   TEWEN  =     24148.76422335
  -Hartree energ DENC   =    -28454.84114117
  -exchange      EXHF   =         0.00000000
  -V(xc)+E(xc)   XCENC  =      -158.78780997
  PAW double counting   =      4053.25502632    -3604.47710419
  entropy T*S    EENTRO =        -0.00440653
  eigenvalues    EBANDS =      -687.76794741
  atomic energy  EATOM  =      4530.91163914
  Solvation  Ediel_sol  =         0.00000000
  ---------------------------------------------------
  free energy    TOTEN  =       -56.12160830 eV

  energy without entropy =      -56.11720177  energy(sigma->0) =      -56.11940503


--------------------------------------------------------------------------------------------------------




--------------------------------------- Iteration      1(   3)  ---------------------------------------


     EDDAV:  cpu time    2.4776: real time    2.5079
       DOS:  cpu time    0.0009: real time    0.0009
    --------------------------------------------
      LOOP:  cpu time    2.4785: real time    2.5088

 eigenvalue-minimisations  :  2380
 total energy-change (2. order) :-0.6369964E+02  (-0.6306316E+02)
 number of electron      78.0000000 magnetization 
 augmentation part       78.0000000 magnetization 

 Free energy of the ion-electron system (eV)
  ---------------------------------------------------
  alpha Z        PSCENC =       116.82591216
  Ewald energy   TEWEN  =     24148.76422335
  -Hartree energ DENC   =    -28454.84114117
  -exchange      EXHF   =         0.00000000
  -V(xc)+E(xc)   XCENC  =      -158.78780997
  PAW double counting   =      4053.25502632    -3604.47710419
  entropy T*S    EENTRO =        -0.00797684
  eigenvalues    EBANDS =      -751.46401572
  atomic energy  EATOM  =      4530.91163914
  Solvation  Ediel_sol  =         0.00000000
  ---------------------------------------------------
  free energy    TOTEN  =      -119.82124693 eV

  energy without entropy =     -119.81327008  energy(sigma->0) =     -119.81725851


--------------------------------------------------------------------------------------------------------




--------------------------------------- Iteration      1(   4)  ---------------------------------------


     EDDAV:  cpu time    2.3794: real time    2.3934
       DOS:  cpu time    0.0008: real time    0.0008
    --------------------------------------------
      LOOP:  cpu time    2.3802: real time    2.3942

 eigenvalue-minimisations  :  2370
 total energy-change (2. order) :-0.1368538E+01  (-0.1364723E+01)
 number of electron      78.0000000 magnetization 
 augmentation part       78.0000000 magnetization 

 Free energy of the ion-electron system (eV)
  ---------------------------------------------------
  alpha Z        PSCENC =       116.82591216
  Ewald energy   TEWEN  =     24148.76422335
  -Hartree energ DENC   =    -28454.84114117
  -exchange      EXHF   =         0.00000000
  -V(xc)+E(xc)   XCENC  =      -158.78780997
  PAW double counting   =      4053.25502632    -3604.47710419
  entropy T*S    EENTRO =        -0.00768796
  eigenvalues    EBANDS =      -752.83284242
  atomic energy  EATOM  =      4530.91163914
  Solvation  Ediel_sol  =         0.00000000
  ---------------------------------------------------
  free energy    TOTEN  =      -121.18978475 eV

  energy without entropy =     -121.18209678  energy(sigma->0) =     -121.18594076


--------------------------------------------------------------------------------------------------------




--------------------------------------- Iteration      1(   5)  ---------------------------------------


     EDDAV:  cpu time    2.3834: real time    2.4210
       DOS:  cpu time    0.0009: real time    0.0017
    --------------------------------------------
      LOOP:  cpu time    2.3843: real time    2.4227

 eigenvalue-minimisations  :  2350
 total energy-change (2. order) :-0.3240365E-01  (-0.3239297E-01)
 number of electron      78.0000000 magnetization 
 augmentation part       78.0000000 magnetization 

 Free energy of the ion-electron system (eV)
  ---------------------------------------------------
  alpha Z        PSCENC =       116.82591216
  Ewald energy   TEWEN  =     24148.76422335
  -Hartree energ DENC   =    -28454.84114117
  -exchange      EXHF   =         0.00000000
  -V(xc)+E(xc)   XCENC  =      -158.78780997
  PAW double counting   =      4053.25502632    -3604.47710419
  entropy T*S    EENTRO =        -0.00767816
  eigenvalues    EBANDS =      -752.86525588
  atomic energy  EATOM  =      4530.91163914
  Solvation  Ediel_sol  =         0.00000000
  ---------------------------------------------------
  free energy    TOTEN  =      -121.22218840 eV

  energy without entropy =     -121.21451024  energy(sigma->0) =     -121.21834932


--------------------------------------------------------------------------------------------------------




--------------------------------------- Iteration      1(   6)  ---------------------------------------


     EDDAV:  cpu time    2.4532: real time    2.4729
       DOS:  cpu time    0.0008: real time    0.0008
    --------------------------------------------
      LOOP:  cpu time    2.4540: real time    2.4737

 eigenvalue-minimisations  :  2440
 total energy-change (2. order) :-0.1169428E-02  (-0.1169121E-02)
 number of electron      78.0000000 magnetization 
 augmentation part       78.0000000 magnetization 

 Free energy of the ion-electron system (eV)
  ---------------------------------------------------
  alpha Z        PSCENC =       116.82591216
  Ewald energy   TEWEN  =     24148.76422335
  -Hartree energ DENC   =    -28454.84114117
  -exchange      EXHF   =         0.00000000
  -V(xc)+E(xc)   XCENC  =      -158.78780997
  PAW double counting   =      4053.25502632    -3604.47710419
  entropy T*S    EENTRO =        -0.00767735
  eigenvalues    EBANDS =      -752.86642611
  atomic energy  EATOM  =      4530.91163914
  Solvation  Ediel_sol  =         0.00000000
  ---------------------------------------------------
  free energy    TOTEN  =      -121.22335783 eV

  energy without entropy =     -121.21568048  energy(sigma->0) =     -121.21951915


--------------------------------------------------------------------------------------------------------




--------------------------------------- Iteration      1(   7)  ---------------------------------------


     EDDAV:  cpu time    2.2907: real time    2.3040
       DOS:  cpu time    0.0008: real time    0.0008
    --------------------------------------------
      LOOP:  cpu time    2.2915: real time    2.3047

 eigenvalue-minimisations  :  2360
 total energy-change (2. order) :-0.4398675E-04  (-0.4398418E-04)
 number of electron      78.0000000 magnetization 
 augmentation part       78.0000000 magnetization 

 Free energy of the ion-electron system (eV)
  ---------------------------------------------------
  alpha Z        PSCENC =       116.82591216
  Ewald energy   TEWEN  =     24148.76422335
  -Hartree energ DENC   =    -28454.84114117
  -exchange      EXHF   =         0.00000000
  -V(xc)+E(xc)   XCENC  =      -158.78780997
  PAW double counting   =      4053.25502632    -3604.47710419
  entropy T*S    EENTRO =        -0.00767727
  eigenvalues    EBANDS =      -752.86647018
  atomic energy  EATOM  =      4530.91163914
  Solvation  Ediel_sol  =         0.00000000
  ---------------------------------------------------
  free energy    TOTEN  =      -121.22340181 eV

  energy without entropy =     -121.21572455  energy(sigma->0) =     -121.21956318


--------------------------------------------------------------------------------------------------------




--------------------------------------- Iteration      1(   8)  ---------------------------------------


     EDDAV:  cpu time    1.8771: real time    1.8862
       DOS:  cpu time    0.0007: real time    0.0007
    CHARGE:  cpu time    0.0861: real time    0.0863
    MIXING:  cpu time    0.0010: real time    0.0010
    --------------------------------------------
      LOOP:  cpu time    1.9649: real time    1.9742

 eigenvalue-minimisations  :  1790
 total energy-change (2. order) :-0.1962412E-05  (-0.1962461E-05)
 number of electron      77.9999981 magnetization 
 augmentation part        7.6903038 magnetization 

 Broyden mixing:
  rms(total) = 0.21153E+01    rms(broyden)= 0.21144E+01
  rms(prec ) = 0.21778E+01
  weight for this iteration     100.00

 Free energy of the ion-electron system (eV)
  ---------------------------------------------------
  alpha Z        PSCENC =       116.82591216
  Ewald energy   TEWEN  =     24148.76422335
  -Hartree energ DENC   =    -28454.84114117
  -exchange      EXHF   =         0.00000000
  -V(xc)+E(xc)   XCENC  =      -158.78780997
  PAW double counting   =      4053.25502632    -3604.47710419
  entropy T*S    EENTRO =        -0.00767728
  eigenvalues    EBANDS =      -752.86647213
  atomic energy  EATOM  =      4530.91163914
  Solvation  Ediel_sol  =         0.00000000
  ---------------------------------------------------
  free energy    TOTEN  =      -121.22340378 eV

  energy without entropy =     -121.21572650  energy(sigma->0) =     -121.21956514


--------------------------------------------------------------------------------------------------------




--------------------------------------- Iteration      1(   9)  ---------------------------------------


    POTLOK:  cpu time    0.0106: real time    0.0108
    SETDIJ:  cpu time    0.0025: real time    0.0030
    EDDIAG:  cpu time    0.3025: real time    0.3036
  RMM-DIIS:  cpu time    1.3558: real time    1.3623
    ORTHCH:  cpu time    0.0328: real time    0.0329
       DOS:  cpu time    0.0009: real time    0.0018
    CHARGE:  cpu time    0.0879: real time    0.0882
    MIXING:  cpu time    0.0009: real time    0.0009
    --------------------------------------------
      LOOP:  cpu time    1.7940: real time    1.8035

 eigenvalue-minimisations  :  2000
 total energy-change (2. order) : 0.1291200E+02  (-0.6335770E+01)
 number of electron      77.9999969 magnetization 
 augmentation part        6.4918251 magnetization 

 Broyden mixing:
  rms(total) = 0.76120E+00    rms(broyden)= 0.76004E+00
  rms(prec ) = 0.78914E+00
  weight for this iteration     100.00

 eigenvalues of (default mixing * dielectric matrix)
  average eigenvalue GAMMA=   0.8302
  0.8302

 Free energy of the ion-electron system (eV)
  ---------------------------------------------------
  alpha Z        PSCENC =       116.82591216
  Ewald energy   TEWEN  =     24148.76422335
  -Hartree energ DENC   =    -28622.16414555
  -exchange      EXHF   =         0.00000000
  -V(xc)+E(xc)   XCENC  =      -147.11699997
  PAW double counting   =      4683.02509249    -4237.32867535
  entropy T*S    EENTRO =        -0.01862585
  eigenvalues    EBANDS =      -581.20982783
  atomic energy  EATOM  =      4530.91163914
  Solvation  Ediel_sol  =         0.00000000
  ---------------------------------------------------
  free energy    TOTEN  =      -108.31140741 eV

  energy without entropy =     -108.29278155  energy(sigma->0) =     -108.30209448


--------------------------------------------------------------------------------------------------------




--------------------------------------- Iteration      1(  10)  ---------------------------------------


    POTLOK:  cpu time    0.0111: real time    0.0129
    SETDIJ:  cpu time    0.0023: real time    0.0031
    EDDIAG:  cpu time    0.3114: real time    0.3126
  RMM-DIIS:  cpu time    1.3291: real time    1.3373
    ORTHCH:  cpu time    0.0322: real time    0.0323
       DOS:  cpu time    0.0009: real time    0.0009
    CHARGE:  cpu time    0.0869: real time    0.0871
    MIXING:  cpu time    0.0007: real time    0.0007
    --------------------------------------------
      LOOP:  cpu time    1.7746: real time    1.7869

 eigenvalue-minimisations  :  2000
 total energy-change (2. order) :-0.1224807E+00  (-0.2366279E+00)
 number of electron      77.9999982 magnetization 
 augmentation part        6.4330609 magnetization 

 Broyden mixing:
  rms(total) = 0.54268E+00    rms(broyden)= 0.54224E+00
  rms(prec ) = 0.55457E+00
  weight for this iteration     100.00

 eigenvalues of (default mixing * dielectric matrix)
  average eigenvalue GAMMA=   0.7407
  0.7407  0.7407

 Free energy of the ion-electron system (eV)
  ---------------------------------------------------
  alpha Z        PSCENC =       116.82591216
  Ewald energy   TEWEN  =     24148.76422335
  -Hartree energ DENC   =    -28585.07088543
  -exchange      EXHF   =         0.00000000
  -V(xc)+E(xc)   XCENC  =      -146.42114812
  PAW double counting   =      4880.83264190    -4434.91333976
  entropy T*S    EENTRO =        -0.00641880
  eigenvalues    EBANDS =      -619.35651253
  atomic energy  EATOM  =      4530.91163914
  Solvation  Ediel_sol  =         0.00000000
  ---------------------------------------------------
  free energy    TOTEN  =      -108.43388808 eV

  energy without entropy =     -108.42746929  energy(sigma->0) =     -108.43067869


--------------------------------------------------------------------------------------------------------




--------------------------------------- Iteration      1(  11)  ---------------------------------------


    POTLOK:  cpu time    0.0121: real time    0.0122
    SETDIJ:  cpu time    0.0022: real time    0.0022
    EDDIAG:  cpu time    0.3380: real time    0.3392
  RMM-DIIS:  cpu time    1.3195: real time    1.3245
    ORTHCH:  cpu time    0.0329: real time    0.0331
       DOS:  cpu time    0.0008: real time    0.0008
    CHARGE:  cpu time    0.0872: real time    0.0874
    MIXING:  cpu time    0.0008: real time    0.0008
    --------------------------------------------
      LOOP:  cpu time    1.7935: real time    1.8002

 eigenvalue-minimisations  :  2000
 total energy-change (2. order) : 0.3611305E+00  (-0.4380963E-01)
 number of electron      77.9999979 magnetization 
 augmentation part        6.4488447 magnetization 

 Broyden mixing:
  rms(total) = 0.35535E+00    rms(broyden)= 0.35531E+00
  rms(prec ) = 0.36239E+00
  weight for this iteration     100.00

 eigenvalues of (default mixing * dielectric matrix)
  average eigenvalue GAMMA=   1.3303
  2.3174  0.9919  0.6815

 Free energy of the ion-electron system (eV)
  ---------------------------------------------------
  alpha Z        PSCENC =       116.82591216
  Ewald energy   TEWEN  =     24148.76422335
  -Hartree energ DENC   =    -28597.67386578
  -exchange      EXHF   =         0.00000000
  -V(xc)+E(xc)   XCENC  =      -146.23754096
  PAW double counting   =      4974.41809308    -4528.35061030
  entropy T*S    EENTRO =        -0.00755618
  eigenvalues    EBANDS =      -606.72305204
  atomic energy  EATOM  =      4530.91163914
  Solvation  Ediel_sol  =         0.00000000
  ---------------------------------------------------
  free energy    TOTEN  =      -108.07275754 eV

  energy without entropy =     -108.06520136  energy(sigma->0) =     -108.06897945


--------------------------------------------------------------------------------------------------------




--------------------------------------- Iteration      1(  12)  ---------------------------------------


    POTLOK:  cpu time    0.0104: real time    0.0105
    SETDIJ:  cpu time    0.0022: real time    0.0022
    EDDIAG:  cpu time    0.3099: real time    0.3109
  RMM-DIIS:  cpu time    1.3310: real time    1.3402
    ORTHCH:  cpu time    0.0319: real time    0.0323
       DOS:  cpu time    0.0008: real time    0.0008
    CHARGE:  cpu time    0.0877: real time    0.0879
    MIXING:  cpu time    0.0008: real time    0.0008
    --------------------------------------------
      LOOP:  cpu time    1.7748: real time    1.7857

 eigenvalue-minimisations  :  2000
 total energy-change (2. order) :-0.6572191E+00  (-0.1210666E+00)
 number of electron      77.9999957 magnetization 
 augmentation part        6.5073731 magnetization 

 Broyden mixing:
  rms(total) = 0.95479E+00    rms(broyden)= 0.95341E+00
  rms(prec ) = 0.10580E+01
  weight for this iteration     100.00

 eigenvalues of (default mixing * dielectric matrix)
  average eigenvalue GAMMA=   1.1197
  2.4351  1.0103  0.5167  0.5167

 Free energy of the ion-electron system (eV)
  ---------------------------------------------------
  alpha Z        PSCENC =       116.82591216
  Ewald energy   TEWEN  =     24148.76422335
  -Hartree energ DENC   =    -28632.21216730
  -exchange      EXHF   =         0.00000000
  -V(xc)+E(xc)   XCENC  =      -145.39829074
  PAW double counting   =      5213.85369509    -4767.51689627
  entropy T*S    EENTRO =        -0.01452065
  eigenvalues    EBANDS =      -573.94357144
  atomic energy  EATOM  =      4530.91163914
  Solvation  Ediel_sol  =         0.00000000
  ---------------------------------------------------
  free energy    TOTEN  =      -108.72997667 eV

  energy without entropy =     -108.71545602  energy(sigma->0) =     -108.72271634


--------------------------------------------------------------------------------------------------------




--------------------------------------- Iteration      1(  13)  ---------------------------------------


    POTLOK:  cpu time    0.0106: real time    0.0107
    SETDIJ:  cpu time    0.0022: real time    0.0022
    EDDIAG:  cpu time    0.3090: real time    0.3101
  RMM-DIIS:  cpu time    1.3067: real time    1.3137
    ORTHCH:  cpu time    0.0327: real time    0.0328
       DOS:  cpu time    0.0008: real time    0.0009
    CHARGE:  cpu time    0.0878: real time    0.0880
    MIXING:  cpu time    0.0010: real time    0.0010
    --------------------------------------------
      LOOP:  cpu time    1.7508: real time    1.7594

 eigenvalue-minimisations  :  2000
 total energy-change (2. order) : 0.6686592E+00  (-0.8169322E-01)
 number of electron      77.9999979 magnetization 
 augmentation part        6.4937590 magnetization 

 Broyden mixing:
  rms(total) = 0.12140E+00    rms(broyden)= 0.11791E+00
  rms(prec ) = 0.12814E+00
  weight for this iteration     100.00

 eigenvalues of (default mixing * dielectric matrix)
  average eigenvalue GAMMA=   0.9523
  2.4536  0.9849  0.4748  0.4242  0.4242

 Free energy of the ion-electron system (eV)
  ---------------------------------------------------
  alpha Z        PSCENC =       116.82591216
  Ewald energy   TEWEN  =     24148.76422335
  -Hartree energ DENC   =    -28592.00926812
  -exchange      EXHF   =         0.00000000
  -V(xc)+E(xc)   XCENC  =      -145.23351627
  PAW double counting   =      5238.82874457    -4792.46706394
  entropy T*S    EENTRO =        -0.01875649
  eigenvalues    EBANDS =      -613.66323187
  atomic energy  EATOM  =      4530.91163914
  Solvation  Ediel_sol  =         0.00000000
  ---------------------------------------------------
  free energy    TOTEN  =      -108.06131748 eV

  energy without entropy =     -108.04256098  energy(sigma->0) =     -108.05193923


--------------------------------------------------------------------------------------------------------




--------------------------------------- Iteration      1(  14)  ---------------------------------------


    POTLOK:  cpu time    0.0104: real time    0.0105
    SETDIJ:  cpu time    0.0024: real time    0.0024
    EDDIAG:  cpu time    0.3358: real time    0.3386
  RMM-DIIS:  cpu time    1.3302: real time    1.3364
    ORTHCH:  cpu time    0.0321: real time    0.0322
       DOS:  cpu time    0.0008: real time    0.0008
    CHARGE:  cpu time    0.0862: real time    0.0864
    MIXING:  cpu time    0.0010: real time    0.0010
    --------------------------------------------
      LOOP:  cpu time    1.7988: real time    1.8083

 eigenvalue-minimisations  :  2000
 total energy-change (2. order) : 0.1481274E-01  (-0.1547794E-02)
 number of electron      77.9999979 magnetization 
 augmentation part        6.4885932 magnetization 

 Broyden mixing:
  rms(total) = 0.10078E+00    rms(broyden)= 0.10067E+00
  rms(prec ) = 0.10902E+00
  weight for this iteration     100.00

 eigenvalues of (default mixing * dielectric matrix)
  average eigenvalue GAMMA=   1.0880
  2.4127  1.0312  1.0312  1.0525  0.5002  0.5002

 Free energy of the ion-electron system (eV)
  ---------------------------------------------------
  alpha Z        PSCENC =       116.82591216
  Ewald energy   TEWEN  =     24148.76422335
  -Hartree energ DENC   =    -28598.50546877
  -exchange      EXHF   =         0.00000000
  -V(xc)+E(xc)   XCENC  =      -145.16569441
  PAW double counting   =      5237.36992865    -4791.03375342
  entropy T*S    EENTRO =        -0.02007970
  eigenvalues    EBANDS =      -607.19321174
  atomic energy  EATOM  =      4530.91163914
  Solvation  Ediel_sol  =         0.00000000
  ---------------------------------------------------
  free energy    TOTEN  =      -108.04650474 eV

  energy without entropy =     -108.02642504  energy(sigma->0) =     -108.03646489


--------------------------------------------------------------------------------------------------------




--------------------------------------- Iteration      1(  15)  ---------------------------------------


    POTLOK:  cpu time    0.0107: real time    0.0109
    SETDIJ:  cpu time    0.0022: real time    0.0022
    EDDIAG:  cpu time    0.3103: real time    0.3117
  RMM-DIIS:  cpu time    1.3232: real time    1.3290
    ORTHCH:  cpu time    0.0350: real time    0.0352
       DOS:  cpu time    0.0008: real time    0.0008
    CHARGE:  cpu time    0.0859: real time    0.0862
    MIXING:  cpu time    0.0009: real time    0.0009
    --------------------------------------------
      LOOP:  cpu time    1.7690: real time    1.7769

 eigenvalue-minimisations  :  2000
 total energy-change (2. order) : 0.5152032E-01  (-0.9483056E-02)
 number of electron      77.9999977 magnetization 
 augmentation part        6.4849256 magnetization 

 Broyden mixing:
  rms(total) = 0.63848E-01    rms(broyden)= 0.63822E-01
  rms(prec ) = 0.65510E-01
  weight for this iteration     100.00

 eigenvalues of (default mixing * dielectric matrix)
  average eigenvalue GAMMA=   1.1552
  2.4902  1.3837  1.3837  0.9620  0.8637  0.5014  0.5014

 Free energy of the ion-electron system (eV)
  ---------------------------------------------------
  alpha Z        PSCENC =       116.82591216
  Ewald energy   TEWEN  =     24148.76422335
  -Hartree energ DENC   =    -28615.47646258
  -exchange      EXHF   =         0.00000000
  -V(xc)+E(xc)   XCENC  =      -145.10996728
  PAW double counting   =      5228.52987363    -4782.22549653
  entropy T*S    EENTRO =        -0.02463989
  eigenvalues    EBANDS =      -590.19006642
  atomic energy  EATOM  =      4530.91163914
  Solvation  Ediel_sol  =         0.00000000
  ---------------------------------------------------
  free energy    TOTEN  =      -107.99498442 eV

  energy without entropy =     -107.97034453  energy(sigma->0) =     -107.98266448


--------------------------------------------------------------------------------------------------------




--------------------------------------- Iteration      1(  16)  ---------------------------------------


    POTLOK:  cpu time    0.0108: real time    0.0109
    SETDIJ:  cpu time    0.0023: real time    0.0023
    EDDIAG:  cpu time    0.3092: real time    0.3096
  RMM-DIIS:  cpu time    1.3468: real time    1.3523
    ORTHCH:  cpu time    0.0332: real time    0.0332
       DOS:  cpu time    0.0008: real time    0.0008
    CHARGE:  cpu time    0.0866: real time    0.0870
    MIXING:  cpu time    0.0010: real time    0.0010
    --------------------------------------------
      LOOP:  cpu time    1.7906: real time    1.7972

 eigenvalue-minimisations  :  2000
 total energy-change (2. order) :-0.8469303E-03  (-0.3421605E-02)
 number of electron      77.9999978 magnetization 
 augmentation part        6.4745124 magnetization 

 Broyden mixing:
  rms(total) = 0.78640E-01    rms(broyden)= 0.77987E-01
  rms(prec ) = 0.80823E-01
  weight for this iteration     100.00

 eigenvalues of (default mixing * dielectric matrix)
  average eigenvalue GAMMA=   1.0297
  2.5238  1.1859  1.1859  0.8977  0.8977  0.5029  0.5029  0.5408

 Free energy of the ion-electron system (eV)
  ---------------------------------------------------
  alpha Z        PSCENC =       116.82591216
  Ewald energy   TEWEN  =     24148.76422335
  -Hartree energ DENC   =    -28619.36868127
  -exchange      EXHF   =         0.00000000
  -V(xc)+E(xc)   XCENC  =      -144.98398829
  PAW double counting   =      5227.43988312    -4781.16777433
  entropy T*S    EENTRO =        -0.01454745
  eigenvalues    EBANDS =      -586.40249778
  atomic energy  EATOM  =      4530.91163914
  Solvation  Ediel_sol  =         0.00000000
  ---------------------------------------------------
  free energy    TOTEN  =      -107.99583135 eV

  energy without entropy =     -107.98128390  energy(sigma->0) =     -107.98855763


--------------------------------------------------------------------------------------------------------




--------------------------------------- Iteration      1(  17)  ---------------------------------------


    POTLOK:  cpu time    0.0110: real time    0.0122
    SETDIJ:  cpu time    0.0024: real time    0.0031
    EDDIAG:  cpu time    0.3081: real time    0.3087
  RMM-DIIS:  cpu time    1.1614: real time    1.1641
    ORTHCH:  cpu time    0.0733: real time    0.0734
       DOS:  cpu time    0.0008: real time    0.0008
    CHARGE:  cpu time    0.1625: real time    0.1627
    MIXING:  cpu time    0.0010: real time    0.0010
    --------------------------------------------
      LOOP:  cpu time    1.7205: real time    1.7260

 eigenvalue-minimisations  :  2008
 total energy-change (2. order) : 0.2379073E-02  (-0.2545589E-03)
 number of electron      77.9999978 magnetization 
 augmentation part        6.4705671 magnetization 

 Broyden mixing:
  rms(total) = 0.43936E-01    rms(broyden)= 0.43928E-01
  rms(prec ) = 0.47579E-01
  weight for this iteration     100.00

 eigenvalues of (default mixing * dielectric matrix)
  average eigenvalue GAMMA=   1.2149
  2.5824  2.1955  1.3151  1.3151  0.4978  0.4978  0.9154  0.9154  0.6998

 Free energy of the ion-electron system (eV)
  ---------------------------------------------------
  alpha Z        PSCENC =       116.82591216
  Ewald energy   TEWEN  =     24148.76422335
  -Hartree energ DENC   =    -28618.61923096
  -exchange      EXHF   =         0.00000000
  -V(xc)+E(xc)   XCENC  =      -144.93696735
  PAW double counting   =      5228.21815723    -4781.95599208
  entropy T*S    EENTRO =        -0.01714395
  eigenvalues    EBANDS =      -587.18404981
  atomic energy  EATOM  =      4530.91163914
  Solvation  Ediel_sol  =         0.00000000
  ---------------------------------------------------
  free energy    TOTEN  =      -107.99345228 eV

  energy without entropy =     -107.97630833  energy(sigma->0) =     -107.98488030


--------------------------------------------------------------------------------------------------------




--------------------------------------- Iteration      1(  18)  ---------------------------------------


    POTLOK:  cpu time    0.0215: real time    0.0216
    SETDIJ:  cpu time    0.0067: real time    0.0067
    EDDIAG:  cpu time    0.3689: real time    0.3695
  RMM-DIIS:  cpu time    1.3290: real time    1.3317
    ORTHCH:  cpu time    0.0323: real time    0.0327
       DOS:  cpu time    0.0009: real time    0.0009
    CHARGE:  cpu time    0.0857: real time    0.0858
    MIXING:  cpu time    0.0011: real time    0.0011
    --------------------------------------------
      LOOP:  cpu time    1.8462: real time    1.8500

 eigenvalue-minimisations  :  2000
 total energy-change (2. order) :-0.1777452E-02  (-0.2679727E-03)
 number of electron      77.9999978 magnetization 
 augmentation part        6.4694360 magnetization 

 Broyden mixing:
  rms(total) = 0.33314E-01    rms(broyden)= 0.33000E-01
  rms(prec ) = 0.37206E-01
  weight for this iteration     100.00

 eigenvalues of (default mixing * dielectric matrix)
  average eigenvalue GAMMA=   1.2340
  2.6507  2.3117  1.5464  1.0651  1.0651  0.9701  0.9701  0.4969  0.4969  0.7668

 Free energy of the ion-electron system (eV)
  ---------------------------------------------------
  alpha Z        PSCENC =       116.82591216
  Ewald energy   TEWEN  =     24148.76422335
  -Hartree energ DENC   =    -28617.98113763
  -exchange      EXHF   =         0.00000000
  -V(xc)+E(xc)   XCENC  =      -144.90090771
  PAW double counting   =      5221.10073233    -4774.84950010
  entropy T*S    EENTRO =        -0.02048298
  eigenvalues    EBANDS =      -587.84570830
  atomic energy  EATOM  =      4530.91163914
  Solvation  Ediel_sol  =         0.00000000
  ---------------------------------------------------
  free energy    TOTEN  =      -107.99522973 eV

  energy without entropy =     -107.97474676  energy(sigma->0) =     -107.98498824


--------------------------------------------------------------------------------------------------------




--------------------------------------- Iteration      1(  19)  ---------------------------------------


    POTLOK:  cpu time    0.0129: real time    0.0130
    SETDIJ:  cpu time    0.0033: real time    0.0033
    EDDIAG:  cpu time    0.3110: real time    0.3115
  RMM-DIIS:  cpu time    1.3008: real time    1.3039
    ORTHCH:  cpu time    0.0329: real time    0.0329
       DOS:  cpu time    0.0010: real time    0.0009
    CHARGE:  cpu time    0.0862: real time    0.0864
    MIXING:  cpu time    0.0012: real time    0.0012
    --------------------------------------------
      LOOP:  cpu time    1.7491: real time    1.7531

 eigenvalue-minimisations  :  1973
 total energy-change (2. order) : 0.3530687E-02  (-0.1344462E-03)
 number of electron      77.9999978 magnetization 
 augmentation part        6.4705680 magnetization 

 Broyden mixing:
  rms(total) = 0.27289E-01    rms(broyden)= 0.27288E-01
  rms(prec ) = 0.30592E-01
  weight for this iteration     100.00

 eigenvalues of (default mixing * dielectric matrix)
  average eigenvalue GAMMA=   1.2924
  2.6979  2.6979  2.2505  1.0481  1.0481  0.4971  0.4971  0.8647  0.8647  0.8949
  0.8559

 Free energy of the ion-electron system (eV)
  ---------------------------------------------------
  alpha Z        PSCENC =       116.82591216
  Ewald energy   TEWEN  =     24148.76422335
  -Hartree energ DENC   =    -28620.69957877
  -exchange      EXHF   =         0.00000000
  -V(xc)+E(xc)   XCENC  =      -144.90827826
  PAW double counting   =      5218.70799227    -4772.45628439
  entropy T*S    EENTRO =        -0.02031264
  eigenvalues    EBANDS =      -585.11701190
  atomic energy  EATOM  =      4530.91163914
  Solvation  Ediel_sol  =         0.00000000
  ---------------------------------------------------
  free energy    TOTEN  =      -107.99169905 eV

  energy without entropy =     -107.97138640  energy(sigma->0) =     -107.98154272


--------------------------------------------------------------------------------------------------------




--------------------------------------- Iteration      1(  20)  ---------------------------------------


    POTLOK:  cpu time    0.0104: real time    0.0105
    SETDIJ:  cpu time    0.0021: real time    0.0021
    EDDIAG:  cpu time    0.3037: real time    0.3043
  RMM-DIIS:  cpu time    1.2662: real time    1.2710
    ORTHCH:  cpu time    0.0389: real time    0.0390
       DOS:  cpu time    0.0009: real time    0.0009
    CHARGE:  cpu time    0.0900: real time    0.0903
    MIXING:  cpu time    0.0013: real time    0.0013
    --------------------------------------------
      LOOP:  cpu time    1.7136: real time    1.7193

 eigenvalue-minimisations  :  1859
 total energy-change (2. order) : 0.2176117E-02  (-0.8270787E-04)
 number of electron      77.9999978 magnetization 
 augmentation part        6.4719907 magnetization 

 Broyden mixing:
  rms(total) = 0.22804E-01    rms(broyden)= 0.22789E-01
  rms(prec ) = 0.24700E-01
  weight for this iteration     100.00

 eigenvalues of (default mixing * dielectric matrix)
  average eigenvalue GAMMA=   1.3961
  3.2219  3.2219  2.3384  1.1186  1.1186  1.0586  1.0586  0.4970  0.4970  0.9480
  0.8373  0.8373

 Free energy of the ion-electron system (eV)
  ---------------------------------------------------
  alpha Z        PSCENC =       116.82591216
  Ewald energy   TEWEN  =     24148.76422335
  -Hartree energ DENC   =    -28622.23742586
  -exchange      EXHF   =         0.00000000
  -V(xc)+E(xc)   XCENC  =      -144.91719087
  PAW double counting   =      5218.22831933    -4771.97472287
  entropy T*S    EENTRO =        -0.02151375
  eigenvalues    EBANDS =      -583.56876356
  atomic energy  EATOM  =      4530.91163914
  Solvation  Ediel_sol  =         0.00000000
  ---------------------------------------------------
  free energy    TOTEN  =      -107.98952293 eV

  energy without entropy =     -107.96800917  energy(sigma->0) =     -107.97876605


--------------------------------------------------------------------------------------------------------




--------------------------------------- Iteration      1(  21)  ---------------------------------------


    POTLOK:  cpu time    0.0114: real time    0.0115
    SETDIJ:  cpu time    0.0024: real time    0.0024
    EDDIAG:  cpu time    0.3449: real time    0.3454
  RMM-DIIS:  cpu time    1.2361: real time    1.2385
    ORTHCH:  cpu time    0.0344: real time    0.0348
       DOS:  cpu time    0.0009: real time    0.0009
    CHARGE:  cpu time    0.0893: real time    0.0894
    MIXING:  cpu time    0.0014: real time    0.0014
    --------------------------------------------
      LOOP:  cpu time    1.7207: real time    1.7243

 eigenvalue-minimisations  :  1948
 total energy-change (2. order) : 0.1667783E-02  (-0.1201688E-03)
 number of electron      77.9999977 magnetization 
 augmentation part        6.4719133 magnetization 

 Broyden mixing:
  rms(total) = 0.13356E-01    rms(broyden)= 0.13350E-01
  rms(prec ) = 0.13872E-01
  weight for this iteration     100.00

 eigenvalues of (default mixing * dielectric matrix)
  average eigenvalue GAMMA=   1.3061
  3.2808  3.2808  2.3465  1.1210  1.1210  1.0683  1.0683  0.4970  0.4970  0.9558
  0.8340  0.8340  0.0743

 Free energy of the ion-electron system (eV)
  ---------------------------------------------------
  alpha Z        PSCENC =       116.82591216
  Ewald energy   TEWEN  =     24148.76422335
  -Hartree energ DENC   =    -28624.56461478
  -exchange      EXHF   =         0.00000000
  -V(xc)+E(xc)   XCENC  =      -144.91266721
  PAW double counting   =      5218.38191208    -4772.13056113
  entropy T*S    EENTRO =        -0.02223153
  eigenvalues    EBANDS =      -581.24146722
  atomic energy  EATOM  =      4530.91163914
  Solvation  Ediel_sol  =         0.00000000
  ---------------------------------------------------
  free energy    TOTEN  =      -107.98785515 eV

  energy without entropy =     -107.96562361  energy(sigma->0) =     -107.97673938


--------------------------------------------------------------------------------------------------------




--------------------------------------- Iteration      1(  22)  ---------------------------------------


    POTLOK:  cpu time    0.0113: real time    0.0115
    SETDIJ:  cpu time    0.0023: real time    0.0023
    EDDIAG:  cpu time    0.3424: real time    0.3431
  RMM-DIIS:  cpu time    1.2284: real time    1.2333
    ORTHCH:  cpu time    0.0364: real time    0.0366
       DOS:  cpu time    0.0008: real time    0.0008
    CHARGE:  cpu time    0.0872: real time    0.0873
    MIXING:  cpu time    0.0015: real time    0.0015
    --------------------------------------------
      LOOP:  cpu time    1.7104: real time    1.7164

 eigenvalue-minimisations  :  1916
 total energy-change (2. order) : 0.2014239E-03  (-0.2972426E-04)
 number of electron      77.9999977 magnetization 
 augmentation part        6.4718622 magnetization 

 Broyden mixing:
  rms(total) = 0.11322E-01    rms(broyden)= 0.11320E-01
  rms(prec ) = 0.11497E-01
  weight for this iteration     100.00

 eigenvalues of (default mixing * dielectric matrix)
  average eigenvalue GAMMA=   1.3168
  3.1535  3.1535  2.2740  1.1344  1.1344  1.0922  1.0922  0.4970  0.4970  0.9951
  0.8261  0.8261  0.8801  0.8801

 Free energy of the ion-electron system (eV)
  ---------------------------------------------------
  alpha Z        PSCENC =       116.82591216
  Ewald energy   TEWEN  =     24148.76422335
  -Hartree energ DENC   =    -28625.30657772
  -exchange      EXHF   =         0.00000000
  -V(xc)+E(xc)   XCENC  =      -144.91092081
  PAW double counting   =      5218.49138810    -4772.24075259
  entropy T*S    EENTRO =        -0.02247917
  eigenvalues    EBANDS =      -580.50008619
  atomic energy  EATOM  =      4530.91163914
  Solvation  Ediel_sol  =         0.00000000
  ---------------------------------------------------
  free energy    TOTEN  =      -107.98765372 eV

  energy without entropy =     -107.96517455  energy(sigma->0) =     -107.97641414


--------------------------------------------------------------------------------------------------------




--------------------------------------- Iteration      1(  23)  ---------------------------------------


    POTLOK:  cpu time    0.0118: real time    0.0118
    SETDIJ:  cpu time    0.0024: real time    0.0024
    EDDIAG:  cpu time    0.3430: real time    0.3437
  RMM-DIIS:  cpu time    0.9565: real time    0.9650
    ORTHCH:  cpu time    0.0338: real time    0.0339
       DOS:  cpu time    0.0008: real time    0.0008
    CHARGE:  cpu time    0.0828: real time    0.0829
    MIXING:  cpu time    0.0013: real time    0.0013
    --------------------------------------------
      LOOP:  cpu time    1.4324: real time    1.4418

 eigenvalue-minimisations  :  1189
 total energy-change (2. order) :-0.1447491E-04  (-0.9219847E-06)
 number of electron      77.9999977 magnetization 
 augmentation part        6.4717525 magnetization 

 Broyden mixing:
  rms(total) = 0.10076E-01    rms(broyden)= 0.10075E-01
  rms(prec ) = 0.10324E-01
  weight for this iteration     100.00

 eigenvalues of (default mixing * dielectric matrix)
  average eigenvalue GAMMA=   1.4419
  3.4340  3.4340  2.6712  2.5131  1.1326  1.1326  1.3624  0.4970  0.4970  0.9594
  0.9594  0.8602  0.8602  0.6579  0.6579

 Free energy of the ion-electron system (eV)
  ---------------------------------------------------
  alpha Z        PSCENC =       116.82591216
  Ewald energy   TEWEN  =     24148.76422335
  -Hartree energ DENC   =    -28625.15758390
  -exchange      EXHF   =         0.00000000
  -V(xc)+E(xc)   XCENC  =      -144.91067523
  PAW double counting   =      5218.44110511    -4772.19049028
  entropy T*S    EENTRO =        -0.02227548
  eigenvalues    EBANDS =      -580.64952307
  atomic energy  EATOM  =      4530.91163914
  Solvation  Ediel_sol  =         0.00000000
  ---------------------------------------------------
  free energy    TOTEN  =      -107.98766820 eV

  energy without entropy =     -107.96539272  energy(sigma->0) =     -107.97653046


--------------------------------------------------------------------------------------------------------




--------------------------------------- Iteration      1(  24)  ---------------------------------------


    POTLOK:  cpu time    0.0099: real time    0.0100
    SETDIJ:  cpu time    0.0022: real time    0.0022
    EDDIAG:  cpu time    0.2896: real time    0.2901
  RMM-DIIS:  cpu time    1.3368: real time    1.3391
    ORTHCH:  cpu time    0.0343: real time    0.0344
       DOS:  cpu time    0.0009: real time    0.0009
    CHARGE:  cpu time    0.0908: real time    0.0909
    MIXING:  cpu time    0.0023: real time    0.0026
    --------------------------------------------
      LOOP:  cpu time    1.7667: real time    1.7701

 eigenvalue-minimisations  :  1872
 total energy-change (2. order) : 0.2573444E-04  (-0.1693880E-04)
 number of electron      77.9999977 magnetization 
 augmentation part        6.4709979 magnetization 

 Broyden mixing:
  rms(total) = 0.63164E-02    rms(broyden)= 0.62465E-02
  rms(prec ) = 0.67790E-02
  weight for this iteration     100.00

 eigenvalues of (default mixing * dielectric matrix)
  average eigenvalue GAMMA=   1.4265
  3.4813  3.4813  2.6001  2.6001  1.1313  1.1313  1.1639  1.1639  0.4970  0.4970
  0.9242  0.9242  0.8575  0.8575  0.7566  0.7566

 Free energy of the ion-electron system (eV)
  ---------------------------------------------------
  alpha Z        PSCENC =       116.82591216
  Ewald energy   TEWEN  =     24148.76422335
  -Hartree energ DENC   =    -28625.67897631
  -exchange      EXHF   =         0.00000000
  -V(xc)+E(xc)   XCENC  =      -144.90492680
  PAW double counting   =      5218.48384697    -4772.23467107
  entropy T*S    EENTRO =        -0.02142992
  eigenvalues    EBANDS =      -580.13325998
  atomic energy  EATOM  =      4530.91163914
  Solvation  Ediel_sol  =         0.00000000
  ---------------------------------------------------
  free energy    TOTEN  =      -107.98764246 eV

  energy without entropy =     -107.96621254  energy(sigma->0) =     -107.97692750


--------------------------------------------------------------------------------------------------------




--------------------------------------- Iteration      1(  25)  ---------------------------------------


    POTLOK:  cpu time    0.0115: real time    0.0117
    SETDIJ:  cpu time    0.0023: real time    0.0023
    EDDIAG:  cpu time    0.2947: real time    0.2952
  RMM-DIIS:  cpu time    0.9258: real time    0.9299
    ORTHCH:  cpu time    0.0349: real time    0.0350
       DOS:  cpu time    0.0008: real time    0.0008
    --------------------------------------------
      LOOP:  cpu time    1.2700: real time    1.2749

 eigenvalue-minimisations  :  1372
 total energy-change (2. order) : 0.1842361E-05  (-0.3104349E-05)
 number of electron      77.9999977 magnetization 
 augmentation part        6.4709979 magnetization 

 Free energy of the ion-electron system (eV)
  ---------------------------------------------------
  alpha Z        PSCENC =       116.82591216
  Ewald energy   TEWEN  =     24148.76422335
  -Hartree energ DENC   =    -28625.85926916
  -exchange      EXHF   =         0.00000000
  -V(xc)+E(xc)   XCENC  =      -144.90437327
  PAW double counting   =      5218.43412457    -4772.18517008
  entropy T*S    EENTRO =        -0.02163354
  eigenvalues    EBANDS =      -579.95309379
  atomic energy  EATOM  =      4530.91163914
  Solvation  Ediel_sol  =         0.00000000
  ---------------------------------------------------
  free energy    TOTEN  =      -107.98764062 eV

  energy without entropy =     -107.96600708  energy(sigma->0) =     -107.97682385


--------------------------------------------------------------------------------------------------------




 average (electrostatic) potential at core
  the test charge radii are     0.7215  1.0714
  (the norm of the test charge is              1.0000)
       1 -75.1316       2 -74.9621       3 -74.9636       4 -75.1329       5 -74.8472
       6 -74.9373       7 -74.9687       8 -74.9696       9 -74.9386      10 -74.8485
      11 -40.4247      12 -40.5189      13 -40.4251      14 -39.9822      15 -40.4963
      16 -40.5147      17 -40.5158      18 -40.4984      19 -39.9843
 
 
 
 E-fermi :  -1.7212     XC(G=0):  -7.3189     alpha+bet : -7.8929


 k-point     1 :       0.0625    0.0625    0.0000
  band No.  band energies     occupation 
      1     -19.2032      2.00000
      2     -19.0924      2.00000
      3     -18.9414      2.00000
      4     -18.7626      2.00000
      5     -18.5693      2.00000
      6     -18.3797      2.00000
      7     -18.2189      2.00000
      8     -18.1200      2.00000
      9     -17.3219      2.00000
     10     -17.3204      2.00000
     11      -6.4537      2.00000
     12      -6.1573      2.00000
     13      -5.7292      2.00000
     14      -5.2069      2.00000
     15      -4.6295      2.00000
     16      -4.0418      2.00000
     17      -3.5006      2.00000
     18      -3.2177      2.00000
     19      -3.1337      2.00000
     20      -3.0872      2.00000
     21      -3.0166      2.00000
     22      -2.9033      2.00000
     23      -2.8854      2.00000
     24      -2.8669      2.00000
     25      -2.8054      2.00000
[...]
     14      -5.4385      2.00000
     15      -5.3792      2.00000
     16      -5.2325      2.00000
     17      -5.0877      2.00000
     18      -5.0001      2.00000
     19      -4.7128      2.00000
     20      -4.5875      2.00000
     21      -4.4284      2.00000
     22      -4.2404      2.00000
     23      -4.1703      2.00000
     24      -4.1038      2.00000
     25      -3.9953      2.00000
     26      -3.9180      2.00000
     27      -3.7910      2.00000
     28      -3.7328      2.00000
     29      -3.4094      2.00000
     30      -3.1758      2.00000
     31      -3.0727      2.00000
     32      -2.9910      2.00000
     33      -2.9130      2.00000
     34      -2.7991      2.00000
     35      -2.7244      2.00000
     36      -2.7176      2.00000
     37      -2.3197      2.00000
     38      -2.3183      2.00000
     39      -1.6344      1.85266
     40      -1.6335      1.84534
     41       7.5656      0.00000
     42       7.7970      0.00000
     43       7.9974      0.00000
     44       8.0840      0.00000
     45       8.3283      0.00000
     46       8.6260      0.00000
     47       9.0031      0.00000
     48       9.3356      0.00000
     49       9.4580      0.00000
     50       9.6115      0.00000

 k-point    17 :      -0.4375    0.3125   -0.0000
  band No.  band energies     occupation 
      1     -18.0602      2.00000
      2     -18.0036      2.00000
      3     -17.9243      2.00000
      4     -17.8383      2.00000
      5     -17.7494      2.00000
      6     -17.6657      2.00000
      7     -17.6003      2.00000
      8     -17.5840      2.00000
      9     -16.9135      2.00000
     10     -16.9124      2.00000
     11      -5.8849      2.00000
     12      -5.7165      2.00000
     13      -5.5945      2.00000
     14      -5.4887      2.00000
     15      -5.4428      2.00000
     16      -5.3037      2.00000
     17      -5.1937      2.00000
     18      -5.0809      2.00000
     19      -4.6236      2.00000
     20      -4.3678      2.00000
     21      -4.0772      2.00000
     22      -3.7867      2.00000
     23      -3.5650      2.00000
     24      -3.4228      2.00000
     25      -3.3775      2.00000
     26      -3.3243      2.00000
     27      -3.2611      2.00000
     28      -3.1739      2.00000
     29      -3.0703      2.00000
     30      -3.0012      2.00000
     31      -2.9152      2.00000
     32      -2.8382      2.00000
     33      -2.6943      2.00000
     34      -2.6270      2.00000
     35      -2.5897      2.00000
     36      -2.5195      2.00000
     37      -1.9467      2.00000
     38      -1.9456      2.00000
     39      -1.6369      1.87141
     40      -1.6359      1.86466
     41       6.3052      0.00000
     42       6.6855      0.00000
     43       7.1291      0.00000
     44       7.5144      0.00000
     45       7.8275      0.00000
     46       8.1197      0.00000
     47       8.3459      0.00000
     48       8.4009      0.00000
     49       8.6651      0.00000
     50       8.7854      0.00000

 k-point    18 :      -0.3125    0.3125    0.0000
  band No.  band energies     occupation 
      1     -18.3316      2.00000
      2     -18.2585      2.00000
      3     -18.1541      2.00000
      4     -18.0362      2.00000
      5     -17.9089      2.00000
      6     -17.7872      2.00000
      7     -17.6930      2.00000
      8     -17.6480      2.00000
      9     -17.0010      2.00000
     10     -17.0000      2.00000
     11      -5.5810      2.00000
     12      -5.5475      2.00000
     13      -5.4197      2.00000
     14      -5.3585      2.00000
     15      -5.2071      2.00000
     16      -5.0897      2.00000
     17      -4.9168      2.00000
     18      -4.7394      2.00000
     19      -4.6434      2.00000
     20      -4.3855      2.00000
     21      -4.0145      2.00000
     22      -3.6549      2.00000
     23      -3.3410      2.00000
     24      -3.0645      2.00000
     25      -3.0480      2.00000
     26      -2.9736      2.00000
     27      -2.8690      2.00000
     28      -2.8413      2.00000
     29      -2.7536      2.00000
     30      -2.6550      2.00000
     31      -2.6315      2.00000
     32      -2.5151      2.00000
     33      -2.5069      2.00000
     34      -2.4246      2.00000
     35      -2.4245      2.00000
     36      -2.3951      2.00000
     37      -1.6641      1.97798
     38      -1.6630      1.97616
     39      -1.6354      1.86032
     40      -1.6339      1.84868
     41       5.5134      0.00000
     42       5.8999      0.00000
     43       6.3627      0.00000
     44       6.8499      0.00000
     45       7.3272      0.00000
     46       7.7097      0.00000
     47       7.9301      0.00000
     48       8.0850      0.00000
     49       8.2733      0.00000
     50       8.7331      0.00000

 k-point    19 :       0.4375    0.4375    0.0000
  band No.  band energies     occupation 
      1     -17.8212      2.00000
      2     -17.7915      2.00000
      3     -17.7491      2.00000
      4     -17.7051      2.00000
      5     -17.6642      2.00000
      6     -17.6293      2.00000
      7     -17.5572      2.00000
      8     -17.5559      2.00000
      9     -16.8579      2.00000
     10     -16.8568      2.00000
     11      -6.2381      2.00000
     12      -6.0629      2.00000
     13      -5.8238      2.00000
     14      -5.7389      2.00000
     15      -5.6138      2.00000
     16      -5.5956      2.00000
     17      -5.4194      2.00000
     18      -5.3934      2.00000
     19      -4.3448      2.00000
     20      -4.3253      2.00000
     21      -3.9060      2.00000
     22      -3.8404      2.00000
     23      -3.7001      2.00000
     24      -3.6053      2.00000
     25      -3.5994      2.00000
     26      -3.4576      2.00000
     27      -3.2996      2.00000
     28      -3.2878      2.00000
     29      -3.1958      2.00000
     30      -3.1119      2.00000
     31      -3.0358      2.00000
     32      -2.9309      2.00000
     33      -2.7746      2.00000
     34      -2.6989      2.00000
     35      -2.6824      2.00000
     36      -2.6720      2.00000
     37      -2.0227      2.00000
     38      -2.0216      2.00000
     39      -1.6709      1.98693
     40      -1.6700      1.98594
     41       6.4769      0.00000
     42       6.9234      0.00000
     43       7.4787      0.00000
     44       7.6622      0.00000
     45       8.0137      0.00000
     46       8.0952      0.00000
     47       8.3262      0.00000
     48       8.4253      0.00000
     49       8.5466      0.00000
     50       8.6285      0.00000

 k-point    20 :      -0.4375    0.4375    0.0000
  band No.  band energies     occupation 
      1     -17.9403      2.00000
      2     -17.8964      2.00000
      3     -17.8354      2.00000
      4     -17.7712      2.00000
      5     -17.7072      2.00000
      6     -17.6481      2.00000
      7     -17.5876      2.00000
      8     -17.5828      2.00000
      9     -16.8913      2.00000
     10     -16.8902      2.00000
     11      -6.2905      2.00000
     12      -6.1128      2.00000
     13      -5.8689      2.00000
     14      -5.8245      2.00000
     15      -5.6734      2.00000
     16      -5.6289      2.00000
     17      -5.4592      2.00000
     18      -5.4220      2.00000
     19      -4.4295      2.00000
     20      -4.3761      2.00000
     21      -4.0358      2.00000
     22      -3.6542      2.00000
     23      -3.3688      2.00000
     24      -3.3271      2.00000
     25      -3.2199      2.00000
     26      -3.1445      2.00000
     27      -3.1040      2.00000
     28      -3.0382      2.00000
     29      -2.9208      2.00000
     30      -2.8559      2.00000
     31      -2.7966      2.00000
     32      -2.6937      2.00000
     33      -2.6781      2.00000
     34      -2.6040      2.00000
     35      -2.5857      2.00000
     36      -2.5563      2.00000
     37      -1.7813      2.00000
     38      -1.7803      2.00000
     39      -1.7084      1.99961
     40      -1.7070      1.99954
     41       5.9367      0.00000
     42       6.4132      0.00000
     43       6.9772      0.00000
     44       7.3753      0.00000
     45       7.4615      0.00000
     46       7.6640      0.00000
     47       7.7883      0.00000
     48       7.9578      0.00000
     49       8.0339      0.00000
     50       8.3002      0.00000


--------------------------------------------------------------------------------------------------------


 soft charge-density along one line, spin component           1
         0         1         2         3         4         5         6         7         8         9
 total charge-density along one line
 
 pseudopotential strength for first ion, spin component:           1
 12.884 -15.733  -0.021  -0.021  -0.021   0.026   0.026   0.026
-15.733  19.236   0.027   0.027   0.027  -0.034  -0.034  -0.034
 -0.021   0.027  -9.258   0.002   0.002  11.277  -0.003  -0.003
 -0.021   0.027   0.002  -9.258   0.002  -0.003  11.277  -0.002
 -0.021   0.027   0.002   0.002  -9.258  -0.003  -0.002  11.277
  0.026  -0.034  11.277  -0.003  -0.003 -13.619   0.003   0.003
  0.026  -0.034  -0.003  11.277  -0.002   0.003 -13.619   0.003
  0.026  -0.034  -0.003  -0.002  11.277   0.003   0.003 -13.619
 total augmentation occupancy for first ion, spin component:           1
  2.452   0.256   0.091   0.091   0.091   0.031   0.031   0.031
  0.256   0.043   0.072   0.072   0.072   0.010   0.010   0.010
  0.091   0.072   1.869  -0.029  -0.029   0.161  -0.009  -0.009
  0.091   0.072  -0.029   1.869  -0.029  -0.009   0.161  -0.009
  0.091   0.072  -0.029  -0.029   1.869  -0.009  -0.009   0.161
  0.031   0.010   0.161  -0.009  -0.009   0.016  -0.001  -0.001
  0.031   0.010  -0.009   0.161  -0.009  -0.001   0.016  -0.001
  0.031   0.010  -0.009  -0.009   0.161  -0.001  -0.001   0.016


------------------------ aborting loop because EDIFF is reached ----------------------------------------


    CHARGE:  cpu time    0.0874: real time    0.0876
    FORLOC:  cpu time    0.0021: real time    0.0021
    FORNL :  cpu time    0.4764: real time    0.4775
    STRESS:  cpu time    1.4264: real time    1.4315
    FORCOR:  cpu time    0.0115: real time    0.0116
    FORHAR:  cpu time    0.0234: real time    0.0237
    MIXING:  cpu time    0.0005: real time    0.0005
    OFIELD:  cpu time    0.0000: real time    0.0000

  FORCE on cell =-STRESS in cart. coord.  units (eV):
  Direction    XX          YY          ZZ          XY          YZ          ZX
  --------------------------------------------------------------------------------------
  Alpha Z   116.82591   116.82591   116.82591
  Ewald    8316.43184  8316.43202  8316.43184-18962.70087-18962.70087-18962.70076
  Hartree  9815.40307  9815.40307  9815.40307-18691.15174-18691.15174-18691.15174
  E(xc)    -355.33546  -355.33549  -355.33546     0.02684     0.02684     0.02685
  Local  -19172.21646-19172.21602-19172.21646 37653.24995 37653.24995 37653.25042
  n-local  -182.24514  -187.76960  -193.29838    -1.63451     1.07266    -0.14623
  augment    67.23901    67.23906    67.23901    -0.18348    -0.18348    -0.18345
  Kinetic  1387.65762  1401.85515  1416.09070    13.69464   -14.22450    -0.74112
  Fock        0.00000     0.00000     0.00000     0.00000     0.00000     0.00000
  -------------------------------------------------------------------------------------
  Total       2.44490     2.44490     2.44490    -1.41877    -1.41877    -1.41877
  in kB      13.51482    13.51482    13.51482    -7.84262    -7.84262    -7.84262
  external pressure =       13.51 kB  Pullay stress =        0.00 kB


 VOLUME and BASIS-vectors are now :
 -----------------------------------------------------------------------------
  energy-cutoff  :      520.00
  volume of cell :      289.84
      direct lattice vectors                 reciprocal lattice vectors
     2.124436000 -2.124436000  0.000000000     0.313808779 -0.156904389 -0.156904389
     0.000000000  2.124436000 -2.124436000     0.156904389  0.156904389 -0.313808779
    21.406867000 21.406867000 21.406867000     0.015571327  0.015571327  0.015571327

  length of vectors
     3.004406204  3.004406204 37.077781275     0.384335692  0.384335692  0.026970330


 FORCES acting on ions
    electron-ion (+dipol)            ewald-force                    non-local-force                 convergence-correction
 -----------------------------------------------------------------------------------------------
   0.103E+04 0.103E+04 0.103E+04   -.104E+04 -.104E+04 -.104E+04   0.856E+01 0.856E+01 0.856E+01   -.452E-01 -.452E-01 -.452E-01
   0.341E+03 0.341E+03 0.341E+03   -.341E+03 -.341E+03 -.341E+03   0.488E-01 0.488E-01 0.488E-01   -.204E-01 -.204E-01 -.204E-01
   -.341E+03 -.341E+03 -.341E+03   0.341E+03 0.341E+03 0.341E+03   -.488E-01 -.488E-01 -.488E-01   0.204E-01 0.204E-01 0.204E-01
   -.103E+04 -.103E+04 -.103E+04   0.104E+04 0.104E+04 0.104E+04   -.856E+01 -.856E+01 -.856E+01   0.452E-01 0.452E-01 0.452E-01
   0.800E+03 0.800E+03 0.800E+03   -.801E+03 -.801E+03 -.801E+03   0.121E+01 0.121E+01 0.121E+01   -.432E-01 -.432E-01 -.432E-01
   0.569E+03 0.569E+03 0.569E+03   -.569E+03 -.569E+03 -.569E+03   0.259E+00 0.259E+00 0.259E+00   -.220E-01 -.220E-01 -.220E-01
   0.114E+03 0.114E+03 0.114E+03   -.114E+03 -.114E+03 -.114E+03   0.147E-01 0.147E-01 0.147E-01   0.498E-02 0.498E-02 0.498E-02
   -.114E+03 -.114E+03 -.114E+03   0.114E+03 0.114E+03 0.114E+03   -.147E-01 -.147E-01 -.147E-01   -.497E-02 -.497E-02 -.497E-02
   -.569E+03 -.569E+03 -.569E+03   0.569E+03 0.569E+03 0.569E+03   -.259E+00 -.259E+00 -.259E+00   0.220E-01 0.220E-01 0.220E-01
   -.800E+03 -.800E+03 -.800E+03   0.801E+03 0.801E+03 0.801E+03   -.121E+01 -.121E+01 -.121E+01   0.432E-01 0.432E-01 0.432E-01
   0.228E+03 0.228E+03 0.228E+03   -.228E+03 -.228E+03 -.228E+03   0.284E+00 0.284E+00 0.284E+00   -.987E-02 -.987E-02 -.987E-02
   -.146E-04 0.160E-03 -.146E-04   -.356E-03 -.356E-03 -.356E-03   0.000E+00 0.000E+00 0.000E+00   0.410E-06 0.410E-06 0.410E-06
   -.228E+03 -.228E+03 -.228E+03   0.228E+03 0.228E+03 0.228E+03   -.284E+00 -.284E+00 -.284E+00   0.987E-02 0.987E-02 0.987E-02
   0.309E+03 0.309E+03 0.309E+03   -.310E+03 -.310E+03 -.310E+03   0.127E+01 0.127E+01 0.127E+01   -.220E-01 -.220E-01 -.220E-01
   0.152E+03 0.152E+03 0.152E+03   -.152E+03 -.152E+03 -.152E+03   0.545E-01 0.545E-01 0.545E-01   -.464E-02 -.464E-02 -.464E-02
   0.758E+02 0.758E+02 0.758E+02   -.758E+02 -.758E+02 -.758E+02   0.104E-01 0.104E-01 0.104E-01   -.139E-02 -.139E-02 -.139E-02
   -.758E+02 -.758E+02 -.758E+02   0.758E+02 0.758E+02 0.758E+02   -.104E-01 -.104E-01 -.104E-01   0.139E-02 0.139E-02 0.139E-02
   -.152E+03 -.152E+03 -.152E+03   0.152E+03 0.152E+03 0.152E+03   -.545E-01 -.545E-01 -.545E-01   0.464E-02 0.464E-02 0.464E-02
   -.309E+03 -.309E+03 -.309E+03   0.310E+03 0.310E+03 0.310E+03   -.127E+01 -.127E+01 -.127E+01   0.220E-01 0.220E-01 0.220E-01
 -----------------------------------------------------------------------------------------------
   0.167E-01 -.408E-02 0.167E-01   0.625E-12 0.796E-12 0.114E-12   0.000E+00 0.222E-15 0.444E-15   0.357E-05 0.368E-05 0.357E-05
 
 
 POSITION                                       TOTAL-FORCE (eV/Angst)
 -----------------------------------------------------------------------------------
      1.76782      0.70560     -0.35662        -0.001133     -0.001133     -0.001133
      5.88782      4.82560      3.76339         0.004641      0.004641      0.004641
     10.13793      9.07572      8.01350        -0.004641     -0.004641     -0.004641
     14.25792     13.19570     12.13348         0.001133      0.001133      0.001133
      3.78863      0.60198      1.66419         0.000802      0.000802      0.000802
      3.76565      4.82787      1.64122         0.000135      0.000135      0.000135
      8.01171      4.82505      5.88727         0.001658      0.001658      0.001658
      8.01405      9.07627      5.88961        -0.001658     -0.001658     -0.001658
     12.26008      9.07343     10.13565        -0.000135     -0.000135     -0.000135
     12.23713     13.29934     10.11269        -0.000802     -0.000802     -0.000802
      3.75201      2.68980      1.62758         0.001232      0.001232      0.001232
      8.01288      6.95066      5.88844         0.000000      0.000000      0.000000
     12.27374     11.21152     10.14930        -0.001232     -0.001232     -0.001232
      1.59055      2.65277     -0.53388         0.001054      0.001054      0.001054
      5.88442      2.69777      3.75998        -0.000734     -0.000734     -0.000734
      5.88646      6.94868      3.76203         0.002511      0.002511      0.002511
     10.13927      6.95262      8.01483        -0.002511     -0.002511     -0.002511
     10.14134     11.20355      8.01690         0.000734      0.000734      0.000734
     14.43520     11.24855     12.31077        -0.001054     -0.001054     -0.001054
 -----------------------------------------------------------------------------------
    total drift:                                0.016724     -0.004072      0.016721


--------------------------------------------------------------------------------------------------------



  FREE ENERGIE OF THE ION-ELECTRON SYSTEM (eV)
  ---------------------------------------------------
  free  energy   TOTEN  =      -108.31006231 eV

  energy  without entropy=     -108.28402329  energy(sigma->0) =     -108.29704280
 
 d Force = 0.2375903E-04[ 0.106E-04, 0.370E-04]  d Energy = 0.2609796E-04-0.234E-05
 d Force =-0.1466765E+01[-0.147E+01,-0.147E+01]  d Ewald  =-0.1466765E+01-0.118E-07


--------------------------------------------------------------------------------------------------------


    POTLOK:  cpu time    0.0247: real time    0.0250


--------------------------------------------------------------------------------------------------------


 stress matrix after NEB project (eV)
      2.44490     -1.41877     -1.41877
     -1.41877      2.44490     -1.41877
     -1.41877     -1.41877      2.44490
  FORCES: max atom, RMS     0.008038    0.003357
  FORCE total and by dimension    0.014635    0.004641
  Stress total and by dimension    5.478147    2.444902
 Conjugate gradient step on ions:
 trial-energy change:   -0.000026  1 .order   -0.000024   -0.000037   -0.000011
  (g-gl).g = 0.401E-04      g.g   = 0.370E-04  gl.gl    = 0.151E-03
 g(Force)  = 0.370E-04   g(Stress)= 0.000E+00 ortho     =-0.470E-05
 gamma     =   0.26491
 trial     =   1.03468
 opt step  =   1.44900  (harmonic =   1.44900) maximal distance =0.00049877
 next E    =  -108.310062   (d E  =  -0.00003)


--------------------------------------------------------------------------------------------------------


  
 reached required accuracy - stopping structural energy minimisation
     LOOP+:  cpu time   15.9872: real time   16.0635
    4ORBIT:  cpu time    0.0000: real time    0.0000

 total amount of memory used by VASP MPI-rank0    44078. kBytes
=======================================================================

   base      :      30000. kBytes
   nonlr-proj:       2315. kBytes
   fftplans  :       2110. kBytes
   grid      :       3053. kBytes
   one-center:         40. kBytes
   wavefun   :       6560. kBytes
 
  
  
 General timing and accounting informations for this job:
 ========================================================
  
                  Total CPU time used (sec):      748.231
                            User time (sec):      746.625
                          System time (sec):        1.606
                         Elapsed time (sec):      752.698
  
                   Maximum memory used (kb):      140768.
                   Average memory used (kb):           0.
  
                          Minor page faults:       126947
                          Major page faults:            0
                 Voluntary context switches:          881
