       N       E                     dE             d eps       ncg     rms          rms(c)
DAV:   1     0.495409799831E+03    0.49541E+03   -0.40928E+04  2620   0.131E+03
DAV:   2    -0.849318052963E+02   -0.58034E+03   -0.54728E+03  3394   0.252E+02
DAV:   3    -0.147061893213E+03   -0.62130E+02   -0.61724E+02  3056   0.883E+01
DAV:   4    -0.148148249582E+03   -0.10864E+01   -0.10836E+01  3088   0.128E+01
DAV:   5    -0.148172759788E+03   -0.24510E-01   -0.24484E-01  3146   0.189E+00    0.221E+01
DAV:   6    -0.132448764759E+03    0.15724E+02   -0.87396E+01  2898   0.284E+01    0.736E+00
DAV:   7    -0.132342253844E+03    0.10651E+00   -0.17968E+00  2918   0.497E+00    0.449E+00
DAV:   8    -0.132242098776E+03    0.10016E+00   -0.38219E-01  2984   0.336E+00    0.711E-01
DAV:   9    -0.132228535529E+03    0.13563E-01   -0.44198E-02  2960   0.830E-01    0.356E-01
DAV:  10    -0.132229388449E+03   -0.85292E-03   -0.19741E-02  2994   0.486E-01    0.242E-01
DAV:  11    -0.132228873805E+03    0.51464E-03   -0.16905E-03  3372   0.257E-01    0.132E-01
DAV:  12    -0.132228304551E+03    0.56925E-03   -0.10026E-03  3688   0.255E-01    0.378E-02
DAV:  13    -0.132228089546E+03    0.21500E-03   -0.49427E-04  2980   0.107E-01    0.268E-02
DAV:  14    -0.132227490963E+03    0.59858E-03   -0.29599E-04  3232   0.172E-01    0.399E-02
DAV:  15    -0.132227051254E+03    0.43971E-03   -0.22555E-04  3366   0.181E-01    0.447E-02
DAV:  16    -0.132226354121E+03    0.69713E-03   -0.83538E-04  4284   0.410E-01    0.238E-02
DAV:  17    -0.132225940996E+03    0.41313E-03   -0.11250E-03  3558   0.509E-01    0.285E-02
DAV:  18    -0.132226036569E+03   -0.95573E-04   -0.14777E-03  2918   0.172E-01    0.322E-02
DAV:  19    -0.132226021976E+03    0.14593E-04   -0.15457E-04  2906   0.594E-02    0.265E-02
DAV:  20    -0.132226018633E+03    0.33432E-05   -0.14837E-05  1742   0.173E-02
   1 F= -.13222602E+03 E0= -.13222400E+03  d E =-.132226E+03
       N       E                     dE             d eps       ncg     rms          rms(c)
DAV:   1    -0.132228022888E+03   -0.20009E-02   -0.10009E-02  2768   0.450E-01    0.352E-02
DAV:   2    -0.132227993835E+03    0.29052E-04   -0.82573E-04  3016   0.136E-01    0.356E-02
DAV:   3    -0.132227958914E+03    0.34921E-04   -0.10367E-04  2964   0.507E-02    0.210E-02
DAV:   4    -0.132227922005E+03    0.36910E-04   -0.47761E-05  2862   0.306E-02    0.984E-03
DAV:   5    -0.132227895406E+03    0.26599E-04   -0.29440E-05  2526   0.440E-02    0.747E-03
DAV:   6    -0.132227882960E+03    0.12446E-04   -0.40666E-05  2646   0.539E-02    0.617E-03
DAV:   7    -0.132227882614E+03    0.34586E-06   -0.24145E-05  2312   0.190E-02
   2 F= -.13222788E+03 E0= -.13222588E+03  d E =-.186398E-02
       N       E                     dE             d eps       ncg     rms          rms(c)
DAV:   1    -0.132229111141E+03   -0.12282E-02   -0.20334E-02  2690   0.602E-01    0.402E-02
DAV:   2    -0.132229076828E+03    0.34313E-04   -0.14402E-03  3024   0.166E-01    0.408E-02
DAV:   3    -0.132229026291E+03    0.50538E-04   -0.10922E-04  2980   0.553E-02    0.282E-02
DAV:   4    -0.132228952421E+03    0.73869E-04   -0.20308E-04  2934   0.681E-02    0.158E-02
DAV:   5    -0.132228927285E+03    0.25136E-04   -0.49917E-05  2980   0.451E-02    0.171E-02
DAV:   6    -0.132228914203E+03    0.13082E-04   -0.41546E-05  2698   0.287E-02    0.644E-03
DAV:   7    -0.132228902451E+03    0.11752E-04   -0.76746E-06  1956   0.208E-02    0.403E-03
DAV:   8    -0.132228896156E+03    0.62948E-05   -0.70794E-06  1996   0.219E-02
   3 F= -.13222890E+03 E0= -.13222692E+03  d E =-.287752E-02
       N       E                     dE             d eps       ncg     rms          rms(c)
DAV:   1    -0.132230041469E+03   -0.11390E-02   -0.20177E-01  2736   0.186E+00    0.579E-02
DAV:   2    -0.132230409686E+03   -0.36822E-03   -0.43701E-03  2904   0.256E-01    0.348E-02
DAV:   3    -0.132230372214E+03    0.37472E-04   -0.55084E-05  2948   0.508E-02    0.237E-02
DAV:   4    -0.132230332437E+03    0.39777E-04   -0.55586E-05  2860   0.674E-02    0.890E-03
DAV:   5    -0.132230323197E+03    0.92405E-05   -0.50673E-05  2758   0.449E-02    0.794E-03
DAV:   6    -0.132230320709E+03    0.24873E-05   -0.16127E-05  1734   0.187E-02
   4 F= -.13223032E+03 E0= -.13222836E+03  d E =-.142455E-02
       N       E                     dE             d eps       ncg     rms          rms(c)
DAV:   1    -0.132229619282E+03    0.70391E-03   -0.18111E+00  2716   0.559E+00    0.174E-01
DAV:   2    -0.132232927084E+03   -0.33078E-02   -0.39154E-02  2896   0.770E-01    0.107E-01
DAV:   3    -0.132232594404E+03    0.33268E-03   -0.53485E-04  3058   0.154E-01    0.719E-02
DAV:   4    -0.132232282161E+03    0.31224E-03   -0.44663E-04  3130   0.180E-01    0.285E-02
DAV:   5    -0.132232189819E+03    0.92342E-04   -0.36129E-04  3074   0.133E-01    0.202E-02
DAV:   6    -0.132232135447E+03    0.54372E-04   -0.15506E-04  2882   0.823E-02    0.140E-02
DAV:   7    -0.132232035668E+03    0.99779E-04   -0.40599E-05  2834   0.109E-01    0.126E-02
DAV:   8    -0.132231968519E+03    0.67149E-04   -0.60983E-05  2938   0.933E-02    0.931E-03
DAV:   9    -0.132231875876E+03    0.92643E-04   -0.82249E-05  3304   0.157E-01    0.774E-03
DAV:  10    -0.132231811736E+03    0.64140E-04   -0.11768E-04  3304   0.169E-01    0.928E-03
DAV:  11    -0.132231786613E+03    0.25124E-04   -0.16396E-04  3034   0.107E-01    0.569E-03
DAV:  12    -0.132231776849E+03    0.97630E-05   -0.85684E-05  2878   0.605E-02
   5 F= -.13223178E+03 E0= -.13222984E+03  d E =-.288069E-02
       N       E                     dE             d eps       ncg     rms          rms(c)
DAV:   1    -0.132232429578E+03   -0.64297E-03   -0.10319E-01  2696   0.132E+00    0.431E-02
DAV:   2    -0.132232626210E+03   -0.19663E-03   -0.22071E-03  2910   0.178E-01    0.218E-02
DAV:   3    -0.132232615875E+03    0.10335E-04   -0.26799E-05  2440   0.252E-02    0.151E-02
DAV:   4    -0.132232608457E+03    0.74178E-05   -0.27585E-05  2460   0.267E-02    0.541E-03
DAV:   5    -0.132232607928E+03    0.52933E-06   -0.68512E-06  1588   0.140E-02    0.467E-03
DAV:   6    -0.132232607017E+03    0.91143E-06   -0.45309E-06  1630   0.145E-02
   6 F= -.13223261E+03 E0= -.13223067E+03  d E =-.830167E-03
       N       E                     dE             d eps       ncg     rms          rms(c)
DAV:   1    -0.132232982454E+03   -0.37453E-03   -0.92819E-01  2636   0.395E+00    0.123E-01
DAV:   2    -0.132234704709E+03   -0.17223E-02   -0.19440E-02  2866   0.530E-01    0.683E-02
DAV:   3    -0.132234602240E+03    0.10247E-03   -0.22259E-04  3060   0.699E-02    0.472E-02
DAV:   4    -0.132234523734E+03    0.78506E-04   -0.23738E-04  2914   0.810E-02    0.168E-02
DAV:   5    -0.132234515383E+03    0.83512E-05   -0.73498E-05  2770   0.409E-02    0.133E-02
DAV:   6    -0.132234502930E+03    0.12453E-04   -0.23971E-05  2292   0.294E-02    0.604E-03
DAV:   7    -0.132234490301E+03    0.12630E-04   -0.72253E-06  1762   0.336E-02    0.651E-03
DAV:   8    -0.132234469550E+03    0.20751E-04   -0.79665E-06  1966   0.529E-02    0.459E-03
DAV:   9    -0.132234455075E+03    0.14475E-04   -0.27007E-05  2402   0.495E-02    0.691E-03
DAV:  10    -0.132234430466E+03    0.24609E-04   -0.15279E-05  2212   0.779E-02    0.615E-03
DAV:  11    -0.132234422239E+03    0.82264E-05   -0.32395E-05  2644   0.660E-02
   7 F= -.13223442E+03 E0= -.13223250E+03  d E =-.264539E-02
       N       E                     dE             d eps       ncg     rms          rms(c)
DAV:   1    -0.132228995432E+03    0.54350E-02   -0.37078E+00  2628   0.794E+00    0.246E-01
DAV:   2    -0.132235991946E+03   -0.69965E-02   -0.78810E-02  2868   0.107E+00    0.140E-01
DAV:   3    -0.132235573479E+03    0.41847E-03   -0.90954E-04  3052   0.141E-01    0.958E-02
DAV:   4    -0.132235275152E+03    0.29833E-03   -0.89451E-04  3006   0.153E-01    0.346E-02
DAV:   5    -0.132235242527E+03    0.32625E-04   -0.26846E-04  2906   0.793E-02    0.247E-02
DAV:   6    -0.132235200591E+03    0.41936E-04   -0.88548E-05  2860   0.582E-02    0.115E-02
DAV:   7    -0.132235164369E+03    0.36222E-04   -0.24422E-05  2400   0.558E-02    0.111E-02
DAV:   8    -0.132235100712E+03    0.63657E-04   -0.38820E-05  2842   0.901E-02    0.793E-03
DAV:   9    -0.132235070639E+03    0.30073E-04   -0.51550E-05  2732   0.540E-02    0.120E-02
DAV:  10    -0.132234989368E+03    0.81271E-04   -0.11531E-04  3230   0.131E-01    0.210E-02
DAV:  11    -0.132234963195E+03    0.26173E-04   -0.70509E-05  3108   0.902E-02    0.249E-02
DAV:  12    -0.132234933677E+03    0.29518E-04   -0.14356E-04  3536   0.130E-01    0.497E-03
DAV:  13    -0.132234940742E+03   -0.70649E-05   -0.10619E-04  2756   0.571E-02    0.522E-03
DAV:  14    -0.132234942067E+03   -0.13253E-05   -0.17259E-05  1958   0.145E-02
   8 F= -.13223494E+03 E0= -.13223305E+03  d E =-.316522E-02
       N       E                     dE             d eps       ncg     rms          rms(c)
DAV:   1    -0.132234434363E+03    0.50638E-03   -0.48400E-01  2628   0.285E+00    0.929E-02
DAV:   2    -0.132235372052E+03   -0.93769E-03   -0.10691E-02  2868   0.386E-01    0.498E-02
DAV:   3    -0.132235318445E+03    0.53607E-04   -0.12496E-04  3036   0.533E-02    0.355E-02
DAV:   4    -0.132235279852E+03    0.38593E-04   -0.14666E-04  2920   0.620E-02    0.132E-02
DAV:   5    -0.132235276118E+03    0.37348E-05   -0.40751E-05  2492   0.293E-02    0.117E-02
DAV:   6    -0.132235270005E+03    0.61125E-05   -0.19122E-05  2016   0.240E-02
   9 F= -.13223527E+03 E0= -.13223338E+03  d E =-.349316E-02
       N       E                     dE             d eps       ncg     rms          rms(c)
DAV:   1    -0.132236411448E+03   -0.11353E-02   -0.14017E-01  2604   0.156E+00    0.481E-02
DAV:   2    -0.132236645806E+03   -0.23436E-03   -0.28393E-03  2922   0.210E-01    0.276E-02
DAV:   3    -0.132236626075E+03    0.19732E-04   -0.47771E-05  2884   0.338E-02    0.190E-02
DAV:   4    -0.132236610726E+03    0.15348E-04   -0.73790E-05  2906   0.407E-02    0.100E-02
DAV:   5    -0.132236607912E+03    0.28148E-05   -0.11406E-05  1830   0.178E-02    0.969E-03
DAV:   6    -0.132236603042E+03    0.48693E-05   -0.16334E-05  2054   0.256E-02
  10 F= -.13223660E+03 E0= -.13223471E+03  d E =-.133304E-02
       N       E                     dE             d eps       ncg     rms          rms(c)
DAV:   1    -0.132237365560E+03   -0.75765E-03   -0.12627E+00  2612   0.467E+00    0.141E-01
DAV:   2    -0.132239535887E+03   -0.21703E-02   -0.25333E-02  2922   0.623E-01    0.844E-02
DAV:   3    -0.132239368321E+03    0.16757E-03   -0.36679E-04  3088   0.100E-01    0.572E-02
DAV:   4    -0.132239255644E+03    0.11268E-03   -0.71117E-04  2976   0.136E-01    0.292E-02
DAV:   5    -0.132239250754E+03    0.48894E-05   -0.15554E-04  2888   0.585E-02    0.282E-02
DAV:   6    -0.132239239811E+03    0.10943E-04   -0.46271E-05  2606   0.319E-02    0.148E-02
DAV:   7    -0.132239230097E+03    0.97143E-05   -0.10947E-05  1920   0.267E-02
  11 F= -.13223923E+03 E0= -.13223733E+03  d E =-.396009E-02
       N       E                     dE             d eps       ncg     rms          rms(c)
DAV:   1    -0.132230516409E+03    0.87234E-02   -0.50491E+00  2612   0.930E+00    0.284E-01
DAV:   2    -0.132239346945E+03   -0.88305E-02   -0.10314E-01  2930   0.125E+00    0.175E-01
DAV:   3    -0.132238654310E+03    0.69263E-03   -0.15566E-03  3062   0.206E-01    0.119E-01
DAV:   4    -0.132238189876E+03    0.46443E-03   -0.27914E-03  2992   0.272E-01    0.573E-02
DAV:   5    -0.132238167611E+03    0.22265E-04   -0.62846E-04  2944   0.119E-01    0.564E-02
DAV:   6    -0.132238122381E+03    0.45230E-04   -0.20133E-04  2918   0.679E-02    0.285E-02
DAV:   7    -0.132238090756E+03    0.31625E-04   -0.52804E-05  3006   0.523E-02    0.140E-02
DAV:   8    -0.132238069886E+03    0.20870E-04   -0.90703E-05  3196   0.745E-02    0.147E-02
DAV:   9    -0.132238062403E+03    0.74829E-05   -0.52945E-05  2804   0.397E-02
  12 F= -.13223806E+03 E0= -.13223606E+03  d E =-.279240E-02
       N       E                     dE             d eps       ncg     rms          rms(c)
DAV:   1    -0.132236857428E+03    0.12125E-02   -0.19578E+00  2620   0.574E+00    0.176E-01
DAV:   2    -0.132240225918E+03   -0.33685E-02   -0.39294E-02  2922   0.765E-01    0.106E-01
DAV:   3    -0.132239969771E+03    0.25615E-03   -0.52760E-04  3114   0.127E-01    0.719E-02
DAV:   4    -0.132239808939E+03    0.16083E-03   -0.11022E-03  2992   0.185E-01    0.344E-02
DAV:   5    -0.132239811990E+03   -0.30505E-05   -0.29214E-04  2864   0.754E-02    0.353E-02
DAV:   6    -0.132239799763E+03    0.12226E-04   -0.45496E-05  2606   0.296E-02    0.217E-02
DAV:   7    -0.132239788925E+03    0.10839E-04   -0.22318E-05  2346   0.276E-02    0.104E-02
DAV:   8    -0.132239785228E+03    0.36964E-05   -0.49726E-05  2698   0.425E-02
  13 F= -.13223979E+03 E0= -.13223786E+03  d E =-.451522E-02
       N       E                     dE             d eps       ncg     rms          rms(c)
DAV:   1    -0.132240810240E+03   -0.10213E-02   -0.34262E-01  2652   0.247E+00    0.776E-02
DAV:   2    -0.132241419847E+03   -0.60961E-03   -0.72352E-03  2894   0.340E-01    0.437E-02
DAV:   3    -0.132241365846E+03    0.54001E-04   -0.13461E-04  3066   0.652E-02    0.318E-02
DAV:   4    -0.132241316351E+03    0.49495E-04   -0.11062E-04  2940   0.703E-02    0.147E-02
DAV:   5    -0.132241300669E+03    0.15683E-04   -0.68719E-05  2928   0.555E-02    0.147E-02
DAV:   6    -0.132241294929E+03    0.57396E-05   -0.35695E-05  2528   0.326E-02
  14 F= -.13224129E+03 E0= -.13223934E+03  d E =-.150970E-02
       N       E                     dE             d eps       ncg     rms          rms(c)
DAV:   1    -0.132238572806E+03    0.27279E-02   -0.29512E+00  2652   0.726E+00    0.222E-01
DAV:   2    -0.132243837204E+03   -0.52644E-02   -0.61235E-02  2868   0.996E-01    0.129E-01
DAV:   3    -0.132243388055E+03    0.44915E-03   -0.11801E-03  3124   0.194E-01    0.907E-02
DAV:   4    -0.132242997924E+03    0.39013E-03   -0.78549E-04  3038   0.188E-01    0.438E-02
DAV:   5    -0.132242861920E+03    0.13600E-03   -0.48923E-04  3196   0.155E-01    0.359E-02
DAV:   6    -0.132242814316E+03    0.47603E-04   -0.31108E-04  2944   0.105E-01    0.197E-02
DAV:   7    -0.132242773522E+03    0.40794E-04   -0.13393E-04  3082   0.973E-02    0.257E-02
DAV:   8    -0.132242753186E+03    0.20336E-04   -0.80388E-05  2992   0.577E-02    0.269E-02
DAV:   9    -0.132242737269E+03    0.15917E-04   -0.47439E-05  2574   0.346E-02    0.159E-02
DAV:  10    -0.132242715380E+03    0.21889E-04   -0.30353E-05  2534   0.518E-02    0.527E-03
DAV:  11    -0.132242711161E+03    0.42187E-05   -0.31234E-05  2588   0.384E-02
  15 F= -.13224271E+03 E0= -.13224061E+03  d E =-.292593E-02
       N       E                     dE             d eps       ncg     rms          rms(c)
DAV:   1    -0.132243153803E+03   -0.43842E-03   -0.61496E-01  2612   0.334E+00    0.105E-01
DAV:   2    -0.132244331345E+03   -0.11775E-02   -0.13245E-02  2870   0.462E-01    0.568E-02
DAV:   3    -0.132244275575E+03    0.55770E-04   -0.22624E-04  3100   0.681E-02    0.409E-02
DAV:   4    -0.132244239266E+03    0.36310E-04   -0.14546E-04  2918   0.637E-02    0.191E-02
DAV:   5    -0.132244236112E+03    0.31535E-05   -0.56771E-05  2796   0.359E-02    0.157E-02
DAV:   6    -0.132244233196E+03    0.29165E-05   -0.17142E-05  1724   0.223E-02
  16 F= -.13224423E+03 E0= -.13224204E+03  d E =-.152203E-02
       N       E                     dE             d eps       ncg     rms          rms(c)
DAV:   1    -0.132237113971E+03    0.71221E-02   -0.55319E+00  2604   0.100E+01    0.308E-01
DAV:   2    -0.132247664371E+03   -0.10550E-01   -0.11737E-01  2852   0.137E+00    0.171E-01
DAV:   3    -0.132247123672E+03    0.54070E-03   -0.18278E-03  3122   0.194E-01    0.119E-01
DAV:   4    -0.132246792163E+03    0.33151E-03   -0.12149E-03  2960   0.194E-01    0.567E-02
DAV:   5    -0.132246756352E+03    0.35810E-04   -0.52707E-04  2944   0.110E-01    0.429E-02
DAV:   6    -0.132246730744E+03    0.25608E-04   -0.14712E-04  2944   0.580E-02    0.231E-02
DAV:   7    -0.132246720394E+03    0.10350E-04   -0.67159E-05  2888   0.351E-02    0.160E-02
DAV:   8    -0.132246708688E+03    0.11706E-04   -0.43190E-06  1612   0.288E-02    0.137E-02
DAV:   9    -0.132246691985E+03    0.16704E-04   -0.23313E-05  2190   0.498E-02    0.540E-03
DAV:  10    -0.132246681436E+03    0.10548E-04   -0.26735E-05  2266   0.393E-02    0.583E-03
DAV:  11    -0.132246667851E+03    0.13585E-04   -0.42884E-06  1820   0.349E-02    0.555E-03
DAV:  12    -0.132246640277E+03    0.27575E-04   -0.53599E-05  2962   0.136E-01    0.691E-03
DAV:  13    -0.132246641287E+03   -0.10102E-05   -0.70074E-05  2926   0.696E-02
  17 F= -.13224664E+03 E0= -.13224413E+03  d E =-.393013E-02
       N       E                     dE             d eps       ncg     rms          rms(c)
DAV:   1    -0.132248073264E+03   -0.14330E-02   -0.40426E-01  2708   0.262E+00    0.789E-02
DAV:   2    -0.132248757502E+03   -0.68424E-03   -0.82116E-03  2954   0.360E-01    0.522E-02
DAV:   3    -0.132248672851E+03    0.84651E-04   -0.13338E-04  3014   0.750E-02    0.361E-02
DAV:   4    -0.132248590947E+03    0.81905E-04   -0.16940E-04  3014   0.994E-02    0.164E-02
DAV:   5    -0.132248569975E+03    0.20972E-04   -0.12222E-04  3000   0.686E-02    0.148E-02
DAV:   6    -0.132248565164E+03    0.48103E-05   -0.35851E-05  2528   0.275E-02
  18 F= -.13224857E+03 E0= -.13224598E+03  d E =-.192388E-02
       N       E                     dE             d eps       ncg     rms          rms(c)
DAV:   1    -0.132248257876E+03    0.31210E-03   -0.11034E+00  2660   0.433E+00    0.130E-01
DAV:   2    -0.132250050395E+03   -0.17925E-02   -0.22244E-02  2962   0.599E-01    0.888E-02
DAV:   3    -0.132249780214E+03    0.27018E-03   -0.42215E-04  3036   0.136E-01    0.610E-02
DAV:   4    -0.132249510002E+03    0.27021E-03   -0.44270E-04  3306   0.164E-01    0.300E-02
DAV:   5    -0.132249406017E+03    0.10398E-03   -0.33658E-04  3094   0.129E-01    0.231E-02
DAV:   6    -0.132249370427E+03    0.35591E-04   -0.17327E-04  2972   0.745E-02    0.155E-02
DAV:   7    -0.132249321602E+03    0.48825E-04   -0.80711E-05  3040   0.817E-02    0.241E-02
DAV:   8    -0.132249297267E+03    0.24335E-04   -0.57593E-05  3132   0.527E-02    0.177E-02
DAV:   9    -0.132249284479E+03    0.12787E-04   -0.42011E-05  2616   0.405E-02    0.783E-03
DAV:  10    -0.132249269334E+03    0.15145E-04   -0.17375E-05  2306   0.581E-02    0.445E-03
DAV:  11    -0.132249266975E+03    0.23597E-05   -0.31708E-05  2654   0.396E-02
  19 F= -.13224927E+03 E0= -.13224659E+03  d E =-.262569E-02
       N       E                     dE             d eps       ncg     rms          rms(c)
DAV:   1    -0.132249301283E+03   -0.31948E-04   -0.59221E-02  2708   0.998E-01    0.303E-02
DAV:   2    -0.132249395722E+03   -0.94439E-04   -0.11581E-03  2960   0.136E-01    0.197E-02
DAV:   3    -0.132249381998E+03    0.13723E-04   -0.17199E-05  2116   0.283E-02    0.134E-02
DAV:   4    -0.132249368008E+03    0.13990E-04   -0.29610E-05  2486   0.425E-02    0.549E-03
DAV:   5    -0.132249365831E+03    0.21775E-05   -0.20851E-05  2166   0.245E-02    0.560E-03
DAV:   6    -0.132249365753E+03    0.78020E-07   -0.40353E-06  1506   0.823E-03
  20 F= -.13224937E+03 E0= -.13224671E+03  d E =-.272447E-02
       N       E                     dE             d eps       ncg     rms          rms(c)
DAV:   1    -0.132250220565E+03   -0.85473E-03   -0.24175E-01  2644   0.206E+00    0.668E-02
DAV:   2    -0.132250654201E+03   -0.43364E-03   -0.53817E-03  2914   0.301E-01    0.436E-02
DAV:   3    -0.132250615587E+03    0.38613E-04   -0.13530E-04  2964   0.585E-02    0.321E-02
DAV:   4    -0.132250589118E+03    0.26469E-04   -0.85819E-05  2788   0.436E-02    0.155E-02
DAV:   5    -0.132250576109E+03    0.13010E-04   -0.25412E-05  2372   0.362E-02    0.109E-02
DAV:   6    -0.132250569308E+03    0.68011E-05   -0.16616E-05  2036   0.368E-02
  21 F= -.13225057E+03 E0= -.13224785E+03  d E =-.120355E-02
       N       E                     dE             d eps       ncg     rms          rms(c)
DAV:   1    -0.132250535198E+03    0.40911E-04   -0.30890E-01  2660   0.233E+00    0.788E-02
DAV:   2    -0.132251116236E+03   -0.58104E-03   -0.71867E-03  2914   0.349E-01    0.511E-02
DAV:   3    -0.132251063698E+03    0.52538E-04   -0.17634E-04  2974   0.683E-02    0.372E-02
DAV:   4    -0.132251028001E+03    0.35697E-04   -0.12844E-04  2878   0.540E-02    0.178E-02
DAV:   5    -0.132251011056E+03    0.16945E-04   -0.35505E-05  2752   0.439E-02    0.138E-02
DAV:   6    -0.132250999367E+03    0.11690E-04   -0.22894E-05  2246   0.463E-02    0.791E-03
DAV:   7    -0.132250994129E+03    0.52383E-05   -0.28293E-05  2414   0.400E-02
  22 F= -.13225099E+03 E0= -.13224821E+03  d E =-.162838E-02
       N       E                     dE             d eps       ncg     rms          rms(c)
DAV:   1    -0.132251242945E+03   -0.24358E-03   -0.34781E-02  2680   0.774E-01    0.291E-02
DAV:   2    -0.132251300066E+03   -0.57121E-04   -0.94463E-04  2888   0.129E-01    0.199E-02
DAV:   3    -0.132251288812E+03    0.11254E-04   -0.42417E-05  2780   0.343E-02    0.164E-02
DAV:   4    -0.132251277373E+03    0.11439E-04   -0.13117E-05  1728   0.221E-02    0.882E-03
DAV:   5    -0.132251262434E+03    0.14939E-04   -0.20774E-05  2356   0.450E-02    0.713E-03
DAV:   6    -0.132251257422E+03    0.50122E-05   -0.15780E-05  2100   0.342E-02
  23 F= -.13225126E+03 E0= -.13224847E+03  d E =-.263293E-03
       N       E                     dE             d eps       ncg     rms          rms(c)
DAV:   1    -0.132251287341E+03   -0.24907E-04   -0.15699E-02  2700   0.522E-01    0.195E-02
DAV:   2    -0.132251317545E+03   -0.30204E-04   -0.46549E-04  2916   0.894E-02    0.152E-02
DAV:   3    -0.132251310919E+03    0.66265E-05   -0.13821E-05  1864   0.210E-02    0.119E-02
DAV:   4    -0.132251300420E+03    0.10499E-04   -0.24924E-05  2428   0.307E-02    0.543E-03
DAV:   5    -0.132251297053E+03    0.33667E-05   -0.80602E-06  1672   0.226E-02    0.647E-03
DAV:   6    -0.132251294548E+03    0.25053E-05   -0.61360E-06  1638   0.200E-02
  24 F= -.13225129E+03 E0= -.13224850E+03  d E =-.300419E-03
       N       E                     dE             d eps       ncg     rms          rms(c)
DAV:   1    -0.132251394253E+03   -0.97200E-04   -0.51749E-02  2692   0.949E-01    0.292E-02
DAV:   2    -0.132251499405E+03   -0.10515E-03   -0.11818E-03  2894   0.134E-01    0.202E-02
DAV:   3    -0.132251490407E+03    0.89977E-05   -0.14436E-05  1926   0.227E-02    0.145E-02
DAV:   4    -0.132251482152E+03    0.82555E-05   -0.44161E-05  2558   0.414E-02    0.635E-03
DAV:   5    -0.132251482005E+03    0.14637E-06   -0.14672E-05  1548   0.167E-02    0.712E-03
DAV:   6    -0.132251481395E+03    0.60995E-06   -0.17615E-06  1530   0.611E-03
  25 F= -.13225148E+03 E0= -.13224868E+03  d E =-.186848E-03
       N       E                     dE             d eps       ncg     rms          rms(c)
DAV:   1    -0.132251345536E+03    0.13647E-03   -0.15241E-01  2692   0.163E+00    0.506E-02
DAV:   2    -0.132251636182E+03   -0.29065E-03   -0.33936E-03  2926   0.230E-01    0.324E-02
DAV:   3    -0.132251608219E+03    0.27964E-04   -0.49584E-05  2826   0.412E-02    0.241E-02
DAV:   4    -0.132251575156E+03    0.33063E-04   -0.72942E-05  2672   0.612E-02    0.974E-03
DAV:   5    -0.132251565496E+03    0.96603E-05   -0.48928E-05  2644   0.398E-02    0.126E-02
DAV:   6    -0.132251559530E+03    0.59660E-05   -0.13967E-05  1566   0.189E-02
  26 F= -.13225156E+03 E0= -.13224874E+03  d E =-.264982E-03
       N       E                     dE             d eps       ncg     rms          rms(c)
DAV:   1    -0.132251632232E+03   -0.66737E-04   -0.56879E-02  2620   0.984E-01    0.283E-02
DAV:   2    -0.132251716934E+03   -0.84702E-04   -0.10753E-03  2918   0.134E-01    0.192E-02
DAV:   3    -0.132251703455E+03    0.13479E-04   -0.23890E-05  2138   0.325E-02    0.133E-02
DAV:   4    -0.132251686868E+03    0.16587E-04   -0.13265E-05  1940   0.345E-02    0.697E-03
DAV:   5    -0.132251675489E+03    0.11379E-04   -0.14703E-05  1966   0.341E-02    0.501E-03
DAV:   6    -0.132251668655E+03    0.68339E-05   -0.10534E-05  1578   0.275E-02
  27 F= -.13225167E+03 E0= -.13224884E+03  d E =-.109126E-03
       N       E                     dE             d eps       ncg     rms          rms(c)
DAV:   1    -0.132251592728E+03    0.82761E-04   -0.81040E-02  2632   0.118E+00    0.328E-02
DAV:   2    -0.132251722167E+03   -0.12944E-03   -0.15613E-03  2934   0.160E-01    0.241E-02
DAV:   3    -0.132251705120E+03    0.17046E-04   -0.26818E-05  2318   0.310E-02    0.161E-02
DAV:   4    -0.132251684457E+03    0.20664E-04   -0.26972E-05  2526   0.397E-02    0.694E-03
DAV:   5    -0.132251678775E+03    0.56813E-05   -0.15647E-05  1770   0.265E-02    0.441E-03
DAV:   6    -0.132251670673E+03    0.81023E-05   -0.61048E-06  1702   0.341E-02
  28 F= -.13225167E+03 E0= -.13224883E+03  d E =-.111143E-03
       N       E                     dE             d eps       ncg     rms          rms(c)
DAV:   1    -0.132251805038E+03   -0.12626E-03   -0.59987E-03  2664   0.332E-01    0.109E-02
DAV:   2    -0.132251813204E+03   -0.81662E-05   -0.11421E-04  2892   0.454E-02    0.777E-03
DAV:   3    -0.132251811790E+03    0.14142E-05   -0.36522E-06  1590   0.916E-03    0.471E-03
DAV:   4    -0.132251810880E+03    0.90994E-06   -0.22754E-06  1536   0.858E-03    0.239E-03
DAV:   5    -0.132251810482E+03    0.39808E-06   -0.74679E-07  1536   0.710E-03    0.140E-03
DAV:   6    -0.132251809909E+03    0.57215E-06   -0.33298E-07  1554   0.105E-02
  29 F= -.13225181E+03 E0= -.13224895E+03  d E =-.139236E-03
       N       E                     dE             d eps       ncg     rms          rms(c)
DAV:   1    -0.132252034831E+03   -0.22435E-03   -0.54961E-02  2604   0.998E-01    0.346E-02
DAV:   2    -0.132252105405E+03   -0.70574E-04   -0.11008E-03  2942   0.140E-01    0.189E-02
DAV:   3    -0.132252092774E+03    0.12631E-04   -0.45840E-05  2896   0.337E-02    0.130E-02
DAV:   4    -0.132252084005E+03    0.87683E-05   -0.10045E-05  1722   0.176E-02    0.825E-03
DAV:   5    -0.132252069768E+03    0.14238E-04   -0.90060E-06  1902   0.294E-02    0.479E-03
DAV:   6    -0.132252060303E+03    0.94650E-05   -0.81208E-06  1786   0.304E-02
  30 F= -.13225206E+03 E0= -.13224916E+03  d E =-.389630E-03
       N       E                     dE             d eps       ncg     rms          rms(c)
DAV:   1    -0.132252038827E+03    0.30940E-04   -0.87789E-03  2748   0.406E-01    0.162E-02
DAV:   2    -0.132252054220E+03   -0.15393E-04   -0.29555E-04  2960   0.737E-02    0.133E-02
DAV:   3    -0.132252045877E+03    0.83434E-05   -0.10307E-05  1746   0.163E-02    0.822E-03
DAV:   4    -0.132252032328E+03    0.13548E-04   -0.18720E-05  1882   0.235E-02    0.606E-03
DAV:   5    -0.132252026145E+03    0.61830E-05   -0.36816E-06  1598   0.188E-02    0.583E-03
DAV:   6    -0.132252006469E+03    0.19676E-04   -0.14536E-05  2056   0.631E-02    0.366E-03
DAV:   7    -0.132251985842E+03    0.20628E-04   -0.26242E-05  2578   0.786E-02    0.516E-03
DAV:   8    -0.132251978989E+03    0.68524E-05   -0.29523E-05  2484   0.442E-02
  31 F= -.13225198E+03 E0= -.13224908E+03  d E =-.308316E-03
       N       E                     dE             d eps       ncg     rms          rms(c)
DAV:   1    -0.132252007675E+03   -0.21833E-04   -0.25322E-03  2760   0.218E-01    0.100E-02
DAV:   2    -0.132252010359E+03   -0.26842E-05   -0.63200E-05  2746   0.344E-02    0.682E-03
DAV:   3    -0.132252009342E+03    0.10173E-05   -0.35964E-06  1554   0.107E-02    0.386E-03
DAV:   4    -0.132252008847E+03    0.49489E-06   -0.21083E-06  1506   0.849E-03    0.191E-03
DAV:   5    -0.132252008617E+03    0.22952E-06   -0.80677E-07  1464   0.566E-03    0.112E-03
DAV:   6    -0.132252008354E+03    0.26304E-06   -0.36585E-07  1476   0.546E-03
  32 F= -.13225201E+03 E0= -.13224912E+03  d E =-.337681E-03
       N       E                     dE             d eps       ncg     rms          rms(c)
DAV:   1    -0.132252016929E+03   -0.83113E-05   -0.39894E-04  2628   0.851E-02    0.324E-03
DAV:   2    -0.132252017104E+03   -0.17511E-06   -0.82330E-06  1656   0.132E-02    0.149E-03
DAV:   3    -0.132252016882E+03    0.22194E-06   -0.10162E-06  1350   0.544E-03    0.114E-03
DAV:   4    -0.132252016683E+03    0.19890E-06   -0.27528E-07  1326   0.319E-03    0.975E-04
DAV:   5    -0.132252016273E+03    0.41027E-06   -0.17061E-07  1518   0.495E-03    0.568E-04
DAV:   6    -0.132252015697E+03    0.57561E-06   -0.30480E-07  1536   0.868E-03
  33 F= -.13225202E+03 E0= -.13224913E+03  d E =-.345024E-03
       N       E                     dE             d eps       ncg     rms          rms(c)
DAV:   1    -0.132252159948E+03   -0.14368E-03   -0.25852E-02  2604   0.693E-01    0.224E-02
DAV:   2    -0.132252206321E+03   -0.46373E-04   -0.54901E-04  2892   0.960E-02    0.120E-02
DAV:   3    -0.132252203081E+03    0.32398E-05   -0.11967E-05  1822   0.189E-02    0.809E-03
DAV:   4    -0.132252201331E+03    0.17500E-05   -0.44673E-06  1566   0.138E-02    0.461E-03
DAV:   5    -0.132252200076E+03    0.12556E-05   -0.33052E-06  1600   0.151E-02    0.214E-03
DAV:   6    -0.132252199910E+03    0.16553E-06   -0.26088E-06  1536   0.998E-03
  34 F= -.13225220E+03 E0= -.13224930E+03  d E =-.184213E-03
       N       E                     dE             d eps       ncg     rms          rms(c)
DAV:   1    -0.132252165717E+03    0.34358E-04   -0.23348E-01  2604   0.208E+00    0.682E-02
DAV:   2    -0.132252581888E+03   -0.41617E-03   -0.50556E-03  2898   0.293E-01    0.363E-02
DAV:   3    -0.132252550674E+03    0.31214E-04   -0.13064E-04  3138   0.596E-02    0.254E-02
DAV:   4    -0.132252532243E+03    0.18431E-04   -0.36294E-05  2702   0.363E-02    0.156E-02
DAV:   5    -0.132252513706E+03    0.18537E-04   -0.17337E-05  2050   0.454E-02    0.736E-03
DAV:   6    -0.132252505413E+03    0.82928E-05   -0.18605E-05  2128   0.412E-02
  35 F= -.13225251E+03 E0= -.13224957E+03  d E =-.489716E-03
       N       E                     dE             d eps       ncg     rms          rms(c)
DAV:   1    -0.132252432289E+03    0.81417E-04   -0.55809E-02  2604   0.102E+00    0.350E-02
DAV:   2    -0.132252534901E+03   -0.10261E-03   -0.13037E-03  2904   0.150E-01    0.191E-02
DAV:   3    -0.132252522361E+03    0.12541E-04   -0.29832E-05  2466   0.308E-02    0.133E-02
DAV:   4    -0.132252511755E+03    0.10606E-04   -0.10180E-05  1750   0.247E-02    0.735E-03
DAV:   5    -0.132252499369E+03    0.12386E-04   -0.98958E-06  1944   0.396E-02    0.549E-03
DAV:   6    -0.132252494376E+03    0.49927E-05   -0.12726E-05  1836   0.301E-02
  36 F= -.13225249E+03 E0= -.13224955E+03  d E =-.478679E-03
       N       E                     dE             d eps       ncg     rms          rms(c)
DAV:   1    -0.132252629147E+03   -0.12978E-03   -0.67712E-02  2684   0.111E+00    0.354E-02
DAV:   2    -0.132252768270E+03   -0.13912E-03   -0.15351E-03  2904   0.155E-01    0.202E-02
DAV:   3    -0.132252759456E+03    0.88138E-05   -0.19393E-05  2122   0.218E-02    0.133E-02
DAV:   4    -0.132252755158E+03    0.42983E-05   -0.22419E-05  2028   0.232E-02    0.540E-03
DAV:   5    -0.132252754606E+03    0.55209E-06   -0.57764E-06  1566   0.123E-02    0.415E-03
DAV:   6    -0.132252754296E+03    0.30997E-06   -0.21148E-06  1536   0.104E-02
  37 F= -.13225275E+03 E0= -.13224982E+03  d E =-.259919E-03
       N       E                     dE             d eps       ncg     rms          rms(c)
DAV:   1    -0.132252285456E+03    0.46915E-03   -0.60760E-01  2676   0.332E+00    0.102E-01
DAV:   2    -0.132253457374E+03   -0.11719E-02   -0.13053E-02  2866   0.453E-01    0.560E-02
DAV:   3    -0.132253385496E+03    0.71878E-04   -0.16807E-04  3074   0.601E-02    0.376E-02
DAV:   4    -0.132253338442E+03    0.47053E-04   -0.10834E-04  2906   0.639E-02    0.180E-02
DAV:   5    -0.132253324993E+03    0.13449E-04   -0.70190E-05  2880   0.447E-02    0.116E-02
DAV:   6    -0.132253319256E+03    0.57370E-05   -0.13583E-05  1624   0.195E-02
  38 F= -.13225332E+03 E0= -.13225040E+03  d E =-.824880E-03
       N       E                     dE             d eps       ncg     rms          rms(c)
DAV:   1    -0.132249166973E+03    0.41580E-02   -0.24287E+00  2668   0.663E+00    0.204E-01
DAV:   2    -0.132253837358E+03   -0.46704E-02   -0.52182E-02  2872   0.905E-01    0.113E-01
DAV:   3    -0.132253527082E+03    0.31028E-03   -0.63633E-04  3066   0.121E-01    0.759E-02
DAV:   4    -0.132253286185E+03    0.24090E-03   -0.44498E-04  3024   0.141E-01    0.354E-02
DAV:   5    -0.132253208656E+03    0.77529E-04   -0.32049E-04  2922   0.101E-01    0.233E-02
DAV:   6    -0.132253169810E+03    0.38845E-04   -0.76986E-05  2886   0.466E-02    0.157E-02
DAV:   7    -0.132253114368E+03    0.55442E-04   -0.12146E-05  1996   0.379E-02    0.987E-03
DAV:   8    -0.132252995050E+03    0.11932E-03   -0.59145E-05  2994   0.105E-01    0.182E-02
DAV:   9    -0.132252881047E+03    0.11400E-03   -0.19773E-04  3992   0.179E-01    0.181E-02
DAV:  10    -0.132252803480E+03    0.77567E-04   -0.16922E-04  3448   0.163E-01    0.244E-02
DAV:  11    -0.132252737750E+03    0.65730E-04   -0.10624E-04  2902   0.136E-01    0.124E-02
DAV:  12    -0.132252729733E+03    0.80173E-05   -0.10546E-04  2822   0.994E-02    0.751E-03
DAV:  13    -0.132252737578E+03   -0.78450E-05   -0.97835E-05  2670   0.349E-02
  39 F= -.13225274E+03 E0= -.13224986E+03  d E =-.243202E-03
       N       E                     dE             d eps       ncg     rms          rms(c)
DAV:   1    -0.132251661525E+03    0.10682E-02   -0.10131E+00  2652   0.428E+00    0.135E-01
DAV:   2    -0.132253645006E+03   -0.19835E-02   -0.22268E-02  2858   0.584E-01    0.726E-02
DAV:   3    -0.132253520042E+03    0.12496E-03   -0.27888E-04  3098   0.801E-02    0.495E-02
DAV:   4    -0.132253438291E+03    0.81751E-04   -0.20403E-04  2954   0.861E-02    0.228E-02
DAV:   5    -0.132253415254E+03    0.23038E-04   -0.12123E-04  2904   0.593E-02    0.162E-02
DAV:   6    -0.132253405356E+03    0.98977E-05   -0.30681E-05  2398   0.284E-02
  40 F= -.13225341E+03 E0= -.13225046E+03  d E =-.910980E-03
       N       E                     dE             d eps       ncg     rms          rms(c)
DAV:   1    -0.132253355665E+03    0.59589E-04   -0.63194E-02  2644   0.107E+00    0.329E-02
DAV:   2    -0.132253467553E+03   -0.11189E-03   -0.13676E-03  2876   0.148E-01    0.194E-02
DAV:   3    -0.132253451495E+03    0.16059E-04   -0.16096E-05  2004   0.269E-02    0.138E-02
DAV:   4    -0.132253421714E+03    0.29780E-04   -0.16531E-05  2020   0.457E-02    0.607E-03
DAV:   5    -0.132253409149E+03    0.12565E-04   -0.27311E-05  2400   0.331E-02    0.642E-03
DAV:   6    -0.132253404911E+03    0.42386E-05   -0.11984E-05  1604   0.183E-02
  41 F= -.13225340E+03 E0= -.13225045E+03  d E =-.910535E-03
       N       E                     dE             d eps       ncg     rms          rms(c)
DAV:   1    -0.132253334540E+03    0.74610E-04   -0.35466E-02  2616   0.806E-01    0.245E-02
DAV:   2    -0.132253395745E+03   -0.61206E-04   -0.80181E-04  2880   0.116E-01    0.166E-02
DAV:   3    -0.132253385246E+03    0.10499E-04   -0.14299E-05  1848   0.213E-02    0.117E-02
DAV:   4    -0.132253368009E+03    0.17237E-04   -0.95119E-06  1722   0.256E-02    0.600E-03
DAV:   5    -0.132253357410E+03    0.10599E-04   -0.79692E-06  1698   0.241E-02    0.473E-03
DAV:   6    -0.132253340797E+03    0.16612E-04   -0.11921E-05  1962   0.501E-02    0.494E-03
DAV:   7    -0.132253319416E+03    0.21381E-04   -0.20130E-05  2382   0.696E-02    0.853E-03
DAV:   8    -0.132253301757E+03    0.17659E-04   -0.27423E-05  2552   0.508E-02    0.460E-03
DAV:   9    -0.132253286907E+03    0.14850E-04   -0.21152E-05  2416   0.960E-02    0.328E-03
DAV:  10    -0.132253289789E+03   -0.28821E-05   -0.56429E-05  2648   0.449E-02
  42 F= -.13225329E+03 E0= -.13225035E+03  d E =-.795413E-03
       N       E                     dE             d eps       ncg     rms          rms(c)
DAV:   1    -0.132253292928E+03   -0.60206E-05   -0.10709E-02  2716   0.441E-01    0.147E-02
DAV:   2    -0.132253312968E+03   -0.20040E-04   -0.23339E-04  2840   0.613E-02    0.782E-03
DAV:   3    -0.132253311450E+03    0.15180E-05   -0.33929E-06  1578   0.955E-03    0.524E-03
DAV:   4    -0.132253310396E+03    0.10540E-05   -0.25680E-06  1506   0.926E-03    0.216E-03
DAV:   5    -0.132253310091E+03    0.30528E-06   -0.15388E-06  1482   0.716E-03    0.166E-03
DAV:   6    -0.132253309975E+03    0.11618E-06   -0.51607E-07  1446   0.445E-03
  43 F= -.13225331E+03 E0= -.13225038E+03  d E =-.815599E-03
       N       E                     dE             d eps       ncg     rms          rms(c)
DAV:   1    -0.132253312948E+03   -0.28568E-05   -0.13364E-03  2676   0.156E-01    0.483E-03
DAV:   2    -0.132253315445E+03   -0.24972E-05   -0.28736E-05  2270   0.216E-02    0.276E-03
DAV:   3    -0.132253315193E+03    0.25220E-06   -0.63205E-07  1410   0.415E-03    0.196E-03
DAV:   4    -0.132253314752E+03    0.44093E-06   -0.32512E-07  1374   0.594E-03    0.861E-04
DAV:   5    -0.132253314560E+03    0.19129E-06   -0.43385E-07  1410   0.441E-03    0.788E-04
DAV:   6    -0.132253314468E+03    0.92907E-07   -0.17997E-07  1374   0.260E-03
  44 F= -.13225331E+03 E0= -.13225038E+03  d E =-.820091E-03
       N       E                     dE             d eps       ncg     rms          rms(c)
DAV:   1    -0.132253316137E+03   -0.15764E-05   -0.59100E-04  2628   0.104E-01    0.311E-03
DAV:   2    -0.132253317170E+03   -0.10335E-05   -0.12385E-05  1684   0.147E-02    0.173E-03
DAV:   3    -0.132253317062E+03    0.10865E-06   -0.58159E-07  1368   0.372E-03    0.129E-03
DAV:   4    -0.132253316813E+03    0.24851E-06   -0.11284E-07  1374   0.349E-03    0.700E-04
DAV:   5    -0.132253316623E+03    0.19005E-06   -0.11888E-07  1428   0.349E-03    0.557E-04
DAV:   6    -0.132253316454E+03    0.16866E-06   -0.12177E-07  1404   0.426E-03
  45 F= -.13225332E+03 E0= -.13225039E+03  d E =-.822078E-03
       N       E                     dE             d eps       ncg     rms          rms(c)
DAV:   1    -0.132253316747E+03   -0.12410E-06   -0.14255E-04  2564   0.531E-02    0.180E-03
DAV:   2    -0.132253317207E+03   -0.46017E-06   -0.54280E-06  1446   0.960E-03    0.190E-03
DAV:   3    -0.132253317167E+03    0.40240E-07   -0.31045E-07  1356   0.247E-03    0.153E-03
DAV:   4    -0.132253317055E+03    0.11194E-06   -0.34103E-07  1356   0.233E-03    0.547E-04
DAV:   5    -0.132253317033E+03    0.22219E-07   -0.34802E-08  1320   0.119E-03    0.458E-04
DAV:   6    -0.132253316957E+03    0.75696E-07   -0.35210E-08  1320   0.308E-03
  46 F= -.13225332E+03 E0= -.13225039E+03  d E =-.822581E-03
       N       E                     dE             d eps       ncg     rms          rms(c)
DAV:   1    -0.132253317258E+03   -0.22534E-06   -0.35002E-05  2264   0.261E-02    0.976E-04
DAV:   2    -0.132253317335E+03   -0.76970E-07   -0.11195E-06  1368   0.435E-03    0.862E-04
DAV:   3    -0.132253317323E+03    0.12740E-07   -0.67444E-08  1320   0.115E-03    0.608E-04
DAV:   4    -0.132253317283E+03    0.39884E-07   -0.53037E-08  1320   0.111E-03    0.242E-04
DAV:   5    -0.132253317274E+03    0.90113E-08   -0.71467E-09  1320   0.609E-04    0.212E-04
DAV:   6    -0.132253317215E+03    0.59112E-07   -0.19466E-08  1362   0.298E-03
  47 F= -.13225332E+03 E0= -.13225039E+03  d E =-.822838E-03
       N       E                     dE             d eps       ncg     rms          rms(c)
DAV:   1    -0.132253317209E+03    0.64716E-07   -0.70688E-06  1544   0.153E-02    0.818E-04
DAV:   2    -0.132253317322E+03   -0.11282E-06   -0.12684E-06  1362   0.500E-03    0.892E-04
DAV:   3    -0.132253317315E+03    0.68194E-08   -0.70412E-08  1302   0.116E-03    0.733E-04
DAV:   4    -0.132253317302E+03    0.12742E-07   -0.96408E-08  1302   0.142E-03    0.184E-04
DAV:   5    -0.132253317302E+03    0.88221E-10   -0.15687E-08  1302   0.607E-04    0.182E-04
DAV:   6    -0.132253317301E+03    0.15643E-08   -0.22821E-09  1302   0.358E-04
  48 F= -.13225332E+03 E0= -.13225039E+03  d E =-.822924E-03
       N       E                     dE             d eps       ncg     rms          rms(c)
DAV:   1    -0.132253461764E+03   -0.14446E-03   -0.31896E-02  2700   0.765E-01    0.249E-02
DAV:   2    -0.132253515299E+03   -0.53535E-04   -0.68586E-04  2928   0.109E-01    0.142E-02
DAV:   3    -0.132253509176E+03    0.61225E-05   -0.19111E-05  1996   0.253E-02    0.970E-03
DAV:   4    -0.132253504908E+03    0.42679E-05   -0.58180E-06  1606   0.185E-02    0.572E-03
DAV:   5    -0.132253500770E+03    0.41385E-05   -0.50448E-06  1802   0.250E-02    0.264E-03
DAV:   6    -0.132253499870E+03    0.89989E-06   -0.65058E-06  1580   0.178E-02
  49 F= -.13225350E+03 E0= -.13225058E+03  d E =-.182569E-03
       N       E                     dE             d eps       ncg     rms          rms(c)
DAV:   1    -0.132253514076E+03   -0.13306E-04   -0.75175E-02  2700   0.117E+00    0.380E-02
DAV:   2    -0.132253638354E+03   -0.12428E-03   -0.16353E-03  2928   0.170E-01    0.222E-02
DAV:   3    -0.132253622164E+03    0.16189E-04   -0.52068E-05  2924   0.413E-02    0.157E-02
DAV:   4    -0.132253609644E+03    0.12521E-04   -0.10483E-05  1810   0.273E-02    0.967E-03
DAV:   5    -0.132253593828E+03    0.15816E-04   -0.14194E-05  2024   0.491E-02    0.532E-03
DAV:   6    -0.132253589984E+03    0.38438E-05   -0.20831E-05  2248   0.330E-02
  50 F= -.13225359E+03 E0= -.13225068E+03  d E =-.272683E-03
       N       E                     dE             d eps       ncg     rms          rms(c)
DAV:   1    -0.132253717913E+03   -0.12409E-03   -0.13498E-02  2616   0.502E-01    0.201E-02
DAV:   2    -0.132253737072E+03   -0.19159E-04   -0.32989E-04  2958   0.786E-02    0.133E-02
DAV:   3    -0.132253731385E+03    0.56872E-05   -0.13303E-05  1874   0.188E-02    0.822E-03
DAV:   4    -0.132253726808E+03    0.45773E-05   -0.72762E-06  1636   0.167E-02    0.464E-03
DAV:   5    -0.132253723354E+03    0.34536E-05   -0.26488E-06  1714   0.175E-02    0.298E-03
DAV:   6    -0.132253717021E+03    0.63332E-05   -0.24784E-06  1818   0.349E-02
  51 F= -.13225372E+03 E0= -.13225082E+03  d E =-.127037E-03
       N       E                     dE             d eps       ncg     rms          rms(c)
DAV:   1    -0.132253760996E+03   -0.37642E-04   -0.40081E-02  2604   0.863E-01    0.352E-02
DAV:   2    -0.132253813662E+03   -0.52667E-04   -0.94293E-04  2952   0.131E-01    0.192E-02
DAV:   3    -0.132253799591E+03    0.14072E-04   -0.37810E-05  2632   0.279E-02    0.121E-02
DAV:   4    -0.132253790458E+03    0.91329E-05   -0.12489E-05  1806   0.170E-02    0.774E-03
DAV:   5    -0.132253779274E+03    0.11183E-04   -0.57404E-06  1880   0.204E-02    0.464E-03
DAV:   6    -0.132253763925E+03    0.15349E-04   -0.69129E-06  2078   0.373E-02    0.325E-03
DAV:   7    -0.132253754104E+03    0.98218E-05   -0.13457E-05  2108   0.337E-02
  52 F= -.13225375E+03 E0= -.13225089E+03  d E =-.164120E-03
       N       E                     dE             d eps       ncg     rms          rms(c)
DAV:   1    -0.132253818758E+03   -0.54832E-04   -0.22312E-02  2716   0.648E-01    0.241E-02
DAV:   2    -0.132253864817E+03   -0.46059E-04   -0.58008E-04  2934   0.996E-02    0.143E-02
DAV:   3    -0.132253859456E+03    0.53602E-05   -0.14147E-05  1834   0.217E-02    0.951E-03
DAV:   4    -0.132253856491E+03    0.29655E-05   -0.89655E-06  1618   0.179E-02    0.467E-03
DAV:   5    -0.132253854361E+03    0.21296E-05   -0.34537E-06  1596   0.163E-02    0.303E-03
DAV:   6    -0.132253852375E+03    0.19859E-05   -0.15714E-06  1588   0.184E-02
  53 F= -.13225385E+03 E0= -.13225101E+03  d E =-.982718E-04
       N       E                     dE             d eps       ncg     rms          rms(c)
DAV:   1    -0.132253718424E+03    0.13594E-03   -0.19873E-01  2644   0.193E+00    0.668E-02
DAV:   2    -0.132254073432E+03   -0.35501E-03   -0.43940E-03  2918   0.275E-01    0.361E-02
DAV:   3    -0.132254038664E+03    0.34768E-04   -0.10575E-04  3074   0.565E-02    0.239E-02
DAV:   4    -0.132254018079E+03    0.20585E-04   -0.39735E-05  2732   0.450E-02    0.154E-02
DAV:   5    -0.132254002045E+03    0.16033E-04   -0.14440E-05  1922   0.485E-02    0.789E-03
DAV:   6    -0.132253991208E+03    0.10837E-04   -0.15496E-05  2142   0.531E-02    0.494E-03
DAV:   7    -0.132253984115E+03    0.70933E-05   -0.18364E-05  2142   0.505E-02
  54 F= -.13225398E+03 E0= -.13225122E+03  d E =-.230011E-03
       N       E                     dE             d eps       ncg     rms          rms(c)
DAV:   1    -0.132254105356E+03   -0.11415E-03   -0.89108E-02  2776   0.127E+00    0.416E-02
DAV:   2    -0.132254270904E+03   -0.16555E-03   -0.19602E-03  2922   0.177E-01    0.226E-02
DAV:   3    -0.132254255593E+03    0.15312E-04   -0.30082E-05  2466   0.285E-02    0.156E-02
DAV:   4    -0.132254242815E+03    0.12778E-04   -0.16652E-05  1948   0.310E-02    0.781E-03
DAV:   5    -0.132254235410E+03    0.74047E-05   -0.15925E-05  1856   0.304E-02    0.502E-03
DAV:   6    -0.132254232960E+03    0.24504E-05   -0.93951E-06  1622   0.186E-02
  55 F= -.13225423E+03 E0= -.13225153E+03  d E =-.248845E-03
       N       E                     dE             d eps       ncg     rms          rms(c)
DAV:   1    -0.132253988142E+03    0.24727E-03   -0.26971E-01  2764   0.222E+00    0.708E-02
DAV:   2    -0.132254481323E+03   -0.49318E-03   -0.58663E-03  2904   0.306E-01    0.404E-02
DAV:   3    -0.132254430450E+03    0.50873E-04   -0.82207E-05  3090   0.484E-02    0.283E-02
DAV:   4    -0.132254378030E+03    0.52420E-04   -0.69398E-05  2808   0.615E-02    0.144E-02
DAV:   5    -0.132254351046E+03    0.26985E-04   -0.57844E-05  2912   0.478E-02    0.109E-02
DAV:   6    -0.132254336762E+03    0.14284E-04   -0.21529E-05  2154   0.262E-02    0.678E-03
DAV:   7    -0.132254308010E+03    0.28751E-04   -0.13336E-05  2056   0.352E-02    0.906E-03
DAV:   8    -0.132254277646E+03    0.30364E-04   -0.14787E-05  2230   0.517E-02    0.135E-02
DAV:   9    -0.132254239806E+03    0.37840E-04   -0.65619E-05  2932   0.982E-02    0.707E-03
DAV:  10    -0.132254223017E+03    0.16789E-04   -0.78844E-05  3096   0.896E-02    0.143E-02
DAV:  11    -0.132254213937E+03    0.90804E-05   -0.49552E-05  2716   0.402E-02
  56 F= -.13225421E+03 E0= -.13225158E+03  d E =-.229822E-03
       N       E                     dE             d eps       ncg     rms          rms(c)
DAV:   1    -0.132254217234E+03    0.57835E-05   -0.32552E-02  2832   0.771E-01    0.284E-02
DAV:   2    -0.132254287100E+03   -0.69866E-04   -0.85971E-04  2916   0.116E-01    0.173E-02
DAV:   3    -0.132254279590E+03    0.75093E-05   -0.12102E-05  1836   0.211E-02    0.125E-02
DAV:   4    -0.132254273672E+03    0.59180E-05   -0.27247E-05  2462   0.305E-02    0.511E-03
DAV:   5    -0.132254272888E+03    0.78431E-06   -0.93303E-06  1548   0.149E-02    0.571E-03
DAV:   6    -0.132254271923E+03    0.96461E-06   -0.15959E-06  1470   0.643E-03
  57 F= -.13225427E+03 E0= -.13225160E+03  d E =-.287808E-03
       N       E                     dE             d eps       ncg     rms          rms(c)
DAV:   1    -0.132254198600E+03    0.74288E-04   -0.61188E-02  2756   0.106E+00    0.340E-02
DAV:   2    -0.132254311158E+03   -0.11256E-03   -0.13519E-03  2926   0.146E-01    0.195E-02
DAV:   3    -0.132254299312E+03    0.11847E-04   -0.18528E-05  2098   0.239E-02    0.138E-02
DAV:   4    -0.132254286991E+03    0.12321E-04   -0.17178E-05  2010   0.302E-02    0.628E-03
DAV:   5    -0.132254281054E+03    0.59368E-05   -0.16044E-05  1840   0.237E-02    0.515E-03
DAV:   6    -0.132254278599E+03    0.24550E-05   -0.49351E-06  1572   0.117E-02
  58 F= -.13225428E+03 E0= -.13225156E+03  d E =-.294484E-03
       N       E                     dE             d eps       ncg     rms          rms(c)
DAV:   1    -0.132254425644E+03   -0.14459E-03   -0.22880E-02  2772   0.645E-01    0.251E-02
DAV:   2    -0.132254453811E+03   -0.28167E-04   -0.52550E-04  2934   0.103E-01    0.135E-02
DAV:   3    -0.132254445403E+03    0.84075E-05   -0.35889E-05  2650   0.346E-02    0.103E-02
DAV:   4    -0.132254439239E+03    0.61644E-05   -0.49928E-06  1578   0.171E-02    0.690E-03
DAV:   5    -0.132254425413E+03    0.13826E-04   -0.66608E-06  1828   0.385E-02    0.414E-03
DAV:   6    -0.132254418401E+03    0.70120E-05   -0.10723E-05  1880   0.324E-02
  59 F= -.13225442E+03 E0= -.13225173E+03  d E =-.139802E-03
