       N       E                     dE             d eps       ncg     rms          rms(c)
DAV:   1     0.509652265438E+03    0.50965E+03   -0.44300E+04  6304   0.135E+03
DAV:   2    -0.988355346835E+02   -0.60849E+03   -0.57948E+03  8080   0.259E+02
DAV:   3    -0.155088638848E+03   -0.56253E+02   -0.55940E+02  7432   0.857E+01
DAV:   4    -0.155802704262E+03   -0.71407E+00   -0.71281E+00  7344   0.105E+01
DAV:   5    -0.155813166312E+03   -0.10462E-01   -0.10459E-01  7432   0.125E+00    0.230E+01
DAV:   6    -0.140283669119E+03    0.15529E+02   -0.88636E+01  7632   0.322E+01    0.788E+00
DAV:   7    -0.140204299615E+03    0.79370E-01   -0.25656E+00  7080   0.622E+00    0.482E+00
DAV:   8    -0.140132476408E+03    0.71823E-01   -0.86333E-01  7432   0.473E+00    0.135E+00
DAV:   9    -0.140095463819E+03    0.37013E-01   -0.14323E-01  7328   0.173E+00    0.638E-01
DAV:  10    -0.140099377355E+03   -0.39135E-02   -0.13127E-01  7120   0.143E+00    0.459E-01
DAV:  11    -0.140095990578E+03    0.33868E-02   -0.11522E-02  7928   0.571E-01    0.253E-01
DAV:  12    -0.140095977195E+03    0.13382E-04   -0.12244E-02  7232   0.474E-01    0.110E-01
DAV:  13    -0.140095938773E+03    0.38422E-04   -0.11540E-03  7448   0.174E-01    0.622E-02
DAV:  14    -0.140095890262E+03    0.48511E-04   -0.45018E-04  7448   0.104E-01    0.201E-02
DAV:  15    -0.140095882785E+03    0.74770E-05   -0.72082E-05  7088   0.395E-02
   1 F= -.14009588E+03 E0= -.14009438E+03  d E =-.140096E+03
       N       E                     dE             d eps       ncg     rms          rms(c)
DAV:   1    -0.140098069403E+03   -0.21791E-02   -0.32316E-02  6648   0.777E-01    0.518E-02
DAV:   2    -0.140098003988E+03    0.65414E-04   -0.17412E-03  7464   0.206E-01    0.412E-02
DAV:   3    -0.140097968011E+03    0.35977E-04   -0.24170E-04  7224   0.713E-02    0.330E-02
DAV:   4    -0.140097920934E+03    0.47077E-04   -0.96869E-05  7328   0.463E-02    0.154E-02
DAV:   5    -0.140097879383E+03    0.41551E-04   -0.83028E-05  7312   0.736E-02    0.145E-02
DAV:   6    -0.140097871192E+03    0.81915E-05   -0.54194E-05  6968   0.501E-02
   2 F= -.14009787E+03 E0= -.14009650E+03  d E =-.198841E-02
       N       E                     dE             d eps       ncg     rms          rms(c)
DAV:   1    -0.140098485004E+03   -0.60562E-03   -0.21108E-02  6464   0.631E-01    0.377E-02
DAV:   2    -0.140098465340E+03    0.19664E-04   -0.11610E-03  7424   0.159E-01    0.351E-02
DAV:   3    -0.140098437423E+03    0.27917E-04   -0.11713E-04  7264   0.524E-02    0.273E-02
DAV:   4    -0.140098395353E+03    0.42070E-04   -0.11263E-04  7312   0.552E-02    0.126E-02
DAV:   5    -0.140098375023E+03    0.20330E-04   -0.48210E-05  7056   0.600E-02    0.161E-02
DAV:   6    -0.140098367787E+03    0.72360E-05   -0.48399E-05  6720   0.446E-02
   3 F= -.14009837E+03 E0= -.14009710E+03  d E =-.248500E-02
       N       E                     dE             d eps       ncg     rms          rms(c)
DAV:   1    -0.140099233186E+03   -0.85816E-03   -0.37591E-01  6272   0.261E+00    0.843E-02
DAV:   2    -0.140100130404E+03   -0.89722E-03   -0.98344E-03  7104   0.356E-01    0.517E-02
DAV:   3    -0.140100073656E+03    0.56748E-04   -0.84742E-05  7392   0.553E-02    0.337E-02
DAV:   4    -0.140100041904E+03    0.31752E-04   -0.80201E-05  7248   0.553E-02    0.119E-02
DAV:   5    -0.140100040902E+03    0.10018E-05   -0.47031E-05  6672   0.343E-02    0.509E-03
DAV:   6    -0.140100040351E+03    0.55150E-06   -0.42718E-06  4096   0.100E-02
   4 F= -.14010004E+03 E0= -.14009886E+03  d E =-.167256E-02
       N       E                     dE             d eps       ncg     rms          rms(c)
DAV:   1    -0.140095149509E+03    0.48914E-02   -0.33864E+00  6272   0.784E+00    0.253E-01
DAV:   2    -0.140103379920E+03   -0.82304E-02   -0.90715E-02  7088   0.107E+00    0.162E-01
DAV:   3    -0.140102801942E+03    0.57798E-03   -0.73316E-04  7424   0.177E-01    0.105E-01
DAV:   4    -0.140102437589E+03    0.36435E-03   -0.84237E-04  7400   0.203E-01    0.376E-02
DAV:   5    -0.140102402265E+03    0.35324E-04   -0.55443E-04  7512   0.140E-01    0.168E-02
DAV:   6    -0.140102392342E+03    0.99239E-05   -0.94964E-05  6864   0.482E-02
   5 F= -.14010239E+03 E0= -.14010142E+03  d E =-.402455E-02
       N       E                     dE             d eps       ncg     rms          rms(c)
DAV:   1    -0.140103083388E+03   -0.68112E-03   -0.49956E-01  6272   0.308E+00    0.108E-01
DAV:   2    -0.140104344789E+03   -0.12614E-02   -0.14278E-02  7136   0.461E-01    0.645E-02
DAV:   3    -0.140104281375E+03    0.63413E-04   -0.20681E-04  7408   0.732E-02    0.469E-02
DAV:   4    -0.140104246092E+03    0.35284E-04   -0.35698E-04  7248   0.917E-02    0.219E-02
DAV:   5    -0.140104241617E+03    0.44745E-05   -0.49779E-05  6560   0.358E-02    0.186E-02
DAV:   6    -0.140104237332E+03    0.42854E-05   -0.55100E-05  6720   0.363E-02
   6 F= -.14010424E+03 E0= -.14010331E+03  d E =-.184499E-02
       N       E                     dE             d eps       ncg     rms          rms(c)
DAV:   1    -0.140104039793E+03    0.20182E-03   -0.28515E-01  6272   0.233E+00    0.799E-02
DAV:   2    -0.140104764807E+03   -0.72501E-03   -0.81829E-03  7128   0.351E-01    0.492E-02
DAV:   3    -0.140104728773E+03    0.36035E-04   -0.12510E-04  7384   0.534E-02    0.364E-02
DAV:   4    -0.140104704105E+03    0.24668E-04   -0.19336E-04  7128   0.602E-02    0.169E-02
DAV:   5    -0.140104699204E+03    0.49011E-05   -0.18344E-05  5480   0.267E-02    0.147E-02
DAV:   6    -0.140104694862E+03    0.43420E-05   -0.39102E-05  6072   0.389E-02
   7 F= -.14010469E+03 E0= -.14010380E+03  d E =-.230252E-02
       N       E                     dE             d eps       ncg     rms          rms(c)
DAV:   1    -0.140104747798E+03   -0.48595E-04   -0.90127E-01  6336   0.418E+00    0.120E-01
DAV:   2    -0.140106541949E+03   -0.17942E-02   -0.19734E-02  7216   0.566E-01    0.681E-02
DAV:   3    -0.140106437594E+03    0.10436E-03   -0.17115E-04  7416   0.673E-02    0.464E-02
DAV:   4    -0.140106368835E+03    0.68758E-04   -0.37111E-04  7312   0.986E-02    0.177E-02
DAV:   5    -0.140106371832E+03   -0.29963E-05   -0.93716E-05  6688   0.433E-02    0.160E-02
DAV:   6    -0.140106368306E+03    0.35262E-05   -0.17728E-05  4864   0.210E-02
   8 F= -.14010637E+03 E0= -.14010552E+03  d E =-.167344E-02
       N       E                     dE             d eps       ncg     rms          rms(c)
DAV:   1    -0.140102544518E+03    0.38273E-02   -0.27069E+00  6328   0.724E+00    0.206E-01
DAV:   2    -0.140107953377E+03   -0.54089E-02   -0.59484E-02  7208   0.981E-01    0.121E-01
DAV:   3    -0.140107624419E+03    0.32896E-03   -0.51268E-04  7408   0.118E-01    0.829E-02
DAV:   4    -0.140107386291E+03    0.23813E-03   -0.11563E-03  7376   0.178E-01    0.313E-02
DAV:   5    -0.140107393209E+03   -0.69182E-05   -0.31629E-04  7040   0.795E-02    0.277E-02
DAV:   6    -0.140107377850E+03    0.15360E-04   -0.62254E-05  6536   0.393E-02    0.118E-02
DAV:   7    -0.140107357930E+03    0.19919E-04   -0.12625E-05  4640   0.453E-02    0.656E-03
DAV:   8    -0.140107337696E+03    0.20235E-04   -0.13875E-05  5040   0.481E-02    0.988E-03
DAV:   9    -0.140107289981E+03    0.47715E-04   -0.93749E-05  8288   0.124E-01    0.170E-02
DAV:  10    -0.140107277762E+03    0.12219E-04   -0.63978E-05  6640   0.559E-02    0.231E-02
DAV:  11    -0.140107254049E+03    0.23713E-04   -0.87609E-05  6928   0.674E-02    0.910E-03
DAV:  12    -0.140107235352E+03    0.18697E-04   -0.16919E-05  5296   0.993E-02    0.695E-03
DAV:  13    -0.140107232113E+03    0.32391E-05   -0.56958E-05  6872   0.842E-02
   9 F= -.14010723E+03 E0= -.14010645E+03  d E =-.253725E-02
       N       E                     dE             d eps       ncg     rms          rms(c)
DAV:   1    -0.140107652457E+03   -0.41711E-03   -0.31358E-01  6320   0.251E+00    0.734E-02
DAV:   2    -0.140108341395E+03   -0.68894E-03   -0.75191E-03  7128   0.350E-01    0.431E-02
DAV:   3    -0.140108303488E+03    0.37907E-04   -0.93472E-05  7432   0.548E-02    0.298E-02
DAV:   4    -0.140108272966E+03    0.30522E-04   -0.71045E-05  6824   0.552E-02    0.125E-02
DAV:   5    -0.140108264897E+03    0.80686E-05   -0.33588E-05  6136   0.413E-02    0.944E-03
DAV:   6    -0.140108257665E+03    0.72327E-05   -0.29460E-05  5688   0.436E-02
  10 F= -.14010826E+03 E0= -.14010750E+03  d E =-.102555E-02
       N       E                     dE             d eps       ncg     rms          rms(c)
DAV:   1    -0.140105270814E+03    0.29941E-02   -0.21337E+00  6296   0.655E+00    0.194E-01
DAV:   2    -0.140109953603E+03   -0.46828E-02   -0.51250E-02  7112   0.911E-01    0.110E-01
DAV:   3    -0.140109676082E+03    0.27752E-03   -0.51703E-04  7536   0.136E-01    0.754E-02
DAV:   4    -0.140109417523E+03    0.25856E-03   -0.57745E-04  7744   0.182E-01    0.276E-02
DAV:   5    -0.140109382946E+03    0.34577E-04   -0.35225E-04  7376   0.110E-01    0.286E-02
DAV:   6    -0.140109348432E+03    0.34514E-04   -0.15497E-04  6768   0.690E-02    0.137E-02
DAV:   7    -0.140109294621E+03    0.53811E-04   -0.15155E-05  4840   0.686E-02    0.945E-03
DAV:   8    -0.140109232912E+03    0.61708E-04   -0.39558E-05  6680   0.969E-02    0.117E-02
DAV:   9    -0.140109147493E+03    0.85420E-04   -0.84922E-05  8176   0.174E-01    0.104E-02
DAV:  10    -0.140109105738E+03    0.41754E-04   -0.12429E-04  7856   0.147E-01    0.830E-03
DAV:  11    -0.140109096761E+03    0.89777E-05   -0.14582E-04  7152   0.832E-02    0.246E-02
DAV:  12    -0.140109074097E+03    0.22664E-04   -0.35810E-05  6368   0.771E-02    0.205E-02
DAV:  13    -0.140109068529E+03    0.55683E-05   -0.10485E-04  6768   0.537E-02    0.954E-03
DAV:  14    -0.140109069053E+03   -0.52423E-06   -0.17110E-05  4912   0.159E-02
  11 F= -.14010907E+03 E0= -.14010835E+03  d E =-.183694E-02
       N       E                     dE             d eps       ncg     rms          rms(c)
DAV:   1    -0.140109036666E+03    0.31863E-04   -0.74814E-01  6288   0.389E+00    0.111E-01
DAV:   2    -0.140110621585E+03   -0.15849E-02   -0.17319E-02  7184   0.532E-01    0.622E-02
DAV:   3    -0.140110539021E+03    0.82564E-04   -0.15766E-04  7496   0.640E-02    0.423E-02
DAV:   4    -0.140110474772E+03    0.64249E-04   -0.18089E-04  7304   0.840E-02    0.128E-02
DAV:   5    -0.140110477794E+03   -0.30221E-05   -0.96250E-05  7032   0.461E-02    0.134E-02
DAV:   6    -0.140110475617E+03    0.21769E-05   -0.11822E-05  4096   0.160E-02
  12 F= -.14011048E+03 E0= -.14010977E+03  d E =-.140656E-02
       N       E                     dE             d eps       ncg     rms          rms(c)
DAV:   1    -0.140103944003E+03    0.65338E-02   -0.40349E+00  6288   0.904E+00    0.260E-01
DAV:   2    -0.140112482938E+03   -0.85389E-02   -0.93152E-02  7184   0.124E+00    0.145E-01
DAV:   3    -0.140112044964E+03    0.43797E-03   -0.86617E-04  7472   0.147E-01    0.970E-02
DAV:   4    -0.140111724764E+03    0.32020E-03   -0.85189E-04  7424   0.173E-01    0.295E-02
DAV:   5    -0.140111733674E+03   -0.89098E-05   -0.42925E-04  7312   0.102E-01    0.268E-02
DAV:   6    -0.140111725565E+03    0.81090E-05   -0.83290E-05  6824   0.429E-02
  13 F= -.14011173E+03 E0= -.14011103E+03  d E =-.265651E-02
       N       E                     dE             d eps       ncg     rms          rms(c)
DAV:   1    -0.140110970508E+03    0.76317E-03   -0.13347E+00  6432   0.520E+00    0.153E-01
DAV:   2    -0.140113899684E+03   -0.29292E-02   -0.31243E-02  7168   0.718E-01    0.839E-02
DAV:   3    -0.140113733528E+03    0.16616E-03   -0.22998E-04  7552   0.838E-02    0.558E-02
DAV:   4    -0.140113590430E+03    0.14310E-03   -0.37791E-04  7224   0.141E-01    0.141E-02
DAV:   5    -0.140113594914E+03   -0.44842E-05   -0.22205E-04  6960   0.696E-02    0.178E-02
DAV:   6    -0.140113588729E+03    0.61849E-05   -0.17064E-05  4568   0.178E-02
  14 F= -.14011359E+03 E0= -.14011290E+03  d E =-.186316E-02
       N       E                     dE             d eps       ncg     rms          rms(c)
DAV:   1    -0.140106109125E+03    0.74858E-02   -0.44877E+00  6424   0.953E+00    0.277E-01
DAV:   2    -0.140115943105E+03   -0.98340E-02   -0.10554E-01  7160   0.132E+00    0.159E-01
DAV:   3    -0.140115337915E+03    0.60519E-03   -0.80604E-04  7528   0.155E-01    0.107E-01
DAV:   4    -0.140114740023E+03    0.59789E-03   -0.13486E-03  7312   0.268E-01    0.301E-02
DAV:   5    -0.140114712846E+03    0.27177E-04   -0.78174E-04  7232   0.137E-01    0.341E-02
DAV:   6    -0.140114665854E+03    0.46992E-04   -0.97828E-05  6792   0.443E-02    0.215E-02
DAV:   7    -0.140114527499E+03    0.13836E-03   -0.20942E-05  5328   0.783E-02    0.129E-02
DAV:   8    -0.140114312934E+03    0.21456E-03   -0.93431E-05  8256   0.144E-01    0.174E-02
DAV:   9    -0.140113951997E+03    0.36094E-03   -0.94087E-04 10152   0.494E-01    0.606E-02
DAV:  10    -0.140113882925E+03    0.69072E-04   -0.78456E-04  8264   0.224E-01    0.688E-02
DAV:  11    -0.140113835550E+03    0.47374E-04   -0.64929E-04  7584   0.146E-01    0.410E-02
DAV:  12    -0.140113780382E+03    0.55168E-04   -0.39830E-04  7256   0.119E-01    0.258E-02
DAV:  13    -0.140113737657E+03    0.42725E-04   -0.10025E-04  7872   0.132E-01    0.183E-02
DAV:  14    -0.140113733470E+03    0.41870E-05   -0.10320E-04  6808   0.826E-02    0.931E-03
DAV:  15    -0.140113740218E+03   -0.67480E-05   -0.89387E-05  6376   0.326E-02
  15 F= -.14011374E+03 E0= -.14011305E+03  d E =-.201465E-02
       N       E                     dE             d eps       ncg     rms          rms(c)
DAV:   1    -0.140113056084E+03    0.67739E-03   -0.54408E-01  6480   0.332E+00    0.941E-02
DAV:   2    -0.140114247198E+03   -0.11911E-02   -0.12671E-02  7112   0.457E-01    0.538E-02
DAV:   3    -0.140114181327E+03    0.65871E-04   -0.91796E-05  7512   0.499E-02    0.365E-02
DAV:   4    -0.140114122173E+03    0.59153E-04   -0.17255E-04  6936   0.854E-02    0.889E-03
DAV:   5    -0.140114123874E+03   -0.17010E-05   -0.75501E-05  6608   0.387E-02    0.101E-02
DAV:   6    -0.140114120643E+03    0.32309E-05   -0.55610E-06  4072   0.108E-02
  16 F= -.14011412E+03 E0= -.14011343E+03  d E =-.239508E-02
       N       E                     dE             d eps       ncg     rms          rms(c)
DAV:   1    -0.140114463768E+03   -0.33989E-03   -0.28886E-01  6376   0.242E+00    0.694E-02
DAV:   2    -0.140115065238E+03   -0.60147E-03   -0.66813E-03  7144   0.338E-01    0.391E-02
DAV:   3    -0.140115033522E+03    0.31717E-04   -0.91736E-05  7416   0.461E-02    0.275E-02
DAV:   4    -0.140115003381E+03    0.30141E-04   -0.71578E-05  6784   0.432E-02    0.117E-02
DAV:   5    -0.140114993468E+03    0.99127E-05   -0.19708E-05  4616   0.345E-02    0.107E-02
DAV:   6    -0.140114980437E+03    0.13031E-04   -0.20982E-05  5264   0.455E-02    0.520E-03
DAV:   7    -0.140114972558E+03    0.78796E-05   -0.18966E-05  4952   0.344E-02
  17 F= -.14011497E+03 E0= -.14011428E+03  d E =-.851914E-03
       N       E                     dE             d eps       ncg     rms          rms(c)
DAV:   1    -0.140111143448E+03    0.38370E-02   -0.25570E+00  6376   0.722E+00    0.210E-01
DAV:   2    -0.140116586663E+03   -0.54432E-02   -0.59804E-02  7144   0.101E+00    0.118E-01
DAV:   3    -0.140116332463E+03    0.25420E-03   -0.76350E-04  7480   0.130E-01    0.823E-02
DAV:   4    -0.140116147825E+03    0.18464E-03   -0.66025E-04  7160   0.121E-01    0.335E-02
DAV:   5    -0.140116121615E+03    0.26210E-04   -0.15726E-04  7448   0.757E-02    0.282E-02
DAV:   6    -0.140116090042E+03    0.31573E-04   -0.16196E-04  8024   0.923E-02    0.137E-02
DAV:   7    -0.140116085103E+03    0.49389E-05   -0.68279E-05  6384   0.386E-02
  18 F= -.14011609E+03 E0= -.14011539E+03  d E =-.196446E-02
       N       E                     dE             d eps       ncg     rms          rms(c)
DAV:   1    -0.140117066524E+03   -0.97648E-03   -0.36968E-02  6776   0.849E-01    0.294E-02
DAV:   2    -0.140117095498E+03   -0.28974E-04   -0.10108E-03  7360   0.143E-01    0.239E-02
DAV:   3    -0.140117063685E+03    0.31812E-04   -0.40512E-05  6504   0.346E-02    0.196E-02
DAV:   4    -0.140116985809E+03    0.77876E-04   -0.58914E-05  6696   0.659E-02    0.124E-02
DAV:   5    -0.140116923052E+03    0.62757E-04   -0.50602E-05  7008   0.715E-02    0.184E-02
DAV:   6    -0.140116869275E+03    0.53777E-04   -0.50914E-05  6584   0.687E-02    0.778E-03
DAV:   7    -0.140116711831E+03    0.15744E-03   -0.20697E-04 10168   0.246E-01    0.232E-02
DAV:   8    -0.140116608865E+03    0.10297E-03   -0.26346E-04  8712   0.277E-01    0.187E-02
DAV:   9    -0.140116615923E+03   -0.70577E-05   -0.32151E-04  7024   0.123E-01    0.114E-02
DAV:  10    -0.140116622938E+03   -0.70153E-05   -0.12112E-04  6856   0.495E-02    0.160E-02
DAV:  11    -0.140116622750E+03    0.18809E-06   -0.13677E-05  4352   0.156E-02
  19 F= -.14011662E+03 E0= -.14011592E+03  d E =-.537647E-03
       N       E                     dE             d eps       ncg     rms          rms(c)
DAV:   1    -0.140116704097E+03   -0.81159E-04   -0.47003E-03  7064   0.304E-01    0.135E-02
DAV:   2    -0.140116714290E+03   -0.10193E-04   -0.16171E-04  7208   0.527E-02    0.953E-03
DAV:   3    -0.140116711766E+03    0.25239E-05   -0.28884E-06  4104   0.111E-02    0.676E-03
DAV:   4    -0.140116708656E+03    0.31096E-05   -0.68698E-06  4192   0.188E-02    0.243E-03
DAV:   5    -0.140116707950E+03    0.70592E-06   -0.34544E-06  4024   0.964E-03    0.288E-03
DAV:   6    -0.140116706158E+03    0.17927E-05   -0.76291E-07  4072   0.983E-03
  20 F= -.14011671E+03 E0= -.14011600E+03  d E =-.621055E-03
       N       E                     dE             d eps       ncg     rms          rms(c)
DAV:   1    -0.140116694948E+03    0.13002E-04   -0.18505E-02  6856   0.604E-01    0.212E-02
DAV:   2    -0.140116728937E+03   -0.33989E-04   -0.57006E-04  7408   0.103E-01    0.180E-02
DAV:   3    -0.140116717857E+03    0.11080E-04   -0.14175E-05  4528   0.200E-02    0.136E-02
DAV:   4    -0.140116691836E+03    0.26021E-04   -0.52583E-05  6752   0.432E-02    0.999E-03
DAV:   5    -0.140116688186E+03    0.36500E-05   -0.13647E-05  4192   0.182E-02    0.104E-02
DAV:   6    -0.140116686315E+03    0.18710E-05   -0.39484E-06  4080   0.945E-03
  21 F= -.14011669E+03 E0= -.14011598E+03  d E =-.601212E-03
       N       E                     dE             d eps       ncg     rms          rms(c)
DAV:   1    -0.140116687234E+03    0.95137E-06   -0.32758E-03  7360   0.261E-01    0.165E-02
DAV:   2    -0.140116696479E+03   -0.92446E-05   -0.20152E-04  7144   0.617E-02    0.104E-02
DAV:   3    -0.140116693776E+03    0.27034E-05   -0.10513E-05  4096   0.154E-02    0.686E-03
DAV:   4    -0.140116691546E+03    0.22301E-05   -0.44271E-06  4088   0.971E-03    0.308E-03
DAV:   5    -0.140116689663E+03    0.18825E-05   -0.23302E-06  4232   0.133E-02    0.261E-03
DAV:   6    -0.140116688602E+03    0.10609E-05   -0.17222E-06  4048   0.128E-02
  22 F= -.14011669E+03 E0= -.14011598E+03  d E =-.603499E-03
       N       E                     dE             d eps       ncg     rms          rms(c)
DAV:   1    -0.140116700959E+03   -0.11296E-04   -0.16398E-03  6920   0.179E-01    0.643E-03
DAV:   2    -0.140116704430E+03   -0.34712E-05   -0.45522E-05  6744   0.287E-02    0.424E-03
DAV:   3    -0.140116703932E+03    0.49875E-06   -0.89580E-07  3736   0.479E-03    0.316E-03
DAV:   4    -0.140116703373E+03    0.55846E-06   -0.22137E-06  3896   0.792E-03    0.153E-03
DAV:   5    -0.140116703355E+03    0.18326E-07   -0.60198E-07  3432   0.365E-03    0.142E-03
DAV:   6    -0.140116703306E+03    0.48673E-07   -0.10936E-07  3344   0.199E-03
  23 F= -.14011670E+03 E0= -.14011600E+03  d E =-.618203E-03
       N       E                     dE             d eps       ncg     rms          rms(c)
DAV:   1    -0.140116977504E+03   -0.27415E-03   -0.51705E-02  6696   0.961E-01    0.290E-02
DAV:   2    -0.140117068388E+03   -0.90884E-04   -0.11449E-03  7296   0.138E-01    0.197E-02
DAV:   3    -0.140117058307E+03    0.10081E-04   -0.16157E-05  4624   0.233E-02    0.146E-02
DAV:   4    -0.140117048282E+03    0.10024E-04   -0.32579E-05  6192   0.365E-02    0.563E-03
DAV:   5    -0.140117047701E+03    0.58161E-06   -0.13873E-05  4056   0.191E-02    0.588E-03
DAV:   6    -0.140117047140E+03    0.56047E-06   -0.32510E-06  3816   0.830E-03
  24 F= -.14011705E+03 E0= -.14011634E+03  d E =-.343834E-03
       N       E                     dE             d eps       ncg     rms          rms(c)
DAV:   1    -0.140117043132E+03    0.45687E-05   -0.14746E-01  6664   0.162E+00    0.491E-02
DAV:   2    -0.140117301773E+03   -0.25864E-03   -0.33112E-03  7352   0.236E-01    0.347E-02
DAV:   3    -0.140117270594E+03    0.31179E-04   -0.60768E-05  6992   0.447E-02    0.260E-02
DAV:   4    -0.140117239671E+03    0.30923E-04   -0.70647E-05  6576   0.529E-02    0.117E-02
DAV:   5    -0.140117229427E+03    0.10245E-04   -0.33487E-05  6424   0.401E-02    0.104E-02
DAV:   6    -0.140117222739E+03    0.66878E-05   -0.27389E-05  5632   0.333E-02
  25 F= -.14011722E+03 E0= -.14011650E+03  d E =-.519433E-03
       N       E                     dE             d eps       ncg     rms          rms(c)
DAV:   1    -0.140117429693E+03   -0.20027E-03   -0.51269E-02  6696   0.979E-01    0.294E-02
DAV:   2    -0.140117507755E+03   -0.78063E-04   -0.11140E-03  7248   0.141E-01    0.184E-02
DAV:   3    -0.140117488838E+03    0.18917E-04   -0.24605E-05  5312   0.288E-02    0.129E-02
DAV:   4    -0.140117463405E+03    0.25434E-04   -0.11090E-05  4552   0.327E-02    0.685E-03
DAV:   5    -0.140117431161E+03    0.32243E-04   -0.20691E-05  5688   0.531E-02    0.504E-03
DAV:   6    -0.140117391410E+03    0.39752E-04   -0.22954E-05  5680   0.788E-02    0.510E-03
DAV:   7    -0.140117347031E+03    0.44378E-04   -0.42143E-05  6960   0.115E-01    0.730E-03
DAV:   8    -0.140117312319E+03    0.34712E-04   -0.87267E-05  8344   0.167E-01    0.564E-03
DAV:   9    -0.140117322139E+03   -0.98200E-05   -0.13375E-04  6408   0.494E-02    0.855E-03
DAV:  10    -0.140117322793E+03   -0.65425E-06   -0.12193E-05  4488   0.133E-02
  26 F= -.14011732E+03 E0= -.14011660E+03  d E =-.100055E-03
       N       E                     dE             d eps       ncg     rms          rms(c)
DAV:   1    -0.140117322997E+03   -0.85812E-06   -0.17983E-05  4960   0.184E-02    0.998E-03
DAV:   2    -0.140117320845E+03    0.21518E-05   -0.10538E-05  4016   0.158E-02    0.239E-03
DAV:   3    -0.140117320728E+03    0.11762E-06   -0.22578E-06  3952   0.790E-03    0.170E-03
DAV:   4    -0.140117320477E+03    0.25044E-06   -0.21339E-07  3936   0.614E-03    0.973E-04
DAV:   5    -0.140117320224E+03    0.25363E-06   -0.41311E-07  3936   0.910E-03    0.768E-04
DAV:   6    -0.140117320223E+03    0.77398E-09   -0.64619E-07  3648   0.364E-03
  27 F= -.14011732E+03 E0= -.14011659E+03  d E =-.974841E-04
       N       E                     dE             d eps       ncg     rms          rms(c)
DAV:   1    -0.140117506137E+03   -0.18591E-03   -0.15218E-02  6712   0.534E-01    0.183E-02
DAV:   2    -0.140117524291E+03   -0.18154E-04   -0.37130E-04  7272   0.881E-02    0.123E-02
DAV:   3    -0.140117519458E+03    0.48329E-05   -0.18694E-05  4728   0.220E-02    0.100E-02
DAV:   4    -0.140117514383E+03    0.50748E-05   -0.52731E-06  4224   0.139E-02    0.538E-03
DAV:   5    -0.140117509168E+03    0.52151E-05   -0.95572E-06  4504   0.263E-02    0.478E-03
DAV:   6    -0.140117507559E+03    0.16090E-05   -0.10896E-05  4568   0.249E-02
  28 F= -.14011751E+03 E0= -.14011678E+03  d E =-.187336E-03
       N       E                     dE             d eps       ncg     rms          rms(c)
DAV:   1    -0.140117546649E+03   -0.37481E-04   -0.10320E-02  6928   0.441E-01    0.145E-02
DAV:   2    -0.140117560505E+03   -0.13856E-04   -0.27353E-04  7304   0.731E-02    0.119E-02
DAV:   3    -0.140117555480E+03    0.50257E-05   -0.83857E-06  4240   0.159E-02    0.940E-03
DAV:   4    -0.140117546137E+03    0.93427E-05   -0.16738E-05  5064   0.264E-02    0.492E-03
DAV:   5    -0.140117543939E+03    0.21976E-05   -0.61517E-06  4136   0.172E-02    0.535E-03
DAV:   6    -0.140117542373E+03    0.15660E-05   -0.10438E-05  4192   0.209E-02
  29 F= -.14011754E+03 E0= -.14011682E+03  d E =-.222150E-03
       N       E                     dE             d eps       ncg     rms          rms(c)
DAV:   1    -0.140117698580E+03   -0.15464E-03   -0.17981E-02  6712   0.601E-01    0.198E-02
DAV:   2    -0.140117729657E+03   -0.31077E-04   -0.48677E-04  7272   0.935E-02    0.137E-02
DAV:   3    -0.140117721138E+03    0.85189E-05   -0.89776E-06  4528   0.176E-02    0.978E-03
DAV:   4    -0.140117706245E+03    0.14893E-04   -0.15494E-05  4808   0.293E-02    0.439E-03
DAV:   5    -0.140117702152E+03    0.40930E-05   -0.10225E-05  4192   0.178E-02    0.463E-03
DAV:   6    -0.140117697097E+03    0.50553E-05   -0.30732E-06  4160   0.186E-02
  30 F= -.14011770E+03 E0= -.14011697E+03  d E =-.154724E-03
       N       E                     dE             d eps       ncg     rms          rms(c)
DAV:   1    -0.140117681392E+03    0.20760E-04   -0.20725E-02  7128   0.652E-01    0.220E-02
DAV:   2    -0.140117723205E+03   -0.41813E-04   -0.65688E-04  7352   0.109E-01    0.183E-02
DAV:   3    -0.140117711334E+03    0.11872E-04   -0.16494E-05  4864   0.205E-02    0.122E-02
DAV:   4    -0.140117691419E+03    0.19914E-04   -0.18045E-05  5064   0.269E-02    0.549E-03
DAV:   5    -0.140117683012E+03    0.84069E-05   -0.73116E-06  4248   0.196E-02    0.461E-03
DAV:   6    -0.140117652118E+03    0.30895E-04   -0.18633E-05  5520   0.736E-02    0.511E-03
DAV:   7    -0.140117630634E+03    0.21484E-04   -0.38042E-05  6536   0.635E-02    0.543E-03
DAV:   8    -0.140117613243E+03    0.17391E-04   -0.18075E-05  5328   0.690E-02    0.887E-03
DAV:   9    -0.140117602463E+03    0.10780E-04   -0.28608E-05  6128   0.824E-02    0.487E-03
DAV:  10    -0.140117604779E+03   -0.23167E-05   -0.57237E-05  6304   0.486E-02
  31 F= -.14011760E+03 E0= -.14011688E+03  d E =-.624061E-04
       N       E                     dE             d eps       ncg     rms          rms(c)
DAV:   1    -0.140117661425E+03   -0.58963E-04   -0.57685E-03  7024   0.340E-01    0.132E-02
DAV:   2    -0.140117669202E+03   -0.77767E-05   -0.15772E-04  7296   0.538E-02    0.766E-03
DAV:   3    -0.140117666186E+03    0.30165E-05   -0.37453E-06  4192   0.120E-02    0.556E-03
DAV:   4    -0.140117661848E+03    0.43379E-05   -0.55621E-06  4584   0.193E-02    0.265E-03
DAV:   5    -0.140117660844E+03    0.10041E-05   -0.55250E-06  4104   0.124E-02    0.323E-03
DAV:   6    -0.140117660446E+03    0.39721E-06   -0.14511E-06  3792   0.577E-03
  32 F= -.14011766E+03 E0= -.14011694E+03  d E =-.118073E-03
       N       E                     dE             d eps       ncg     rms          rms(c)
DAV:   1    -0.140117668666E+03   -0.78219E-05   -0.61634E-04  6848   0.112E-01    0.450E-03
DAV:   2    -0.140117669132E+03   -0.46688E-06   -0.18771E-05  5000   0.199E-02    0.232E-03
DAV:   3    -0.140117668504E+03    0.62865E-06   -0.14810E-06  4000   0.600E-03    0.191E-03
DAV:   4    -0.140117666824E+03    0.16797E-05   -0.74499E-07  4080   0.887E-03    0.135E-03
DAV:   5    -0.140117665199E+03    0.16252E-05   -0.10340E-06  4280   0.117E-02    0.187E-03
DAV:   6    -0.140117662131E+03    0.30677E-05   -0.32579E-06  4416   0.315E-02
  33 F= -.14011766E+03 E0= -.14011694E+03  d E =-.119758E-03
       N       E                     dE             d eps       ncg     rms          rms(c)
DAV:   1    -0.140117748088E+03   -0.82890E-04   -0.15031E-02  6672   0.518E-01    0.153E-02
DAV:   2    -0.140117768874E+03   -0.20786E-04   -0.31004E-04  7248   0.748E-02    0.101E-02
DAV:   3    -0.140117764674E+03    0.42005E-05   -0.90322E-06  4264   0.187E-02    0.725E-03
DAV:   4    -0.140117760098E+03    0.45764E-05   -0.30335E-06  4328   0.177E-02    0.396E-03
DAV:   5    -0.140117756486E+03    0.36115E-05   -0.57059E-06  4424   0.247E-02    0.240E-03
DAV:   6    -0.140117755685E+03    0.80086E-06   -0.93088E-06  4288   0.231E-02
  34 F= -.14011776E+03 E0= -.14011703E+03  d E =-.935540E-04
       N       E                     dE             d eps       ncg     rms          rms(c)
DAV:   1    -0.140117761375E+03   -0.48894E-05   -0.38316E-02  6640   0.827E-01    0.240E-02
DAV:   2    -0.140117819283E+03   -0.57908E-04   -0.79515E-04  7312   0.116E-01    0.154E-02
DAV:   3    -0.140117808982E+03    0.10301E-04   -0.12152E-05  4648   0.247E-02    0.109E-02
DAV:   4    -0.140117794573E+03    0.14409E-04   -0.15390E-05  5432   0.406E-02    0.402E-03
DAV:   5    -0.140117791788E+03    0.27856E-05   -0.19169E-05  4896   0.282E-02    0.311E-03
DAV:   6    -0.140117790709E+03    0.10788E-05   -0.77551E-06  4120   0.167E-02
  35 F= -.14011779E+03 E0= -.14011707E+03  d E =-.128578E-03
       N       E                     dE             d eps       ncg     rms          rms(c)
DAV:   1    -0.140117906237E+03   -0.11445E-03   -0.19427E-02  6656   0.625E-01    0.189E-02
DAV:   2    -0.140117944921E+03   -0.38684E-04   -0.48282E-04  7168   0.905E-02    0.114E-02
DAV:   3    -0.140117939059E+03    0.58619E-05   -0.53165E-06  4192   0.136E-02    0.791E-03
DAV:   4    -0.140117930048E+03    0.90113E-05   -0.55438E-06  4416   0.233E-02    0.306E-03
DAV:   5    -0.140117924014E+03    0.60337E-05   -0.56711E-06  4288   0.250E-02    0.228E-03
DAV:   6    -0.140117916457E+03    0.75575E-05   -0.32218E-06  4368   0.318E-02
  36 F= -.14011792E+03 E0= -.14011719E+03  d E =-.125748E-03
       N       E                     dE             d eps       ncg     rms          rms(c)
DAV:   1    -0.140117819200E+03    0.10481E-03   -0.10849E-01  6688   0.148E+00    0.448E-02
DAV:   2    -0.140118039340E+03   -0.22014E-03   -0.27136E-03  7240   0.214E-01    0.267E-02
DAV:   3    -0.140118009041E+03    0.30299E-04   -0.34106E-05  6296   0.307E-02    0.184E-02
DAV:   4    -0.140117968646E+03    0.40395E-04   -0.24580E-05  5880   0.450E-02    0.778E-03
DAV:   5    -0.140117936451E+03    0.32194E-04   -0.27111E-05  5808   0.527E-02    0.507E-03
DAV:   6    -0.140117906210E+03    0.30242E-04   -0.15396E-05  4928   0.526E-02    0.484E-03
DAV:   7    -0.140117864429E+03    0.41781E-04   -0.17405E-05  5256   0.823E-02    0.469E-03
DAV:   8    -0.140117807235E+03    0.57194E-04   -0.92675E-05  8224   0.169E-01    0.489E-03
DAV:   9    -0.140117803651E+03    0.35838E-05   -0.10560E-04  7296   0.837E-02    0.547E-03
DAV:  10    -0.140117808040E+03   -0.43885E-05   -0.58889E-05  6344   0.309E-02
  37 F= -.14011781E+03 E0= -.14011708E+03  d E =-.173309E-04
       N       E                     dE             d eps       ncg     rms          rms(c)
DAV:   1    -0.140117884249E+03   -0.80598E-04   -0.28693E-02  6864   0.759E-01    0.247E-02
DAV:   2    -0.140117947141E+03   -0.62892E-04   -0.75759E-04  7200   0.112E-01    0.142E-02
DAV:   3    -0.140117940022E+03    0.71189E-05   -0.89179E-06  4464   0.158E-02    0.100E-02
DAV:   4    -0.140117931430E+03    0.85917E-05   -0.13872E-05  4584   0.243E-02    0.320E-03
DAV:   5    -0.140117929449E+03    0.19810E-05   -0.74969E-06  4128   0.149E-02    0.289E-03
DAV:   6    -0.140117926823E+03    0.26257E-05   -0.22698E-06  4288   0.117E-02
  38 F= -.14011793E+03 E0= -.14011720E+03  d E =-.136114E-03
       N       E                     dE             d eps       ncg     rms          rms(c)
DAV:   1    -0.140117940409E+03   -0.10960E-04   -0.33964E-03  7000   0.262E-01    0.801E-03
DAV:   2    -0.140117946051E+03   -0.56422E-05   -0.91379E-05  7232   0.407E-02    0.598E-03
DAV:   3    -0.140117944079E+03    0.19718E-05   -0.21094E-06  4096   0.864E-03    0.406E-03
DAV:   4    -0.140117940195E+03    0.38837E-05   -0.12140E-06  4152   0.132E-02    0.210E-03
DAV:   5    -0.140117935765E+03    0.44308E-05   -0.21579E-06  4360   0.204E-02    0.191E-03
DAV:   6    -0.140117929348E+03    0.64164E-05   -0.37951E-06  4400   0.366E-02
  39 F= -.14011793E+03 E0= -.14011721E+03  d E =-.138639E-03
       N       E                     dE             d eps       ncg     rms          rms(c)
DAV:   1    -0.140117915210E+03    0.20555E-04   -0.56107E-03  7080   0.340E-01    0.108E-02
DAV:   2    -0.140117928279E+03   -0.13070E-04   -0.16096E-04  7272   0.519E-02    0.699E-03
DAV:   3    -0.140117926221E+03    0.20582E-05   -0.24553E-06  4088   0.748E-03    0.428E-03
DAV:   4    -0.140117923660E+03    0.25612E-05   -0.12665E-06  4128   0.972E-03    0.213E-03
DAV:   5    -0.140117919796E+03    0.38634E-05   -0.12416E-06  4296   0.196E-02    0.129E-03
DAV:   6    -0.140117915427E+03    0.43692E-05   -0.30155E-06  4376   0.268E-02
  40 F= -.14011792E+03 E0= -.14011719E+03  d E =-.124718E-03
       N       E                     dE             d eps       ncg     rms          rms(c)
DAV:   1    -0.140117991628E+03   -0.71832E-04   -0.72490E-03  6888   0.381E-01    0.139E-02
DAV:   2    -0.140118003471E+03   -0.11843E-04   -0.22920E-04  7200   0.711E-02    0.100E-02
DAV:   3    -0.140117999557E+03    0.39140E-05   -0.12158E-05  4232   0.179E-02    0.798E-03
DAV:   4    -0.140117994472E+03    0.50848E-05   -0.36109E-06  4168   0.130E-02    0.435E-03
DAV:   5    -0.140117988912E+03    0.55603E-05   -0.71714E-06  4560   0.256E-02    0.408E-03
DAV:   6    -0.140117985964E+03    0.29470E-05   -0.13938E-05  4840   0.389E-02
  41 F= -.14011799E+03 E0= -.14011726E+03  d E =-.705372E-04
