       N       E                     dE             d eps       ncg     rms          rms(c)
DAV:   1     0.511914013844E+03    0.51191E+03   -0.44080E+04  6288   0.134E+03
DAV:   2    -0.965094040613E+02   -0.60842E+03   -0.57768E+03  8104   0.258E+02
DAV:   3    -0.154589734433E+03   -0.58080E+02   -0.57760E+02  7424   0.868E+01
DAV:   4    -0.155352083262E+03   -0.76235E+00   -0.76078E+00  7368   0.108E+01
DAV:   5    -0.155363841971E+03   -0.11759E-01   -0.11754E-01  7400   0.131E+00    0.230E+01
DAV:   6    -0.139719875726E+03    0.15644E+02   -0.89598E+01  7624   0.323E+01    0.792E+00
DAV:   7    -0.139662448455E+03    0.57427E-01   -0.30099E+00  7128   0.630E+00    0.486E+00
DAV:   8    -0.139592532678E+03    0.69916E-01   -0.90131E-01  7336   0.483E+00    0.139E+00
DAV:   9    -0.139553540926E+03    0.38992E-01   -0.15867E-01  7248   0.179E+00    0.667E-01
DAV:  10    -0.139557124674E+03   -0.35837E-02   -0.14217E-01  7096   0.151E+00    0.475E-01
DAV:  11    -0.139553573571E+03    0.35511E-02   -0.12912E-02  8048   0.613E-01    0.259E-01
DAV:  12    -0.139553525508E+03    0.48062E-04   -0.11248E-02  7232   0.459E-01    0.995E-02
DAV:  13    -0.139553566171E+03   -0.40663E-04   -0.11625E-03  7328   0.164E-01    0.626E-02
DAV:  14    -0.139553517728E+03    0.48443E-04   -0.34986E-04  7344   0.931E-02    0.281E-02
DAV:  15    -0.139553507544E+03    0.10183E-04   -0.10194E-04  7088   0.456E-02    0.666E-03
DAV:  16    -0.139553503462E+03    0.40829E-05   -0.14886E-05  4656   0.232E-02
   1 F= -.13955350E+03 E0= -.13955140E+03  d E =-.139554E+03
       N       E                     dE             d eps       ncg     rms          rms(c)
DAV:   1    -0.139555272956E+03   -0.17654E-02   -0.51408E-02  6544   0.988E-01    0.514E-02
DAV:   2    -0.139555291752E+03   -0.18797E-04   -0.21366E-03  7400   0.219E-01    0.436E-02
DAV:   3    -0.139555252329E+03    0.39423E-04   -0.20229E-04  7288   0.704E-02    0.341E-02
DAV:   4    -0.139555199811E+03    0.52518E-04   -0.12409E-04  7336   0.584E-02    0.156E-02
DAV:   5    -0.139555162206E+03    0.37605E-04   -0.70339E-05  7360   0.765E-02    0.158E-02
DAV:   6    -0.139555151333E+03    0.10873E-04   -0.63148E-05  7048   0.575E-02    0.897E-03
DAV:   7    -0.139555152126E+03   -0.79269E-06   -0.42757E-05  6304   0.270E-02
   2 F= -.13955515E+03 E0= -.13955303E+03  d E =-.164866E-02
       N       E                     dE             d eps       ncg     rms          rms(c)
DAV:   1    -0.139555458252E+03   -0.30692E-03   -0.66896E-02  6424   0.113E+00    0.536E-02
DAV:   2    -0.139555484654E+03   -0.26403E-04   -0.26184E-03  7416   0.241E-01    0.491E-02
DAV:   3    -0.139555430743E+03    0.53911E-04   -0.23556E-04  7312   0.785E-02    0.388E-02
DAV:   4    -0.139555360480E+03    0.70263E-04   -0.14380E-04  7368   0.659E-02    0.184E-02
DAV:   5    -0.139555303992E+03    0.56488E-04   -0.96482E-05  7664   0.938E-02    0.176E-02
DAV:   6    -0.139555285368E+03    0.18625E-04   -0.84884E-05  7616   0.730E-02    0.939E-03
DAV:   7    -0.139555286515E+03   -0.11472E-05   -0.72242E-05  6648   0.374E-02
   3 F= -.13955529E+03 E0= -.13955313E+03  d E =-.178305E-02
       N       E                     dE             d eps       ncg     rms          rms(c)
DAV:   1    -0.139555450623E+03   -0.16526E-03   -0.10166E-02  6736   0.438E-01    0.248E-02
DAV:   2    -0.139555459783E+03   -0.91602E-05   -0.46701E-04  7416   0.974E-02    0.202E-02
DAV:   3    -0.139555453123E+03    0.66598E-05   -0.33693E-05  6512   0.270E-02    0.153E-02
DAV:   4    -0.139555445101E+03    0.80226E-05   -0.46227E-05  6768   0.325E-02    0.733E-03
DAV:   5    -0.139555443269E+03    0.18316E-05   -0.99447E-06  4552   0.183E-02    0.864E-03
DAV:   6    -0.139555441887E+03    0.13818E-05   -0.53939E-06  4024   0.104E-02
   4 F= -.13955544E+03 E0= -.13955330E+03  d E =-.193843E-02
       N       E                     dE             d eps       ncg     rms          rms(c)
DAV:   1    -0.139556199670E+03   -0.75640E-03   -0.28023E-01  6272   0.223E+00    0.725E-02
DAV:   2    -0.139556867204E+03   -0.66753E-03   -0.74211E-03  7056   0.306E-01    0.458E-02
DAV:   3    -0.139556820018E+03    0.47187E-04   -0.72641E-05  7368   0.540E-02    0.306E-02
DAV:   4    -0.139556786993E+03    0.33024E-04   -0.68108E-05  7232   0.551E-02    0.121E-02
DAV:   5    -0.139556780323E+03    0.66699E-05   -0.36233E-05  6552   0.400E-02    0.563E-03
DAV:   6    -0.139556775029E+03    0.52943E-05   -0.10590E-05  4584   0.317E-02
   5 F= -.13955678E+03 E0= -.13955464E+03  d E =-.133314E-02
       N       E                     dE             d eps       ncg     rms          rms(c)
DAV:   1    -0.139554597380E+03    0.21829E-02   -0.17111E+00  6272   0.550E+00    0.181E-01
DAV:   2    -0.139558690400E+03   -0.40930E-02   -0.45688E-02  7064   0.753E-01    0.117E-01
DAV:   3    -0.139558381565E+03    0.30883E-03   -0.45191E-04  7384   0.139E-01    0.767E-02
DAV:   4    -0.139558167284E+03    0.21428E-03   -0.43623E-04  7352   0.144E-01    0.305E-02
DAV:   5    -0.139558115565E+03    0.51719E-04   -0.22546E-04  7800   0.106E-01    0.134E-02
DAV:   6    -0.139558073748E+03    0.41817E-04   -0.58069E-05  7232   0.864E-02    0.817E-03
DAV:   7    -0.139558059807E+03    0.13940E-04   -0.57753E-05  6736   0.519E-02    0.937E-03
DAV:   8    -0.139558034434E+03    0.25374E-04   -0.14170E-05  4864   0.536E-02    0.467E-03
DAV:   9    -0.139558018931E+03    0.15503E-04   -0.18881E-05  5392   0.582E-02    0.768E-03
DAV:  10    -0.139558014318E+03    0.46129E-05   -0.35175E-05  5896   0.421E-02
   6 F= -.13955801E+03 E0= -.13955590E+03  d E =-.257243E-02
       N       E                     dE             d eps       ncg     rms          rms(c)
DAV:   1    -0.139558693644E+03   -0.67471E-03   -0.11566E-01  6304   0.145E+00    0.476E-02
DAV:   2    -0.139558963133E+03   -0.26949E-03   -0.30471E-03  7056   0.204E-01    0.269E-02
DAV:   3    -0.139558951321E+03    0.11812E-04   -0.53895E-05  7280   0.344E-02    0.193E-02
DAV:   4    -0.139558943043E+03    0.82777E-05   -0.17512E-05  4776   0.211E-02    0.948E-03
DAV:   5    -0.139558938231E+03    0.48121E-05   -0.83560E-06  4392   0.218E-02    0.517E-03
DAV:   6    -0.139558936419E+03    0.18121E-05   -0.93339E-06  4256   0.198E-02
   7 F= -.13955894E+03 E0= -.13955684E+03  d E =-.922101E-03
       N       E                     dE             d eps       ncg     rms          rms(c)
DAV:   1    -0.139558644786E+03    0.29345E-03   -0.10405E+00  6272   0.435E+00    0.145E-01
DAV:   2    -0.139561178009E+03   -0.25332E-02   -0.27916E-02  7048   0.613E-01    0.804E-02
DAV:   3    -0.139561058996E+03    0.11901E-03   -0.30659E-04  7424   0.880E-02    0.561E-02
DAV:   4    -0.139560983723E+03    0.75273E-04   -0.23856E-04  7240   0.731E-02    0.216E-02
DAV:   5    -0.139560972559E+03    0.11164E-04   -0.64155E-05  7112   0.478E-02    0.128E-02
DAV:   6    -0.139560968974E+03    0.35851E-05   -0.50902E-05  6776   0.468E-02
   8 F= -.13956097E+03 E0= -.13955892E+03  d E =-.295466E-02
       N       E                     dE             d eps       ncg     rms          rms(c)
DAV:   1    -0.139552191590E+03    0.87810E-02   -0.41612E+00  6272   0.872E+00    0.288E-01
DAV:   2    -0.139562397322E+03   -0.10206E-01   -0.11242E-01  7016   0.124E+00    0.164E-01
DAV:   3    -0.139561898969E+03    0.49835E-03   -0.12597E-03  7408   0.180E-01    0.113E-01
DAV:   4    -0.139561598985E+03    0.29998E-03   -0.84499E-04  7272   0.137E-01    0.449E-02
DAV:   5    -0.139561542226E+03    0.56759E-04   -0.23900E-04  7552   0.996E-02    0.226E-02
DAV:   6    -0.139561529602E+03    0.12624E-04   -0.17768E-04  8208   0.911E-02    0.172E-02
DAV:   7    -0.139561527685E+03    0.19166E-05   -0.69269E-05  6552   0.397E-02
   9 F= -.13956153E+03 E0= -.13955956E+03  d E =-.351337E-02
       N       E                     dE             d eps       ncg     rms          rms(c)
DAV:   1    -0.139560615834E+03    0.91377E-03   -0.55739E-01  6272   0.321E+00    0.101E-01
DAV:   2    -0.139561960045E+03   -0.13442E-02   -0.14727E-02  7016   0.452E-01    0.603E-02
DAV:   3    -0.139561899311E+03    0.60734E-04   -0.14898E-04  7424   0.601E-02    0.435E-02
DAV:   4    -0.139561859020E+03    0.40291E-04   -0.18106E-04  7208   0.645E-02    0.162E-02
DAV:   5    -0.139561857210E+03    0.18099E-05   -0.42499E-05  6536   0.305E-02    0.115E-02
DAV:   6    -0.139561857017E+03    0.19357E-06   -0.37761E-05  6176   0.317E-02
  10 F= -.13956186E+03 E0= -.13955986E+03  d E =-.384270E-02
       N       E                     dE             d eps       ncg     rms          rms(c)
DAV:   1    -0.139562608144E+03   -0.75093E-03   -0.45032E-01  6280   0.297E+00    0.840E-02
DAV:   2    -0.139563559373E+03   -0.95123E-03   -0.10281E-02  7032   0.402E-01    0.486E-02
DAV:   3    -0.139563506603E+03    0.52770E-04   -0.75871E-05  7504   0.460E-02    0.332E-02
DAV:   4    -0.139563466520E+03    0.40083E-04   -0.15423E-04  7192   0.725E-02    0.895E-03
DAV:   5    -0.139563469078E+03   -0.25579E-05   -0.54262E-05  6536   0.313E-02    0.959E-03
DAV:   6    -0.139563467276E+03    0.18020E-05   -0.54531E-06  4088   0.114E-02
  11 F= -.13956347E+03 E0= -.13956151E+03  d E =-.161026E-02
       N       E                     dE             d eps       ncg     rms          rms(c)
DAV:   1    -0.139559181746E+03    0.42873E-02   -0.40570E+00  6288   0.891E+00    0.258E-01
DAV:   2    -0.139567832322E+03   -0.86506E-02   -0.93582E-02  7040   0.121E+00    0.148E-01
DAV:   3    -0.139567335936E+03    0.49639E-03   -0.70695E-04  7480   0.140E-01    0.997E-02
DAV:   4    -0.139566962152E+03    0.37378E-03   -0.14051E-03  7304   0.209E-01    0.285E-02
DAV:   5    -0.139566974558E+03   -0.12406E-04   -0.46570E-04  7128   0.966E-02    0.262E-02
DAV:   6    -0.139566952969E+03    0.21589E-04   -0.69181E-05  6760   0.418E-02    0.122E-02
DAV:   7    -0.139566919921E+03    0.33048E-04   -0.64334E-06  4424   0.420E-02    0.650E-03
DAV:   8    -0.139566885869E+03    0.34052E-04   -0.11272E-05  4960   0.464E-02    0.637E-03
DAV:   9    -0.139566808620E+03    0.77249E-04   -0.63287E-05  7752   0.122E-01    0.942E-03
DAV:  10    -0.139566748756E+03    0.59864E-04   -0.84604E-05  8048   0.143E-01    0.120E-02
DAV:  11    -0.139566727689E+03    0.21067E-04   -0.11648E-04  8032   0.119E-01    0.647E-03
DAV:  12    -0.139566732749E+03   -0.50601E-05   -0.97643E-05  6400   0.497E-02
  12 F= -.13956673E+03 E0= -.13956487E+03  d E =-.487573E-02
       N       E                     dE             d eps       ncg     rms          rms(c)
DAV:   1    -0.139535116563E+03    0.31611E-01   -0.16215E+01  6352   0.177E+01    0.524E-01
DAV:   2    -0.139570634305E+03   -0.35518E-01   -0.38494E-01  7008   0.240E+00    0.311E-01
DAV:   3    -0.139568559424E+03    0.20749E-02   -0.31763E-03  7488   0.281E-01    0.206E-01
DAV:   4    -0.139567118568E+03    0.14409E-02   -0.56169E-03  7248   0.389E-01    0.622E-02
DAV:   5    -0.139567158001E+03   -0.39433E-04   -0.16379E-03  7152   0.180E-01    0.488E-02
DAV:   6    -0.139567082597E+03    0.75404E-04   -0.28767E-04  7064   0.877E-02    0.226E-02
DAV:   7    -0.139567001604E+03    0.80993E-04   -0.35945E-05  6504   0.690E-02    0.138E-02
DAV:   8    -0.139566894993E+03    0.10661E-03   -0.49470E-05  7328   0.849E-02    0.107E-02
DAV:   9    -0.139566721741E+03    0.17325E-03   -0.81405E-05  8152   0.140E-01    0.161E-02
DAV:  10    -0.139566582930E+03    0.13881E-03   -0.12479E-04  8280   0.160E-01    0.190E-02
DAV:  11    -0.139566464056E+03    0.11887E-03   -0.59471E-04  9352   0.350E-01    0.405E-02
DAV:  12    -0.139566453738E+03    0.10318E-04   -0.55909E-04  7408   0.130E-01    0.255E-02
DAV:  13    -0.139566457476E+03   -0.37377E-05   -0.16082E-04  6696   0.470E-02    0.193E-02
DAV:  14    -0.139566458093E+03   -0.61742E-06   -0.58854E-06  4152   0.915E-03
  13 F= -.13956646E+03 E0= -.13956476E+03  d E =-.460108E-02
       N       E                     dE             d eps       ncg     rms          rms(c)
DAV:   1    -0.139558837153E+03    0.76203E-02   -0.46689E+00  6368   0.929E+00    0.282E-01
DAV:   2    -0.139568875248E+03   -0.10038E-01   -0.10854E-01  6984   0.126E+00    0.155E-01
DAV:   3    -0.139568317882E+03    0.55737E-03   -0.76527E-04  7584   0.149E-01    0.104E-01
DAV:   4    -0.139567903841E+03    0.41404E-03   -0.15409E-03  7424   0.228E-01    0.251E-02
DAV:   5    -0.139567930047E+03   -0.26206E-04   -0.55104E-04  7160   0.977E-02    0.263E-02
DAV:   6    -0.139567908799E+03    0.21248E-04   -0.59442E-05  6736   0.365E-02    0.122E-02
DAV:   7    -0.139567881126E+03    0.27673E-04   -0.85895E-06  4552   0.339E-02    0.779E-03
DAV:   8    -0.139567857457E+03    0.23668E-04   -0.85900E-06  4816   0.336E-02    0.788E-03
DAV:   9    -0.139567802073E+03    0.55384E-04   -0.87428E-05  8200   0.108E-01    0.126E-02
DAV:  10    -0.139567765615E+03    0.36458E-04   -0.91142E-05  8120   0.112E-01    0.186E-02
DAV:  11    -0.139567749451E+03    0.16165E-04   -0.75079E-05  7344   0.719E-02    0.115E-02
DAV:  12    -0.139567747586E+03    0.18648E-05   -0.39312E-05  6104   0.329E-02
  14 F= -.13956775E+03 E0= -.13956596E+03  d E =-.589057E-02
       N       E                     dE             d eps       ncg     rms          rms(c)
DAV:   1    -0.139568980490E+03   -0.12310E-02   -0.36824E-01  6344   0.264E+00    0.798E-02
DAV:   2    -0.139569739103E+03   -0.75861E-03   -0.85235E-03  7048   0.360E-01    0.447E-02
DAV:   3    -0.139569695886E+03    0.43217E-04   -0.93835E-05  7528   0.536E-02    0.301E-02
DAV:   4    -0.139569658445E+03    0.37441E-04   -0.89894E-05  7144   0.646E-02    0.103E-02
DAV:   5    -0.139569653538E+03    0.49067E-05   -0.44218E-05  6360   0.378E-02    0.102E-02
DAV:   6    -0.139569642793E+03    0.10745E-04   -0.27263E-05  5728   0.392E-02    0.701E-03
DAV:   7    -0.139569637515E+03    0.52778E-05   -0.10104E-05  4216   0.238E-02
  15 F= -.13956964E+03 E0= -.13956790E+03  d E =-.188993E-02
       N       E                     dE             d eps       ncg     rms          rms(c)
DAV:   1    -0.139567511784E+03    0.21310E-02   -0.33074E+00  6280   0.794E+00    0.239E-01
DAV:   2    -0.139574345552E+03   -0.68338E-02   -0.76479E-02  7040   0.108E+00    0.133E-01
DAV:   3    -0.139573968627E+03    0.37693E-03   -0.77252E-04  7552   0.150E-01    0.886E-02
DAV:   4    -0.139573640974E+03    0.32765E-03   -0.85204E-04  7376   0.196E-01    0.288E-02
DAV:   5    -0.139573611567E+03    0.29407E-04   -0.40375E-04  7168   0.106E-01    0.305E-02
DAV:   6    -0.139573534785E+03    0.76783E-04   -0.14017E-04  6992   0.817E-02    0.154E-02
DAV:   7    -0.139573474423E+03    0.60362E-04   -0.25348E-05  5808   0.670E-02    0.138E-02
DAV:   8    -0.139573355297E+03    0.11913E-03   -0.52365E-05  7384   0.122E-01    0.779E-03
DAV:   9    -0.139573174939E+03    0.18036E-03   -0.14478E-04  8768   0.227E-01    0.147E-02
DAV:  10    -0.139573069725E+03    0.10521E-03   -0.21703E-04  8832   0.215E-01    0.111E-02
DAV:  11    -0.139573024630E+03    0.45095E-04   -0.20866E-04  9088   0.229E-01    0.128E-02
DAV:  12    -0.139573047891E+03   -0.23261E-04   -0.34661E-04  7144   0.103E-01    0.107E-02
DAV:  13    -0.139573052053E+03   -0.41619E-05   -0.66554E-05  6304   0.318E-02
  16 F= -.13957305E+03 E0= -.13957142E+03  d E =-.530447E-02
       N       E                     dE             d eps       ncg     rms          rms(c)
DAV:   1    -0.139546624088E+03    0.26424E-01   -0.13223E+01  6272   0.162E+01    0.479E-01
DAV:   2    -0.139574275239E+03   -0.27651E-01   -0.30783E-01  7064   0.222E+00    0.275E-01
DAV:   3    -0.139572791882E+03    0.14834E-02   -0.31585E-03  7472   0.297E-01    0.180E-01
DAV:   4    -0.139571692635E+03    0.10992E-02   -0.36084E-03  7400   0.380E-01    0.572E-02
DAV:   5    -0.139571665759E+03    0.26875E-04   -0.15295E-03  7168   0.195E-01    0.551E-02
DAV:   6    -0.139571522645E+03    0.14311E-03   -0.30038E-04  6904   0.103E-01    0.281E-02
DAV:   7    -0.139571373842E+03    0.14880E-03   -0.28660E-05  6240   0.101E-01    0.211E-02
DAV:   8    -0.139571103794E+03    0.27005E-03   -0.96376E-05  8056   0.178E-01    0.125E-02
DAV:   9    -0.139570632177E+03    0.47162E-03   -0.34979E-04  8824   0.387E-01    0.195E-02
DAV:  10    -0.139570302701E+03    0.32948E-03   -0.95445E-04  9480   0.554E-01    0.263E-02
DAV:  11    -0.139570371320E+03   -0.68619E-04   -0.12654E-03  7344   0.217E-01    0.238E-02
DAV:  12    -0.139570406107E+03   -0.34787E-04   -0.38297E-04  6752   0.670E-02    0.332E-02
DAV:  13    -0.139570407939E+03   -0.18318E-05   -0.34858E-06  4192   0.792E-03
  17 F= -.13957041E+03 E0= -.13956884E+03  d E =-.266035E-02
       N       E                     dE             d eps       ncg     rms          rms(c)
DAV:   1    -0.139562319296E+03    0.80868E-02   -0.67890E+00  6272   0.112E+01    0.338E-01
DAV:   2    -0.139575592287E+03   -0.13273E-01   -0.14954E-01  7064   0.152E+00    0.178E-01
DAV:   3    -0.139574950914E+03    0.64137E-03   -0.19574E-03  7552   0.226E-01    0.124E-01
DAV:   4    -0.139574452954E+03    0.49796E-03   -0.18509E-03  7232   0.248E-01    0.519E-02
DAV:   5    -0.139574365779E+03    0.87175E-04   -0.55622E-04  7456   0.144E-01    0.494E-02
DAV:   6    -0.139574233464E+03    0.13231E-03   -0.58088E-04  7856   0.162E-01    0.261E-02
DAV:   7    -0.139574182441E+03    0.51024E-04   -0.18488E-04  6808   0.822E-02    0.256E-02
DAV:   8    -0.139574101669E+03    0.80771E-04   -0.55781E-05  6496   0.633E-02    0.111E-02
DAV:   9    -0.139573893918E+03    0.20775E-03   -0.16428E-04  8704   0.209E-01    0.256E-02
DAV:  10    -0.139573783465E+03    0.11045E-03   -0.12813E-04  8344   0.150E-01    0.215E-02
DAV:  11    -0.139573584594E+03    0.19887E-03   -0.37349E-04 10536   0.430E-01    0.103E-02
DAV:  12    -0.139573608000E+03   -0.23405E-04   -0.54924E-04  7192   0.142E-01    0.128E-02
DAV:  13    -0.139573609294E+03   -0.12944E-05   -0.13449E-04  6744   0.508E-02    0.142E-02
DAV:  14    -0.139573602147E+03    0.71477E-05   -0.77487E-05  7144   0.593E-02
  18 F= -.13957360E+03 E0= -.13957201E+03  d E =-.585456E-02
       N       E                     dE             d eps       ncg     rms          rms(c)
DAV:   1    -0.139574498177E+03   -0.88888E-03   -0.12065E+00  6272   0.492E+00    0.140E-01
DAV:   2    -0.139577006616E+03   -0.25084E-02   -0.27349E-02  7056   0.673E-01    0.767E-02
DAV:   3    -0.139576900080E+03    0.10654E-03   -0.25794E-04  7544   0.741E-02    0.515E-02
DAV:   4    -0.139576829805E+03    0.70274E-04   -0.25271E-04  7312   0.894E-02    0.145E-02
DAV:   5    -0.139576837841E+03   -0.80357E-05   -0.96344E-05  6928   0.417E-02    0.149E-02
DAV:   6    -0.139576836056E+03    0.17852E-05   -0.15522E-05  4192   0.196E-02
  19 F= -.13957684E+03 E0= -.13957526E+03  d E =-.323391E-02
       N       E                     dE             d eps       ncg     rms          rms(c)
DAV:   1    -0.139563481184E+03    0.13357E-01   -0.10858E+01  6288   0.148E+01    0.430E-01
DAV:   2    -0.139586550848E+03   -0.23070E-01   -0.25192E-01  7072   0.204E+00    0.239E-01
DAV:   3    -0.139585504683E+03    0.10462E-02   -0.24308E-03  7512   0.230E-01    0.159E-01
DAV:   4    -0.139584815253E+03    0.68943E-03   -0.26049E-03  7384   0.280E-01    0.486E-02
DAV:   5    -0.139584863058E+03   -0.47805E-04   -0.88924E-04  7200   0.138E-01    0.464E-02
DAV:   6    -0.139584847910E+03    0.15148E-04   -0.20895E-04  6864   0.672E-02    0.246E-02
DAV:   7    -0.139584836106E+03    0.11805E-04   -0.15822E-05  5096   0.338E-02    0.122E-02
DAV:   8    -0.139584826318E+03    0.97876E-05   -0.11795E-05  4984   0.411E-02
  20 F= -.13958483E+03 E0= -.13958318E+03  d E =-.112242E-01
       N       E                     dE             d eps       ncg     rms          rms(c)
DAV:   1    -0.139505920128E+03    0.78916E-01   -0.43353E+01  6280   0.295E+01    0.888E-01
DAV:   2    -0.139601417474E+03   -0.95497E-01   -0.10587E+00  7048   0.414E+00    0.526E-01
DAV:   3    -0.139596489762E+03    0.49277E-02   -0.11549E-02  7384   0.490E-01    0.338E-01
DAV:   4    -0.139593471644E+03    0.30181E-02   -0.11035E-02  7352   0.529E-01    0.111E-01
DAV:   5    -0.139593517062E+03   -0.45418E-04   -0.31035E-03  7368   0.269E-01    0.816E-02
DAV:   6    -0.139593485809E+03    0.31253E-04   -0.83184E-04  7424   0.141E-01    0.460E-02
DAV:   7    -0.139593438761E+03    0.47048E-04   -0.10221E-04  7136   0.693E-02    0.249E-02
DAV:   8    -0.139593401050E+03    0.37711E-04   -0.63096E-05  7392   0.768E-02    0.130E-02
DAV:   9    -0.139593385904E+03    0.15146E-04   -0.44131E-05  6688   0.493E-02    0.100E-02
DAV:  10    -0.139593378706E+03    0.71977E-05   -0.44043E-05  6448   0.433E-02
  21 F= -.13959338E+03 E0= -.13959140E+03  d E =-.197766E-01
       N       E                     dE             d eps       ncg     rms          rms(c)
DAV:   1    -0.139186959941E+03    0.40643E+00   -0.17240E+02  6272   0.583E+01    0.199E+00
DAV:   2    -0.139628394861E+03   -0.44143E+00   -0.49850E+00  7064   0.871E+00    0.133E+00
DAV:   3    -0.139598884346E+03    0.29511E-01   -0.71383E-02  7304   0.118E+00    0.791E-01
DAV:   4    -0.139584525270E+03    0.14359E-01   -0.55598E-02  7264   0.103E+00    0.272E-01
DAV:   5    -0.139583685883E+03    0.83939E-03   -0.10191E-02  7424   0.507E-01    0.140E-01
DAV:   6    -0.139583612513E+03    0.73369E-04   -0.31700E-03  7528   0.300E-01    0.863E-02
DAV:   7    -0.139583469879E+03    0.14263E-03   -0.87379E-04  7352   0.150E-01    0.527E-02
DAV:   8    -0.139583328840E+03    0.14104E-03   -0.30205E-04  8072   0.121E-01    0.308E-02
DAV:   9    -0.139583263224E+03    0.65616E-04   -0.11557E-04  8040   0.845E-02    0.207E-02
DAV:  10    -0.139583231661E+03    0.31563E-04   -0.13086E-04  7128   0.743E-02    0.111E-02
DAV:  11    -0.139583206544E+03    0.25117E-04   -0.25964E-05  5816   0.728E-02    0.114E-02
DAV:  12    -0.139583201927E+03    0.46174E-05   -0.55539E-05  6744   0.412E-02
  22 F= -.13958320E+03 E0= -.13958123E+03  d E =-.959978E-02
       N       E                     dE             d eps       ncg     rms          rms(c)
DAV:   1    -0.139366280548E+03    0.21693E+00   -0.10703E+02  6288   0.452E+01    0.147E+00
DAV:   2    -0.139615987162E+03   -0.24971E+00   -0.27731E+00  7008   0.648E+00    0.880E-01
DAV:   3    -0.139602097927E+03    0.13889E-01   -0.30518E-02  7504   0.840E-01    0.552E-01
DAV:   4    -0.139594870928E+03    0.72270E-02   -0.32577E-02  7288   0.959E-01    0.191E-01
DAV:   5    -0.139594992400E+03   -0.12147E-03   -0.83357E-03  7128   0.408E-01    0.123E-01
DAV:   6    -0.139594893330E+03    0.99070E-04   -0.17857E-03  7440   0.188E-01    0.669E-02
DAV:   7    -0.139594797232E+03    0.96098E-04   -0.28649E-04  7432   0.913E-02    0.398E-02
DAV:   8    -0.139594721153E+03    0.76079E-04   -0.17793E-04  8824   0.115E-01    0.227E-02
DAV:   9    -0.139594694537E+03    0.26616E-04   -0.10871E-04  7608   0.684E-02    0.209E-02
DAV:  10    -0.139594679471E+03    0.15066E-04   -0.83721E-05  6736   0.458E-02    0.787E-03
DAV:  11    -0.139594670518E+03    0.89525E-05   -0.84503E-06  4424   0.261E-02
  23 F= -.13959467E+03 E0= -.13959292E+03  d E =-.210684E-01
       N       E                     dE             d eps       ncg     rms          rms(c)
DAV:   1    -0.139595626981E+03   -0.94751E-03   -0.93983E-01  6336   0.429E+00    0.129E-01
DAV:   2    -0.139597641316E+03   -0.20143E-02   -0.22029E-02  7072   0.592E-01    0.701E-02
DAV:   3    -0.139597548855E+03    0.92461E-04   -0.19515E-04  7496   0.663E-02    0.469E-02
DAV:   4    -0.139597488762E+03    0.60093E-04   -0.25474E-04  7368   0.848E-02    0.138E-02
DAV:   5    -0.139597494353E+03   -0.55913E-05   -0.81846E-05  6840   0.384E-02    0.130E-02
DAV:   6    -0.139597492960E+03    0.13930E-05   -0.11743E-05  4152   0.167E-02
  24 F= -.13959749E+03 E0= -.13959578E+03  d E =-.282244E-02
       N       E                     dE             d eps       ncg     rms          rms(c)
DAV:   1    -0.139588483256E+03    0.90111E-02   -0.84613E+00  6336   0.129E+01    0.386E-01
DAV:   2    -0.139606636649E+03   -0.18153E-01   -0.19898E-01  6936   0.177E+00    0.213E-01
DAV:   3    -0.139605773258E+03    0.86339E-03   -0.17375E-03  7472   0.198E-01    0.139E-01
DAV:   4    -0.139605204415E+03    0.56884E-03   -0.19290E-03  7432   0.241E-01    0.339E-02
DAV:   5    -0.139605265338E+03   -0.60923E-04   -0.74177E-04  7184   0.113E-01    0.314E-02
DAV:   6    -0.139605258743E+03    0.65953E-05   -0.41541E-05  6592   0.290E-02
  25 F= -.13960526E+03 E0= -.13960346E+03  d E =-.105882E-01
       N       E                     dE             d eps       ncg     rms          rms(c)
DAV:   1    -0.139548376637E+03    0.56889E-01   -0.33802E+01  6336   0.258E+01    0.797E-01
DAV:   2    -0.139623439021E+03   -0.75062E-01   -0.82701E-01  6944   0.360E+00    0.455E-01
DAV:   3    -0.139619589204E+03    0.38498E-02   -0.82473E-03  7368   0.426E-01    0.286E-01
DAV:   4    -0.139617224578E+03    0.23646E-02   -0.68130E-03  7432   0.447E-01    0.809E-02
DAV:   5    -0.139617385810E+03   -0.16123E-03   -0.29453E-03  7256   0.238E-01    0.574E-02
DAV:   6    -0.139617362410E+03    0.23400E-04   -0.17192E-04  7312   0.580E-02    0.400E-02
DAV:   7    -0.139617318189E+03    0.44221E-04   -0.68185E-05  7176   0.386E-02    0.197E-02
DAV:   8    -0.139617283867E+03    0.34322E-04   -0.12081E-05  4888   0.422E-02    0.990E-03
DAV:   9    -0.139617253141E+03    0.30726E-04   -0.30313E-05  6096   0.516E-02    0.767E-03
DAV:  10    -0.139617229521E+03    0.23620E-04   -0.25178E-05  5728   0.482E-02    0.889E-03
DAV:  11    -0.139617173913E+03    0.55608E-04   -0.45961E-05  6592   0.109E-01    0.731E-03
DAV:  12    -0.139617164852E+03    0.90609E-05   -0.55132E-05  6848   0.475E-02
  26 F= -.13961716E+03 E0= -.13961526E+03  d E =-.224943E-01
       N       E                     dE             d eps       ncg     rms          rms(c)
DAV:   1    -0.139319246074E+03    0.29793E+00   -0.13465E+02  6320   0.517E+01    0.172E+00
DAV:   2    -0.139655234303E+03   -0.33599E+00   -0.37672E+00  6888   0.764E+00    0.111E+00
DAV:   3    -0.139633612734E+03    0.21622E-01   -0.48847E-02  7280   0.101E+00    0.654E-01
DAV:   4    -0.139622843191E+03    0.10770E-01   -0.35700E-02  7344   0.906E-01    0.211E-01
DAV:   5    -0.139622986833E+03   -0.14364E-03   -0.12141E-02  7304   0.493E-01    0.108E-01
DAV:   6    -0.139622877646E+03    0.10919E-03   -0.16812E-03  7208   0.153E-01    0.785E-02
DAV:   7    -0.139622788013E+03    0.89632E-04   -0.24573E-04  7376   0.553E-02    0.577E-02
DAV:   8    -0.139622621846E+03    0.16617E-03   -0.19471E-04  7368   0.879E-02    0.235E-02
DAV:   9    -0.139622544194E+03    0.77651E-04   -0.63641E-05  7528   0.691E-02    0.137E-02
DAV:  10    -0.139622465490E+03    0.78705E-04   -0.76592E-05  8120   0.810E-02    0.149E-02
DAV:  11    -0.139622267650E+03    0.19784E-03   -0.13665E-04  8440   0.190E-01    0.955E-03
DAV:  12    -0.139622201864E+03    0.65786E-04   -0.16868E-04  7352   0.125E-01    0.102E-02
DAV:  13    -0.139622166142E+03    0.35723E-04   -0.11739E-04  8440   0.116E-01    0.859E-03
DAV:  14    -0.139622145728E+03    0.20413E-04   -0.57514E-05  7392   0.100E-01    0.104E-02
DAV:  15    -0.139622131044E+03    0.14685E-04   -0.38390E-05  6528   0.824E-02    0.376E-03
DAV:  16    -0.139622126138E+03    0.49053E-05   -0.38547E-05  6360   0.655E-02
  27 F= -.13962213E+03 E0= -.13961952E+03  d E =-.274556E-01
       N       E                     dE             d eps       ncg     rms          rms(c)
DAV:   1    -0.139594415187E+03    0.27716E-01   -0.14820E+01  6328   0.172E+01    0.514E-01
DAV:   2    -0.139625867224E+03   -0.31452E-01   -0.34683E-01  6840   0.237E+00    0.275E-01
DAV:   3    -0.139624442042E+03    0.14252E-02   -0.32347E-03  7584   0.270E-01    0.185E-01
DAV:   4    -0.139623503349E+03    0.93869E-03   -0.37626E-03  7328   0.345E-01    0.534E-02
DAV:   5    -0.139623592219E+03   -0.88869E-04   -0.13031E-03  7120   0.151E-01    0.531E-02
DAV:   6    -0.139623563988E+03    0.28231E-04   -0.23365E-04  7240   0.697E-02    0.251E-02
DAV:   7    -0.139623554955E+03    0.90328E-05   -0.36271E-05  5592   0.319E-02
  28 F= -.13962355E+03 E0= -.13962121E+03  d E =-.288844E-01
       N       E                     dE             d eps       ncg     rms          rms(c)
DAV:   1    -0.139609521030E+03    0.14043E-01   -0.13647E+01  6296   0.165E+01    0.511E-01
DAV:   2    -0.139638705795E+03   -0.29185E-01   -0.33061E-01  7040   0.230E+00    0.282E-01
DAV:   3    -0.139637299242E+03    0.14066E-02   -0.42325E-03  7432   0.268E-01    0.180E-01
DAV:   4    -0.139636660514E+03    0.63873E-03   -0.25983E-03  7312   0.212E-01    0.769E-02
DAV:   5    -0.139636547231E+03    0.11328E-03   -0.15447E-03  7168   0.126E-01    0.394E-02
DAV:   6    -0.139636534720E+03    0.12511E-04   -0.16776E-04  7160   0.577E-02    0.271E-02
DAV:   7    -0.139636521164E+03    0.13555E-04   -0.15481E-05  4720   0.327E-02    0.172E-02
DAV:   8    -0.139636494594E+03    0.26571E-04   -0.14322E-05  5056   0.444E-02    0.496E-03
DAV:   9    -0.139636477344E+03    0.17250E-04   -0.15158E-05  4776   0.385E-02    0.396E-03
DAV:  10    -0.139636421915E+03    0.55429E-04   -0.44564E-05  6552   0.140E-01    0.762E-03
DAV:  11    -0.139636403416E+03    0.18499E-04   -0.76111E-05  7600   0.950E-02    0.559E-03
DAV:  12    -0.139636404428E+03   -0.10122E-05   -0.57483E-05  6368   0.442E-02
  29 F= -.13963640E+03 E0= -.13963381E+03  d E =-.128495E-01
       N       E                     dE             d eps       ncg     rms          rms(c)
DAV:   1    -0.139399161424E+03    0.23724E+00   -0.12230E+02  6272   0.496E+01    0.169E+00
DAV:   2    -0.139695029516E+03   -0.29587E+00   -0.34412E+00  7024   0.733E+00    0.108E+00
DAV:   3    -0.139675679764E+03    0.19350E-01   -0.47579E-02  7256   0.972E-01    0.649E-01
DAV:   4    -0.139666680851E+03    0.89989E-02   -0.40938E-02  7208   0.873E-01    0.219E-01
DAV:   5    -0.139666571361E+03    0.10949E-03   -0.76727E-03  7384   0.388E-01    0.108E-01
DAV:   6    -0.139666670676E+03   -0.99315E-04   -0.14743E-03  7144   0.162E-01    0.754E-02
DAV:   7    -0.139666583348E+03    0.87328E-04   -0.41897E-04  7472   0.103E-01    0.514E-02
DAV:   8    -0.139666480019E+03    0.10333E-03   -0.22036E-04  7536   0.827E-02    0.309E-02
DAV:   9    -0.139666402810E+03    0.77209E-04   -0.52134E-05  7280   0.709E-02    0.194E-02
DAV:  10    -0.139666315544E+03    0.87266E-04   -0.46862E-05  6752   0.728E-02    0.100E-02
DAV:  11    -0.139666099287E+03    0.21626E-03   -0.18040E-04  9184   0.233E-01    0.280E-02
DAV:  12    -0.139665962262E+03    0.13702E-03   -0.27820E-04  8912   0.242E-01    0.220E-02
DAV:  13    -0.139665943894E+03    0.18367E-04   -0.32657E-04  7968   0.152E-01    0.967E-03
DAV:  14    -0.139665955669E+03   -0.11775E-04   -0.17718E-04  6768   0.550E-02    0.116E-02
DAV:  15    -0.139665954239E+03    0.14296E-05   -0.90176E-06  4200   0.153E-02
  30 F= -.13966595E+03 E0= -.13966350E+03  d E =-.423993E-01
       N       E                     dE             d eps       ncg     rms          rms(c)
DAV:   1    -0.138213885051E+03    0.14521E+01   -0.48273E+02  6272   0.979E+01    0.408E+00
DAV:   2    -0.139788819281E+03   -0.15749E+01   -0.18773E+01  7120   0.165E+01    0.309E+00
DAV:   3    -0.139638489897E+03    0.15033E+00   -0.37316E-01  7216   0.264E+00    0.169E+00
DAV:   4    -0.139589598430E+03    0.48891E-01   -0.22389E-01  7152   0.186E+00    0.614E-01
DAV:   5    -0.139583388690E+03    0.62097E-02   -0.36261E-02  7320   0.696E-01    0.315E-01
DAV:   6    -0.139582203805E+03    0.11849E-02   -0.97328E-03  7544   0.468E-01    0.159E-01
DAV:   7    -0.139582013170E+03    0.19063E-03   -0.16429E-03  7408   0.242E-01    0.115E-01
DAV:   8    -0.139581693084E+03    0.32009E-03   -0.18242E-03  8024   0.269E-01    0.811E-02
DAV:   9    -0.139581285746E+03    0.40734E-03   -0.57948E-04  7568   0.156E-01    0.268E-02
DAV:  10    -0.139581085990E+03    0.19976E-03   -0.22835E-04  7432   0.107E-01    0.206E-02
DAV:  11    -0.139580846864E+03    0.23913E-03   -0.86171E-05  8608   0.128E-01    0.220E-02
DAV:  12    -0.139580081205E+03    0.76566E-03   -0.15036E-03 10256   0.618E-01    0.362E-02
DAV:  13    -0.139580134933E+03   -0.53729E-04   -0.10191E-03  7144   0.102E-01    0.357E-02
DAV:  14    -0.139580087137E+03    0.47796E-04   -0.28991E-04  7744   0.988E-02    0.154E-02
DAV:  15    -0.139580068768E+03    0.18369E-04   -0.57680E-05  7096   0.932E-02    0.158E-02
DAV:  16    -0.139580065166E+03    0.36016E-05   -0.86108E-05  6728   0.660E-02
  31 F= -.13958007E+03 E0= -.13957773E+03  d E =0.434898E-01
       N       E                     dE             d eps       ncg     rms          rms(c)
DAV:   1    -0.138730416379E+03    0.84965E+00   -0.37673E+02  6272   0.854E+01    0.325E+00
DAV:   2    -0.139779423226E+03   -0.10490E+01   -0.12410E+01  7072   0.137E+01    0.219E+00
DAV:   3    -0.139699796693E+03    0.79627E-01   -0.20911E-01  7472   0.203E+00    0.125E+00
DAV:   4    -0.139671544199E+03    0.28252E-01   -0.15523E-01  7288   0.170E+00    0.450E-01
DAV:   5    -0.139670098349E+03    0.14458E-02   -0.24256E-02  7168   0.687E-01    0.244E-01
DAV:   6    -0.139670169710E+03   -0.71361E-04   -0.11073E-02  7200   0.407E-01    0.136E-01
DAV:   7    -0.139669923036E+03    0.24667E-03   -0.27005E-03  7144   0.160E-01    0.943E-02
DAV:   8    -0.139669689464E+03    0.23357E-03   -0.69220E-04  7472   0.122E-01    0.515E-02
DAV:   9    -0.139669527034E+03    0.16243E-03   -0.11472E-04  7608   0.109E-01    0.416E-02
DAV:  10    -0.139669419967E+03    0.10707E-03   -0.18658E-04  7368   0.963E-02    0.182E-02
DAV:  11    -0.139669196950E+03    0.22302E-03   -0.16407E-04  9600   0.171E-01    0.191E-02
DAV:  12    -0.139668829966E+03    0.36698E-03   -0.55528E-04 10000   0.376E-01    0.460E-02
DAV:  13    -0.139668816207E+03    0.13759E-04   -0.50963E-04  7248   0.934E-02    0.447E-02
DAV:  14    -0.139668765949E+03    0.50258E-04   -0.27967E-04  7352   0.734E-02    0.163E-02
DAV:  15    -0.139668716935E+03    0.49014E-04   -0.45483E-05  7064   0.131E-01    0.109E-02
DAV:  16    -0.139668693981E+03    0.22954E-04   -0.13094E-04  8272   0.164E-01    0.132E-02
DAV:  17    -0.139668709467E+03   -0.15486E-04   -0.13487E-04  6672   0.378E-02    0.198E-02
DAV:  18    -0.139668705472E+03    0.39945E-05   -0.38778E-06  4256   0.120E-02
  32 F= -.13966871E+03 E0= -.13966642E+03  d E =-.451505E-01
       N       E                     dE             d eps       ncg     rms          rms(c)
DAV:   1    -0.139664484070E+03    0.42254E-02   -0.11986E+01  6384   0.155E+01    0.484E-01
DAV:   2    -0.139690174088E+03   -0.25690E-01   -0.29312E-01  7176   0.219E+00    0.282E-01
DAV:   3    -0.139688464973E+03    0.17091E-02   -0.35887E-03  7360   0.318E-01    0.187E-01
DAV:   4    -0.139687449871E+03    0.10151E-02   -0.29635E-03  7320   0.327E-01    0.851E-02
DAV:   5    -0.139687102263E+03    0.34761E-03   -0.21982E-03  7408   0.244E-01    0.544E-02
DAV:   6    -0.139687033773E+03    0.68490E-04   -0.52377E-04  7296   0.110E-01    0.380E-02
DAV:   7    -0.139686937924E+03    0.95849E-04   -0.10263E-04  7360   0.660E-02    0.188E-02
DAV:   8    -0.139686848784E+03    0.89139E-04   -0.51187E-05  7400   0.971E-02    0.124E-02
DAV:   9    -0.139686756339E+03    0.92445E-04   -0.12353E-04  8736   0.162E-01    0.961E-03
DAV:  10    -0.139686722082E+03    0.34257E-04   -0.10873E-04  7008   0.949E-02    0.844E-03
DAV:  11    -0.139686709175E+03    0.12907E-04   -0.58874E-05  6584   0.685E-02    0.667E-03
DAV:  12    -0.139686704001E+03    0.51743E-05   -0.40523E-05  6416   0.347E-02
  33 F= -.13968670E+03 E0= -.13968455E+03  d E =-.179985E-01
       N       E                     dE             d eps       ncg     rms          rms(c)
DAV:   1    -0.139680786153E+03    0.59230E-02   -0.52639E+00  6368   0.103E+01    0.320E-01
DAV:   2    -0.139691891386E+03   -0.11105E-01   -0.12728E-01  7216   0.145E+00    0.185E-01
DAV:   3    -0.139691128726E+03    0.76266E-03   -0.18780E-03  7344   0.215E-01    0.124E-01
DAV:   4    -0.139690797626E+03    0.33110E-03   -0.11191E-03  7240   0.175E-01    0.717E-02
DAV:   5    -0.139690496133E+03    0.30149E-03   -0.74068E-04  7352   0.181E-01    0.277E-02
DAV:   6    -0.139690466428E+03    0.29705E-04   -0.36912E-04  7328   0.110E-01    0.259E-02
DAV:   7    -0.139690428965E+03    0.37463E-04   -0.74520E-05  6896   0.528E-02    0.151E-02
DAV:   8    -0.139690386776E+03    0.42189E-04   -0.93586E-06  4968   0.585E-02    0.996E-03
DAV:   9    -0.139690324075E+03    0.62700E-04   -0.57900E-05  7568   0.106E-01    0.731E-03
DAV:  10    -0.139690279539E+03    0.44536E-04   -0.72712E-05  7960   0.121E-01    0.135E-02
DAV:  11    -0.139690257705E+03    0.21834E-04   -0.84498E-05  7552   0.108E-01    0.142E-02
DAV:  12    -0.139690254160E+03    0.35451E-05   -0.10148E-04  6864   0.509E-02    0.127E-02
DAV:  13    -0.139690252465E+03    0.16957E-05   -0.13654E-05  4360   0.152E-02
  34 F= -.13969025E+03 E0= -.13968787E+03  d E =-.215470E-01
       N       E                     dE             d eps       ncg     rms          rms(c)
DAV:   1    -0.139694569138E+03   -0.43150E-02   -0.21893E+00  6504   0.654E+00    0.219E-01
DAV:   2    -0.139699335323E+03   -0.47662E-02   -0.59063E-02  7216   0.968E-01    0.143E-01
DAV:   3    -0.139698733050E+03    0.60227E-03   -0.18719E-03  7296   0.175E-01    0.102E-01
DAV:   4    -0.139698541309E+03    0.19174E-03   -0.56806E-04  7400   0.106E-01    0.666E-02
DAV:   5    -0.139698266123E+03    0.27519E-03   -0.40814E-04  7696   0.134E-01    0.272E-02
DAV:   6    -0.139698212202E+03    0.53921E-04   -0.25101E-04  7680   0.107E-01    0.183E-02
DAV:   7    -0.139698175920E+03    0.36282E-04   -0.11006E-04  7320   0.809E-02    0.121E-02
DAV:   8    -0.139698155005E+03    0.20914E-04   -0.29333E-05  6232   0.480E-02    0.915E-03
DAV:   9    -0.139698134007E+03    0.20998E-04   -0.26093E-05  5976   0.530E-02    0.626E-03
DAV:  10    -0.139698126798E+03    0.72087E-05   -0.23894E-05  5712   0.465E-02
  35 F= -.13969813E+03 E0= -.13969556E+03  d E =-.787433E-02
       N       E                     dE             d eps       ncg     rms          rms(c)
DAV:   1    -0.139697986031E+03    0.14798E-03   -0.10748E+00  6456   0.459E+00    0.154E-01
DAV:   2    -0.139700353101E+03   -0.23671E-02   -0.29308E-02  7248   0.680E-01    0.101E-01
DAV:   3    -0.139700051705E+03    0.30140E-03   -0.94155E-04  7288   0.123E-01    0.720E-02
DAV:   4    -0.139699960090E+03    0.91614E-04   -0.26400E-04  7416   0.716E-02    0.479E-02
DAV:   5    -0.139699827106E+03    0.13298E-03   -0.19443E-04  7440   0.940E-02    0.194E-02
DAV:   6    -0.139699801098E+03    0.26007E-04   -0.12211E-04  7688   0.754E-02    0.125E-02
DAV:   7    -0.139699783493E+03    0.17606E-04   -0.53492E-05  6584   0.603E-02    0.809E-03
DAV:   8    -0.139699773910E+03    0.95830E-05   -0.17785E-05  5608   0.363E-02
  36 F= -.13969977E+03 E0= -.13969713E+03  d E =-.952145E-02
       N       E                     dE             d eps       ncg     rms          rms(c)
DAV:   1    -0.139703081568E+03   -0.32981E-02   -0.28291E-01  6408   0.238E+00    0.870E-02
DAV:   2    -0.139703600375E+03   -0.51881E-03   -0.81634E-03  7224   0.351E-01    0.638E-02
DAV:   3    -0.139703343679E+03    0.25670E-03   -0.74347E-04  7264   0.828E-02    0.374E-02
DAV:   4    -0.139703304218E+03    0.39461E-04   -0.84571E-05  7392   0.490E-02    0.263E-02
DAV:   5    -0.139703259533E+03    0.44685E-04   -0.29488E-05  6256   0.490E-02    0.149E-02
DAV:   6    -0.139703224744E+03    0.34790E-04   -0.70362E-05  7176   0.701E-02    0.622E-03
DAV:   7    -0.139703217909E+03    0.68344E-05   -0.59561E-05  6944   0.443E-02
  37 F= -.13970322E+03 E0= -.13970055E+03  d E =-.344400E-02
       N       E                     dE             d eps       ncg     rms          rms(c)
DAV:   1    -0.139704950394E+03   -0.17256E-02   -0.98134E-01  6408   0.444E+00    0.162E-01
DAV:   2    -0.139706574608E+03   -0.16242E-02   -0.27732E-02  7248   0.663E-01    0.115E-01
DAV:   3    -0.139705802757E+03    0.77185E-03   -0.23568E-03  7320   0.165E-01    0.708E-02
DAV:   4    -0.139705651270E+03    0.15149E-03   -0.30575E-04  7448   0.914E-02    0.507E-02
DAV:   5    -0.139705450756E+03    0.20051E-03   -0.11059E-04  7312   0.959E-02    0.299E-02
DAV:   6    -0.139705269934E+03    0.18082E-03   -0.31941E-04  7776   0.156E-01    0.144E-02
DAV:   7    -0.139705233393E+03    0.36541E-04   -0.28479E-04  7400   0.101E-01    0.158E-02
DAV:   8    -0.139705205600E+03    0.27793E-04   -0.49867E-05  7136   0.373E-02    0.861E-03
DAV:   9    -0.139705168365E+03    0.37235E-04   -0.42525E-05  6496   0.569E-02    0.136E-02
DAV:  10    -0.139705150661E+03    0.17704E-04   -0.40598E-05  6784   0.582E-02    0.815E-03
DAV:  11    -0.139705147169E+03    0.34914E-05   -0.45560E-05  6376   0.347E-02
  38 F= -.13970515E+03 E0= -.13970253E+03  d E =-.537326E-02
       N       E                     dE             d eps       ncg     rms          rms(c)
DAV:   1    -0.139706998091E+03   -0.18474E-02   -0.11148E-01  6384   0.149E+00    0.601E-02
DAV:   2    -0.139707227342E+03   -0.22925E-03   -0.34795E-03  7248   0.226E-01    0.368E-02
DAV:   3    -0.139707152170E+03    0.75172E-04   -0.26589E-04  7144   0.476E-02    0.233E-02
DAV:   4    -0.139707138537E+03    0.13633E-04   -0.23910E-05  5544   0.264E-02    0.169E-02
DAV:   5    -0.139707119609E+03    0.18928E-04   -0.19544E-05  5232   0.434E-02    0.667E-03
DAV:   6    -0.139707112827E+03    0.67827E-05   -0.25168E-05  5832   0.401E-02
  39 F= -.13970711E+03 E0= -.13970449E+03  d E =-.196566E-02
       N       E                     dE             d eps       ncg     rms          rms(c)
DAV:   1    -0.139708801147E+03   -0.16815E-02   -0.10035E+00  6408   0.446E+00    0.180E-01
DAV:   2    -0.139710903468E+03   -0.21023E-02   -0.30777E-02  7216   0.678E-01    0.111E-01
DAV:   3    -0.139710308425E+03    0.59504E-03   -0.21004E-03  7192   0.135E-01    0.723E-02
DAV:   4    -0.139710205156E+03    0.10327E-03   -0.25055E-04  7448   0.778E-02    0.514E-02
DAV:   5    -0.139710086104E+03    0.11905E-03   -0.12928E-04  7448   0.944E-02    0.221E-02
DAV:   6    -0.139710034175E+03    0.51928E-04   -0.15839E-04  8272   0.104E-01    0.884E-03
DAV:   7    -0.139710029709E+03    0.44668E-05   -0.94384E-05  7024   0.496E-02
  40 F= -.13971003E+03 E0= -.13970735E+03  d E =-.488254E-02
       N       E                     dE             d eps       ncg     rms          rms(c)
DAV:   1    -0.139712478931E+03   -0.24448E-02   -0.11074E-01  6408   0.145E+00    0.504E-02
DAV:   2    -0.139712661102E+03   -0.18217E-03   -0.27558E-03  7392   0.217E-01    0.353E-02
DAV:   3    -0.139712615231E+03    0.45871E-04   -0.71680E-05  7160   0.509E-02    0.259E-02
DAV:   4    -0.139712594669E+03    0.20561E-04   -0.40168E-05  6376   0.323E-02    0.171E-02
DAV:   5    -0.139712548864E+03    0.45805E-04   -0.36591E-05  6536   0.556E-02    0.711E-03
DAV:   6    -0.139712527530E+03    0.21334E-04   -0.38180E-05  6736   0.411E-02    0.524E-03
DAV:   7    -0.139712511535E+03    0.15995E-04   -0.14254E-05  4984   0.326E-02    0.593E-03
DAV:   8    -0.139712497490E+03    0.14045E-04   -0.12530E-05  4976   0.391E-02    0.479E-03
DAV:   9    -0.139712485664E+03    0.11826E-04   -0.24894E-05  5952   0.565E-02    0.400E-03
DAV:  10    -0.139712483172E+03    0.24916E-05   -0.22429E-05  5384   0.269E-02
  41 F= -.13971248E+03 E0= -.13970977E+03  d E =-.245346E-02
       N       E                     dE             d eps       ncg     rms          rms(c)
DAV:   1    -0.139715060156E+03   -0.25745E-02   -0.92474E-01  6384   0.419E+00    0.145E-01
DAV:   2    -0.139716747881E+03   -0.16877E-02   -0.22983E-02  7376   0.627E-01    0.102E-01
DAV:   3    -0.139716459254E+03    0.28863E-03   -0.55475E-04  7568   0.125E-01    0.753E-02
DAV:   4    -0.139716329648E+03    0.12961E-03   -0.28543E-04  7288   0.801E-02    0.477E-02
DAV:   5    -0.139716082328E+03    0.24732E-03   -0.30362E-04  7552   0.137E-01    0.164E-02
DAV:   6    -0.139716012264E+03    0.70064E-04   -0.17810E-04  7504   0.679E-02    0.139E-02
DAV:   7    -0.139715898319E+03    0.11395E-03   -0.11492E-04  7464   0.828E-02    0.233E-02
DAV:   8    -0.139715854548E+03    0.43770E-04   -0.52196E-05  6960   0.549E-02    0.178E-02
DAV:   9    -0.139715784341E+03    0.70208E-04   -0.54760E-05  7336   0.826E-02    0.804E-03
DAV:  10    -0.139715659057E+03    0.12528E-03   -0.11142E-04  8488   0.181E-01    0.102E-02
DAV:  11    -0.139715614333E+03    0.44723E-04   -0.14343E-04  7416   0.121E-01    0.914E-03
DAV:  12    -0.139715591780E+03    0.22553E-04   -0.71384E-05  7768   0.107E-01    0.112E-02
DAV:  13    -0.139715584649E+03    0.71307E-05   -0.91540E-05  6536   0.743E-02
  42 F= -.13971558E+03 E0= -.13971280E+03  d E =-.555494E-02
       N       E                     dE             d eps       ncg     rms          rms(c)
DAV:   1    -0.139717174627E+03   -0.15828E-02   -0.94257E-02  6376   0.137E+00    0.480E-02
DAV:   2    -0.139717394981E+03   -0.22035E-03   -0.26145E-03  7176   0.202E-01    0.299E-02
DAV:   3    -0.139717372877E+03    0.22104E-04   -0.34098E-05  6616   0.349E-02    0.214E-02
DAV:   4    -0.139717351440E+03    0.21437E-04   -0.61423E-05  7080   0.454E-02    0.931E-03
DAV:   5    -0.139717348924E+03    0.25155E-05   -0.23165E-05  5560   0.244E-02    0.845E-03
DAV:   6    -0.139717345645E+03    0.32792E-05   -0.10627E-05  4216   0.199E-02
  43 F= -.13971735E+03 E0= -.13971456E+03  d E =-.176100E-02
       N       E                     dE             d eps       ncg     rms          rms(c)
DAV:   1    -0.139719263961E+03   -0.19150E-02   -0.84672E-01  6400   0.410E+00    0.140E-01
DAV:   2    -0.139721262135E+03   -0.19982E-02   -0.23051E-02  7176   0.600E-01    0.871E-02
DAV:   3    -0.139721088151E+03    0.17398E-03   -0.29886E-04  7552   0.971E-02    0.620E-02
DAV:   4    -0.139720931728E+03    0.15642E-03   -0.46707E-04  7480   0.115E-01    0.264E-02
DAV:   5    -0.139720903820E+03    0.27909E-04   -0.14665E-04  7424   0.577E-02    0.215E-02
DAV:   6    -0.139720870026E+03    0.33793E-04   -0.86515E-05  7344   0.582E-02    0.939E-03
DAV:   7    -0.139720838169E+03    0.31857E-04   -0.33356E-05  6160   0.451E-02    0.112E-02
DAV:   8    -0.139720821657E+03    0.16512E-04   -0.25231E-05  5728   0.308E-02    0.896E-03
DAV:   9    -0.139720790694E+03    0.30963E-04   -0.20951E-05  5368   0.413E-02    0.678E-03
DAV:  10    -0.139720755475E+03    0.35219E-04   -0.32779E-05  6496   0.755E-02    0.746E-03
DAV:  11    -0.139720738917E+03    0.16558E-04   -0.54084E-05  7240   0.739E-02    0.583E-03
DAV:  12    -0.139720729455E+03    0.94615E-05   -0.23174E-05  5504   0.532E-02
  44 F= -.13972073E+03 E0= -.13971793E+03  d E =-.514481E-02
       N       E                     dE             d eps       ncg     rms          rms(c)
DAV:   1    -0.139712936139E+03    0.78028E-02   -0.33901E+00  6392   0.821E+00    0.279E-01
DAV:   2    -0.139720932898E+03   -0.79968E-02   -0.91465E-02  7176   0.120E+00    0.170E-01
DAV:   3    -0.139720282795E+03    0.65010E-03   -0.11075E-03  7600   0.187E-01    0.121E-01
DAV:   4    -0.139719717382E+03    0.56541E-03   -0.18613E-03  7464   0.237E-01    0.500E-02
DAV:   5    -0.139719642496E+03    0.74886E-04   -0.56401E-04  7376   0.113E-01    0.406E-02
DAV:   6    -0.139719528790E+03    0.11371E-03   -0.28778E-04  7760   0.101E-01    0.157E-02
DAV:   7    -0.139719428474E+03    0.10032E-03   -0.89402E-05  8048   0.820E-02    0.180E-02
DAV:   8    -0.139719346652E+03    0.81821E-04   -0.78550E-05  7544   0.703E-02    0.114E-02
DAV:   9    -0.139719253052E+03    0.93601E-04   -0.61071E-05  7096   0.833E-02    0.148E-02
DAV:  10    -0.139719147132E+03    0.10592E-03   -0.85879E-05  7992   0.139E-01    0.118E-02
DAV:  11    -0.139719081289E+03    0.65843E-04   -0.15138E-04  8832   0.152E-01    0.962E-03
DAV:  12    -0.139719059269E+03    0.22020E-04   -0.11618E-04  7192   0.923E-02    0.931E-03
DAV:  13    -0.139719046481E+03    0.12788E-04   -0.44850E-05  6560   0.556E-02    0.593E-03
DAV:  14    -0.139719031854E+03    0.14626E-04   -0.98439E-06  4760   0.611E-02    0.564E-03
DAV:  15    -0.139719020448E+03    0.11406E-04   -0.22278E-05  5720   0.799E-02    0.825E-03
DAV:  16    -0.139719020669E+03   -0.22093E-06   -0.43028E-05  6352   0.403E-02
  45 F= -.13971902E+03 E0= -.13971625E+03  d E =-.343602E-02
       N       E                     dE             d eps       ncg     rms          rms(c)
DAV:   1    -0.139718849272E+03    0.17118E-03   -0.14223E+00  6400   0.533E+00    0.180E-01
DAV:   2    -0.139722178179E+03   -0.33289E-02   -0.38282E-02  7192   0.784E-01    0.114E-01
DAV:   3    -0.139721887309E+03    0.29087E-03   -0.48429E-04  7592   0.126E-01    0.806E-02
DAV:   4    -0.139721654065E+03    0.23324E-03   -0.84448E-04  7408   0.152E-01    0.341E-02
DAV:   5    -0.139721620750E+03    0.33316E-04   -0.22381E-04  7432   0.731E-02    0.283E-02
DAV:   6    -0.139721573322E+03    0.47427E-04   -0.15546E-04  7904   0.761E-02    0.111E-02
DAV:   7    -0.139721538828E+03    0.34494E-04   -0.48570E-05  6968   0.498E-02    0.126E-02
DAV:   8    -0.139721519634E+03    0.19194E-04   -0.28911E-05  5680   0.308E-02    0.862E-03
DAV:   9    -0.139721481627E+03    0.38007E-04   -0.25289E-05  5584   0.452E-02    0.856E-03
DAV:  10    -0.139721446502E+03    0.35126E-04   -0.31825E-05  6400   0.713E-02    0.842E-03
DAV:  11    -0.139721422751E+03    0.23751E-04   -0.68794E-05  7592   0.937E-02    0.724E-03
DAV:  12    -0.139721409141E+03    0.13610E-04   -0.29913E-05  5968   0.653E-02    0.348E-03
DAV:  13    -0.139721403250E+03    0.58911E-05   -0.20688E-05  5376   0.445E-02
  46 F= -.13972140E+03 E0= -.13971860E+03  d E =-.581860E-02
       N       E                     dE             d eps       ncg     rms          rms(c)
DAV:   1    -0.139723054890E+03   -0.16457E-02   -0.13370E-01  6520   0.162E+00    0.582E-02
DAV:   2    -0.139723333832E+03   -0.27894E-03   -0.36801E-03  7328   0.246E-01    0.359E-02
DAV:   3    -0.139723306722E+03    0.27110E-04   -0.14378E-04  7408   0.518E-02    0.281E-02
DAV:   4    -0.139723294563E+03    0.12159E-04   -0.28258E-05  5512   0.206E-02    0.193E-02
DAV:   5    -0.139723278223E+03    0.16340E-04   -0.52227E-05  6776   0.332E-02    0.900E-03
DAV:   6    -0.139723276421E+03    0.18020E-05   -0.13100E-05  4512   0.200E-02
  47 F= -.13972328E+03 E0= -.13972048E+03  d E =-.187317E-02
       N       E                     dE             d eps       ncg     rms          rms(c)
DAV:   1    -0.139723703071E+03   -0.42485E-03   -0.12018E+00  6472   0.485E+00    0.174E-01
DAV:   2    -0.139726172318E+03   -0.24692E-02   -0.32658E-02  7328   0.725E-01    0.105E-01
DAV:   3    -0.139725917633E+03    0.25468E-03   -0.11772E-03  7408   0.150E-01    0.825E-02
DAV:   4    -0.139725806072E+03    0.11156E-03   -0.25332E-04  7280   0.621E-02    0.562E-02
DAV:   5    -0.139725648084E+03    0.15799E-03   -0.44507E-04  7264   0.103E-01    0.251E-02
DAV:   6    -0.139725632994E+03    0.15090E-04   -0.13221E-04  7496   0.601E-02    0.183E-02
DAV:   7    -0.139725630073E+03    0.29204E-05   -0.14553E-04  7192   0.644E-02    0.154E-02
DAV:   8    -0.139725623165E+03    0.69088E-05   -0.41521E-05  6504   0.314E-02
  48 F= -.13972562E+03 E0= -.13972288E+03  d E =-.421992E-02
       N       E                     dE             d eps       ncg     rms          rms(c)
DAV:   1    -0.139727188241E+03   -0.15582E-02   -0.81784E-02  6336   0.125E+00    0.395E-02
DAV:   2    -0.139727330099E+03   -0.14186E-03   -0.16114E-03  7328   0.168E-01    0.232E-02
DAV:   3    -0.139727317606E+03    0.12493E-04   -0.18624E-05  5336   0.272E-02    0.159E-02
DAV:   4    -0.139727310562E+03    0.70440E-05   -0.37762E-05  6600   0.368E-02    0.648E-03
DAV:   5    -0.139727309445E+03    0.11173E-05   -0.17750E-05  4304   0.186E-02    0.623E-03
DAV:   6    -0.139727309487E+03   -0.42051E-07   -0.21022E-06  3728   0.595E-03
  49 F= -.13972731E+03 E0= -.13972457E+03  d E =-.168632E-02
       N       E                     dE             d eps       ncg     rms          rms(c)
DAV:   1    -0.139730287397E+03   -0.29780E-02   -0.73552E-01  6328   0.376E+00    0.118E-01
DAV:   2    -0.139731559504E+03   -0.12721E-02   -0.14380E-02  7320   0.500E-01    0.689E-02
DAV:   3    -0.139731450201E+03    0.10930E-03   -0.16102E-04  7576   0.807E-02    0.471E-02
DAV:   4    -0.139731382834E+03    0.67367E-04   -0.32756E-04  7448   0.115E-01    0.175E-02
DAV:   5    -0.139731382578E+03    0.25599E-06   -0.16825E-04  7328   0.520E-02    0.205E-02
DAV:   6    -0.139731380147E+03    0.24305E-05   -0.49299E-06  4192   0.108E-02
  50 F= -.13973138E+03 E0= -.13972863E+03  d E =-.575698E-02
       N       E                     dE             d eps       ncg     rms          rms(c)
DAV:   1    -0.139730695210E+03    0.68737E-03   -0.29411E+00  6320   0.752E+00    0.233E-01
DAV:   2    -0.139735796054E+03   -0.51008E-02   -0.57483E-02  7360   0.999E-01    0.139E-01
DAV:   3    -0.139735355350E+03    0.44070E-03   -0.68478E-04  7560   0.166E-01    0.942E-02
DAV:   4    -0.139735096519E+03    0.25883E-03   -0.12108E-03  7552   0.218E-01    0.366E-02
DAV:   5    -0.139735081164E+03    0.15355E-04   -0.64047E-04  7336   0.102E-01    0.387E-02
DAV:   6    -0.139735065543E+03    0.15620E-04   -0.32727E-05  6104   0.292E-02    0.286E-02
DAV:   7    -0.139735056373E+03    0.91698E-05   -0.21311E-04  7104   0.558E-02    0.182E-02
DAV:   8    -0.139735051211E+03    0.51629E-05   -0.11158E-05  4488   0.228E-02
  51 F= -.13973505E+03 E0= -.13973228E+03  d E =-.942805E-02
       N       E                     dE             d eps       ncg     rms          rms(c)
DAV:   1    -0.139736729471E+03   -0.16731E-02   -0.45632E-01  6608   0.296E+00    0.988E-02
DAV:   2    -0.139737395272E+03   -0.66580E-03   -0.10348E-02  7408   0.450E-01    0.660E-02
DAV:   3    -0.139737298786E+03    0.96485E-04   -0.42117E-04  7360   0.904E-02    0.528E-02
DAV:   4    -0.139737241438E+03    0.57348E-04   -0.12428E-04  7216   0.472E-02    0.319E-02
DAV:   5    -0.139737179513E+03    0.61925E-04   -0.20330E-04  7224   0.711E-02    0.202E-02
DAV:   6    -0.139737173441E+03    0.60723E-05   -0.52672E-05  7016   0.368E-02
  52 F= -.13973717E+03 E0= -.13973438E+03  d E =-.212223E-02
       N       E                     dE             d eps       ncg     rms          rms(c)
DAV:   1    -0.139737201502E+03   -0.21989E-04   -0.16482E-02  6816   0.565E-01    0.230E-02
DAV:   2    -0.139737223504E+03   -0.22002E-04   -0.49064E-04  7432   0.103E-01    0.172E-02
DAV:   3    -0.139737216774E+03    0.67300E-05   -0.29312E-05  5776   0.280E-02    0.143E-02
DAV:   4    -0.139737208711E+03    0.80627E-05   -0.11733E-05  4280   0.194E-02    0.734E-03
DAV:   5    -0.139737200403E+03    0.83082E-05   -0.16646E-05  5024   0.356E-02    0.740E-03
DAV:   6    -0.139737199773E+03    0.63056E-06   -0.13002E-05  4104   0.169E-02
  53 F= -.13973720E+03 E0= -.13973441E+03  d E =-.214856E-02
       N       E                     dE             d eps       ncg     rms          rms(c)
DAV:   1    -0.139737555843E+03   -0.35544E-03   -0.96243E-02  6592   0.138E+00    0.415E-02
DAV:   2    -0.139737734750E+03   -0.17891E-03   -0.21228E-03  7232   0.189E-01    0.249E-02
DAV:   3    -0.139737719591E+03    0.15159E-04   -0.28516E-05  5832   0.286E-02    0.169E-02
DAV:   4    -0.139737713270E+03    0.63204E-05   -0.26403E-05  4992   0.254E-02    0.877E-03
DAV:   5    -0.139737710014E+03    0.32563E-05   -0.16564E-05  4512   0.189E-02    0.405E-03
DAV:   6    -0.139737709826E+03    0.18780E-06   -0.28057E-06  3832   0.815E-03
  54 F= -.13973771E+03 E0= -.13973492E+03  d E =-.510054E-03
       N       E                     dE             d eps       ncg     rms          rms(c)
DAV:   1    -0.139737159140E+03    0.55087E-03   -0.68153E-01  6576   0.367E+00    0.108E-01
DAV:   2    -0.139738416675E+03   -0.12575E-02   -0.14856E-02  7224   0.502E-01    0.663E-02
DAV:   3    -0.139738303245E+03    0.11343E-03   -0.20603E-04  7472   0.780E-02    0.447E-02
DAV:   4    -0.139738253327E+03    0.49917E-04   -0.17278E-04  7296   0.695E-02    0.248E-02
DAV:   5    -0.139738218976E+03    0.34351E-04   -0.10711E-04  7280   0.582E-02    0.917E-03
DAV:   6    -0.139738215899E+03    0.30776E-05   -0.29542E-05  6168   0.308E-02
  55 F= -.13973822E+03 E0= -.13973545E+03  d E =-.101613E-02
       N       E                     dE             d eps       ncg     rms          rms(c)
DAV:   1    -0.139738538635E+03   -0.31966E-03   -0.53609E-02  6344   0.104E+00    0.343E-02
DAV:   2    -0.139738646649E+03   -0.10801E-03   -0.12818E-03  7216   0.148E-01    0.185E-02
DAV:   3    -0.139738638924E+03    0.77248E-05   -0.20290E-05  5016   0.213E-02    0.128E-02
DAV:   4    -0.139738635422E+03    0.35017E-05   -0.11577E-05  4336   0.169E-02    0.770E-03
DAV:   5    -0.139738631867E+03    0.35552E-05   -0.10531E-05  4376   0.210E-02    0.327E-03
DAV:   6    -0.139738631724E+03    0.14313E-06   -0.47732E-06  3904   0.112E-02
  56 F= -.13973863E+03 E0= -.13973587E+03  d E =-.415825E-03
       N       E                     dE             d eps       ncg     rms          rms(c)
DAV:   1    -0.139738425929E+03    0.20594E-03   -0.48286E-01  6312   0.312E+00    0.101E-01
DAV:   2    -0.139739419806E+03   -0.99388E-03   -0.11723E-02  7224   0.448E-01    0.554E-02
DAV:   3    -0.139739359324E+03    0.60483E-04   -0.20781E-04  7552   0.613E-02    0.399E-02
DAV:   4    -0.139739330664E+03    0.28660E-04   -0.92843E-05  7200   0.390E-02    0.228E-02
DAV:   5    -0.139739308930E+03    0.21734E-04   -0.84744E-05  7248   0.427E-02    0.125E-02
DAV:   6    -0.139739307333E+03    0.15976E-05   -0.21644E-05  4648   0.237E-02
  57 F= -.13973931E+03 E0= -.13973660E+03  d E =-.109143E-02
       N       E                     dE             d eps       ncg     rms          rms(c)
DAV:   1    -0.139739269574E+03    0.39356E-04   -0.34153E-02  6304   0.831E-01    0.283E-02
DAV:   2    -0.139739343041E+03   -0.73467E-04   -0.87551E-04  7240   0.123E-01    0.162E-02
DAV:   3    -0.139739337526E+03    0.55148E-05   -0.12504E-05  4520   0.175E-02    0.116E-02
DAV:   4    -0.139739333773E+03    0.37524E-05   -0.15701E-05  4400   0.187E-02    0.510E-03
DAV:   5    -0.139739331985E+03    0.17882E-05   -0.78201E-06  4144   0.134E-02    0.509E-03
DAV:   6    -0.139739331636E+03    0.34901E-06   -0.22192E-06  3792   0.747E-03
  58 F= -.13973933E+03 E0= -.13973664E+03  d E =-.111574E-02
       N       E                     dE             d eps       ncg     rms          rms(c)
DAV:   1    -0.139739670990E+03   -0.33901E-03   -0.15206E-01  6448   0.174E+00    0.536E-02
DAV:   2    -0.139739960978E+03   -0.28999E-03   -0.34632E-03  7208   0.245E-01    0.308E-02
DAV:   3    -0.139739939261E+03    0.21717E-04   -0.57775E-05  7408   0.376E-02    0.215E-02
DAV:   4    -0.139739929164E+03    0.10097E-04   -0.38267E-05  6296   0.289E-02    0.115E-02
DAV:   5    -0.139739923202E+03    0.59622E-05   -0.20990E-05  4624   0.225E-02    0.565E-03
DAV:   6    -0.139739922899E+03    0.30316E-06   -0.62931E-06  4008   0.132E-02
  59 F= -.13973992E+03 E0= -.13973727E+03  d E =-.591263E-03
       N       E                     dE             d eps       ncg     rms          rms(c)
DAV:   1    -0.139739546015E+03    0.37719E-03   -0.44361E-01  6432   0.298E+00    0.916E-02
DAV:   2    -0.139740395153E+03   -0.84914E-03   -0.10168E-02  7216   0.420E-01    0.533E-02
DAV:   3    -0.139740329344E+03    0.65809E-04   -0.17374E-04  7552   0.668E-02    0.374E-02
DAV:   4    -0.139740296129E+03    0.33215E-04   -0.11736E-04  7280   0.502E-02    0.192E-02
DAV:   5    -0.139740277210E+03    0.18919E-04   -0.56034E-05  6856   0.403E-02    0.101E-02
DAV:   6    -0.139740275111E+03    0.20989E-05   -0.20380E-05  4472   0.255E-02
  60 F= -.13974028E+03 E0= -.13973768E+03  d E =-.943475E-03
       N       E                     dE             d eps       ncg     rms          rms(c)
DAV:   1    -0.139740497536E+03   -0.22033E-03   -0.10283E-01  6312   0.142E+00    0.442E-02
DAV:   2    -0.139740689921E+03   -0.19239E-03   -0.23032E-03  7280   0.198E-01    0.257E-02
DAV:   3    -0.139740673133E+03    0.16788E-04   -0.32083E-05  5992   0.289E-02    0.171E-02
DAV:   4    -0.139740662771E+03    0.10363E-04   -0.36665E-05  5800   0.286E-02    0.784E-03
DAV:   5    -0.139740657749E+03    0.50221E-05   -0.15474E-05  4648   0.195E-02    0.570E-03
DAV:   6    -0.139740655714E+03    0.20343E-05   -0.58843E-06  4168   0.148E-02
  61 F= -.13974066E+03 E0= -.13973808E+03  d E =-.380603E-03
       N       E                     dE             d eps       ncg     rms          rms(c)
DAV:   1    -0.139740387424E+03    0.27032E-03   -0.28750E-01  6312   0.237E+00    0.729E-02
DAV:   2    -0.139740916962E+03   -0.52954E-03   -0.63965E-03  7296   0.332E-01    0.411E-02
DAV:   3    -0.139740871320E+03    0.45642E-04   -0.96427E-05  7504   0.491E-02    0.280E-02
DAV:   4    -0.139740839941E+03    0.31379E-04   -0.80575E-05  7328   0.447E-02    0.133E-02
DAV:   5    -0.139740823252E+03    0.16689E-04   -0.42981E-05  5960   0.393E-02    0.930E-03
DAV:   6    -0.139740820017E+03    0.32350E-05   -0.19828E-05  4544   0.226E-02
  62 F= -.13974082E+03 E0= -.13973828E+03  d E =-.544906E-03
       N       E                     dE             d eps       ncg     rms          rms(c)
DAV:   1    -0.139740865147E+03   -0.41895E-04   -0.15794E-01  6352   0.176E+00    0.542E-02
DAV:   2    -0.139741189421E+03   -0.32427E-03   -0.35754E-03  7176   0.243E-01    0.282E-02
DAV:   3    -0.139741171333E+03    0.18088E-04   -0.35456E-05  6432   0.300E-02    0.189E-02
DAV:   4    -0.139741160283E+03    0.11049E-04   -0.48416E-05  7072   0.373E-02    0.691E-03
DAV:   5    -0.139741159691E+03    0.59167E-06   -0.17514E-05  4288   0.174E-02    0.667E-03
DAV:   6    -0.139741159356E+03    0.33529E-06   -0.27982E-06  3752   0.769E-03
  63 F= -.13974116E+03 E0= -.13973863E+03  d E =-.339339E-03
       N       E                     dE             d eps       ncg     rms          rms(c)
DAV:   1    -0.139740002317E+03    0.11574E-02   -0.78723E-01  6360   0.392E+00    0.117E-01
DAV:   2    -0.139741617337E+03   -0.16150E-02   -0.17636E-02  7152   0.541E-01    0.642E-02
DAV:   3    -0.139741525477E+03    0.91860E-04   -0.15909E-04  7568   0.688E-02    0.435E-02
DAV:   4    -0.139741458320E+03    0.67157E-04   -0.28063E-04  7384   0.101E-01    0.148E-02
DAV:   5    -0.139741463083E+03   -0.47622E-05   -0.10587E-04  6936   0.439E-02    0.162E-02
DAV:   6    -0.139741460545E+03    0.25379E-05   -0.99628E-06  3952   0.144E-02
  64 F= -.13974146E+03 E0= -.13973897E+03  d E =-.640528E-03
       N       E                     dE             d eps       ncg     rms          rms(c)
DAV:   1    -0.139741155978E+03    0.30710E-03   -0.40502E-01  6336   0.278E+00    0.879E-02
DAV:   2    -0.139742064054E+03   -0.90808E-03   -0.10091E-02  7120   0.390E-01    0.485E-02
DAV:   3    -0.139742006416E+03    0.57638E-04   -0.10717E-04  7464   0.524E-02    0.339E-02
DAV:   4    -0.139741953940E+03    0.52476E-04   -0.10048E-04  7296   0.595E-02    0.122E-02
DAV:   5    -0.139741944194E+03    0.97467E-05   -0.57275E-05  7120   0.384E-02    0.906E-03
DAV:   6    -0.139741937323E+03    0.68706E-05   -0.18138E-05  4576   0.226E-02
  65 F= -.13974194E+03 E0= -.13973948E+03  d E =-.476778E-03
       N       E                     dE             d eps       ncg     rms          rms(c)
DAV:   1    -0.139741550897E+03    0.39330E-03   -0.23275E-01  6336   0.211E+00    0.655E-02
DAV:   2    -0.139742062443E+03   -0.51155E-03   -0.57686E-03  7144   0.295E-01    0.366E-02
DAV:   3    -0.139742024392E+03    0.38051E-04   -0.59083E-05  7472   0.393E-02    0.257E-02
DAV:   4    -0.139741983579E+03    0.40813E-04   -0.59710E-05  7048   0.485E-02    0.917E-03
DAV:   5    -0.139741972776E+03    0.10802E-04   -0.38069E-05  6736   0.338E-02    0.670E-03
DAV:   6    -0.139741965059E+03    0.77175E-05   -0.12450E-05  4376   0.203E-02
  66 F= -.13974197E+03 E0= -.13973954E+03  d E =-.504514E-03
       N       E                     dE             d eps       ncg     rms          rms(c)
DAV:   1    -0.139741871349E+03    0.10143E-03   -0.25895E-01  6272   0.226E+00    0.669E-02
DAV:   2    -0.139742403061E+03   -0.53171E-03   -0.59236E-03  7160   0.309E-01    0.385E-02
DAV:   3    -0.139742373144E+03    0.29917E-04   -0.68780E-05  7392   0.423E-02    0.262E-02
DAV:   4    -0.139742353869E+03    0.19275E-04   -0.50929E-05  6920   0.388E-02    0.113E-02
DAV:   5    -0.139742348031E+03    0.58382E-05   -0.25777E-05  4824   0.285E-02    0.653E-03
DAV:   6    -0.139742346588E+03    0.14430E-05   -0.11477E-05  4104   0.192E-02
  67 F= -.13974235E+03 E0= -.13973993E+03  d E =-.381529E-03
       N       E                     dE             d eps       ncg     rms          rms(c)
DAV:   1    -0.139742217636E+03    0.13040E-03   -0.11088E-01  6288   0.148E+00    0.454E-02
DAV:   2    -0.139742444255E+03   -0.22662E-03   -0.25590E-03  7184   0.204E-01    0.252E-02
DAV:   3    -0.139742429866E+03    0.14389E-04   -0.30595E-05  5976   0.297E-02    0.172E-02
DAV:   4    -0.139742419675E+03    0.10192E-04   -0.24011E-05  5056   0.291E-02    0.741E-03
DAV:   5    -0.139742416184E+03    0.34913E-05   -0.16570E-05  4360   0.239E-02    0.510E-03
DAV:   6    -0.139742415485E+03    0.69806E-06   -0.71652E-06  3976   0.144E-02
  68 F= -.13974242E+03 E0= -.13974001E+03  d E =-.450426E-03
       N       E                     dE             d eps       ncg     rms          rms(c)
DAV:   1    -0.139742755537E+03   -0.33935E-03   -0.12110E-01  6272   0.152E+00    0.495E-02
DAV:   2    -0.139742932762E+03   -0.17722E-03   -0.25109E-03  7384   0.210E-01    0.270E-02
DAV:   3    -0.139742905738E+03    0.27024E-04   -0.65176E-05  7400   0.357E-02    0.192E-02
DAV:   4    -0.139742885688E+03    0.20050E-04   -0.27278E-05  4832   0.226E-02    0.109E-02
DAV:   5    -0.139742866025E+03    0.19663E-04   -0.40272E-05  6408   0.378E-02    0.754E-03
DAV:   6    -0.139742863170E+03    0.28549E-05   -0.16016E-05  4864   0.173E-02
  69 F= -.13974286E+03 E0= -.13974045E+03  d E =-.447684E-03
       N       E                     dE             d eps       ncg     rms          rms(c)
DAV:   1    -0.139742876480E+03   -0.10455E-04   -0.17496E-02  6352   0.578E-01    0.204E-02
DAV:   2    -0.139742897822E+03   -0.21342E-04   -0.39344E-04  7384   0.815E-02    0.106E-02
DAV:   3    -0.139742888431E+03    0.93909E-05   -0.10385E-05  4760   0.164E-02    0.722E-03
DAV:   4    -0.139742881159E+03    0.72725E-05   -0.60261E-06  4288   0.129E-02    0.482E-03
DAV:   5    -0.139742864792E+03    0.16367E-04   -0.90973E-06  4912   0.329E-02    0.381E-03
DAV:   6    -0.139742855459E+03    0.93330E-05   -0.12999E-05  5056   0.301E-02
  70 F= -.13974286E+03 E0= -.13974044E+03  d E =-.439974E-03
       N       E                     dE             d eps       ncg     rms          rms(c)
DAV:   1    -0.139742577570E+03    0.28722E-03   -0.35214E-01  6360   0.261E+00    0.785E-02
DAV:   2    -0.139743286505E+03   -0.70894E-03   -0.80793E-03  7128   0.366E-01    0.443E-02
DAV:   3    -0.139743232337E+03    0.54169E-04   -0.13868E-04  7440   0.614E-02    0.307E-02
DAV:   4    -0.139743198687E+03    0.33650E-04   -0.69628E-05  7216   0.445E-02    0.159E-02
DAV:   5    -0.139743173588E+03    0.25099E-04   -0.44222E-05  6776   0.508E-02    0.774E-03
DAV:   6    -0.139743169834E+03    0.37540E-05   -0.30773E-05  5936   0.326E-02
  71 F= -.13974317E+03 E0= -.13974075E+03  d E =-.314375E-03
       N       E                     dE             d eps       ncg     rms          rms(c)
DAV:   1    -0.139743149084E+03    0.24504E-04   -0.10776E-02  6600   0.459E-01    0.151E-02
DAV:   2    -0.139743168834E+03   -0.19750E-04   -0.28070E-04  7184   0.725E-02    0.986E-03
DAV:   3    -0.139743164362E+03    0.44719E-05   -0.69833E-06  4064   0.161E-02    0.695E-03
DAV:   4    -0.139743156462E+03    0.79005E-05   -0.46029E-06  4192   0.233E-02    0.322E-03
DAV:   5    -0.139743152723E+03    0.37390E-05   -0.43638E-06  4232   0.190E-02    0.336E-03
DAV:   6    -0.139743148976E+03    0.37465E-05   -0.40216E-06  4080   0.247E-02
  72 F= -.13974315E+03 E0= -.13974072E+03  d E =-.293517E-03
       N       E                     dE             d eps       ncg     rms          rms(c)
DAV:   1    -0.139742621920E+03    0.53080E-03   -0.48436E-01  6568   0.309E+00    0.962E-02
DAV:   2    -0.139743714233E+03   -0.10923E-02   -0.12233E-02  7104   0.437E-01    0.543E-02
DAV:   3    -0.139743634447E+03    0.79786E-04   -0.22889E-04  7432   0.620E-02    0.380E-02
DAV:   4    -0.139743602771E+03    0.31675E-04   -0.73498E-05  7032   0.350E-02    0.238E-02
DAV:   5    -0.139743564896E+03    0.37875E-04   -0.73783E-05  6800   0.522E-02    0.728E-03
DAV:   6    -0.139743560724E+03    0.41716E-05   -0.32285E-05  6128   0.248E-02
  73 F= -.13974356E+03 E0= -.13974112E+03  d E =-.411748E-03
       N       E                     dE             d eps       ncg     rms          rms(c)
DAV:   1    -0.139743482535E+03    0.82361E-04   -0.49863E-02  6520   0.991E-01    0.297E-02
DAV:   2    -0.139743584360E+03   -0.10182E-03   -0.12525E-03  7160   0.140E-01    0.189E-02
DAV:   3    -0.139743568061E+03    0.16298E-04   -0.22925E-05  5184   0.233E-02    0.129E-02
DAV:   4    -0.139743560438E+03    0.76236E-05   -0.87384E-06  4256   0.148E-02    0.896E-03
DAV:   5    -0.139743539165E+03    0.21272E-04   -0.97687E-06  4904   0.366E-02    0.399E-03
DAV:   6    -0.139743521138E+03    0.18027E-04   -0.12727E-05  4760   0.432E-02    0.368E-03
DAV:   7    -0.139743491089E+03    0.30049E-04   -0.17324E-05  5416   0.891E-02    0.475E-03
DAV:   8    -0.139743478603E+03    0.12486E-04   -0.43501E-05  6376   0.622E-02    0.471E-03
DAV:   9    -0.139743470893E+03    0.77098E-05   -0.12075E-05  4608   0.506E-02
  74 F= -.13974347E+03 E0= -.13974104E+03  d E =-.321917E-03
       N       E                     dE             d eps       ncg     rms          rms(c)
DAV:   1    -0.139743470028E+03    0.85756E-05   -0.10888E-02  6968   0.465E-01    0.172E-02
DAV:   2    -0.139743504381E+03   -0.34353E-04   -0.38709E-04  7176   0.777E-02    0.126E-02
DAV:   3    -0.139743501011E+03    0.33698E-05   -0.63908E-06  4144   0.135E-02    0.861E-03
DAV:   4    -0.139743499734E+03    0.12769E-05   -0.59031E-06  3976   0.109E-02    0.414E-03
DAV:   5    -0.139743498811E+03    0.92357E-06   -0.26150E-06  3912   0.858E-03    0.172E-03
DAV:   6    -0.139743498501E+03    0.31005E-06   -0.91027E-07  3648   0.522E-03
  75 F= -.13974350E+03 E0= -.13974107E+03  d E =-.349525E-03
       N       E                     dE             d eps       ncg     rms          rms(c)
DAV:   1    -0.139743503215E+03   -0.44040E-05   -0.36214E-03  6576   0.267E-01    0.839E-03
DAV:   2    -0.139743510778E+03   -0.75632E-05   -0.89081E-05  7072   0.372E-02    0.456E-03
DAV:   3    -0.139743509855E+03    0.92273E-06   -0.17712E-06  3800   0.582E-03    0.309E-03
DAV:   4    -0.139743509480E+03    0.37524E-06   -0.55547E-07  3528   0.342E-03    0.219E-03
DAV:   5    -0.139743508524E+03    0.95633E-06   -0.63670E-07  4128   0.803E-03    0.855E-04
DAV:   6    -0.139743508055E+03    0.46911E-06   -0.66089E-07  3712   0.614E-03
  76 F= -.13974351E+03 E0= -.13974108E+03  d E =-.359078E-03
       N       E                     dE             d eps       ncg     rms          rms(c)
DAV:   1    -0.139743508985E+03   -0.46185E-06   -0.56093E-04  6712   0.106E-01    0.352E-03
DAV:   2    -0.139743510120E+03   -0.11345E-05   -0.16777E-05  4744   0.170E-02    0.286E-03
DAV:   3    -0.139743509836E+03    0.28355E-06   -0.81133E-07  3728   0.414E-03    0.204E-03
DAV:   4    -0.139743509563E+03    0.27378E-06   -0.26456E-07  3576   0.269E-03    0.122E-03
DAV:   5    -0.139743509130E+03    0.43229E-06   -0.25538E-07  3992   0.501E-03    0.683E-04
DAV:   6    -0.139743508789E+03    0.34120E-06   -0.21520E-07  3776   0.561E-03
  77 F= -.13974351E+03 E0= -.13974108E+03  d E =-.359813E-03
       N       E                     dE             d eps       ncg     rms          rms(c)
DAV:   1    -0.139743423227E+03    0.85903E-04   -0.20551E-01  6320   0.199E+00    0.584E-02
DAV:   2    -0.139743813280E+03   -0.39005E-03   -0.44730E-03  7256   0.274E-01    0.335E-02
DAV:   3    -0.139743782572E+03    0.30708E-04   -0.81438E-05  7344   0.405E-02    0.230E-02
DAV:   4    -0.139743767615E+03    0.14957E-04   -0.34948E-05  5464   0.303E-02    0.132E-02
DAV:   5    -0.139743755519E+03    0.12096E-04   -0.34473E-05  6296   0.383E-02    0.488E-03
DAV:   6    -0.139743755725E+03   -0.20531E-06   -0.17463E-05  4320   0.202E-02
  78 F= -.13974376E+03 E0= -.13974131E+03  d E =-.246935E-03
       N       E                     dE             d eps       ncg     rms          rms(c)
DAV:   1    -0.139743724539E+03    0.30980E-04   -0.34506E-02  6312   0.817E-01    0.251E-02
DAV:   2    -0.139743788697E+03   -0.64157E-04   -0.75614E-04  7272   0.113E-01    0.136E-02
DAV:   3    -0.139743782248E+03    0.64493E-05   -0.12321E-05  4544   0.192E-02    0.937E-03
DAV:   4    -0.139743778281E+03    0.39666E-05   -0.73559E-06  4360   0.180E-02    0.540E-03
DAV:   5    -0.139743774390E+03    0.38914E-05   -0.71965E-06  4456   0.243E-02    0.219E-03
DAV:   6    -0.139743774084E+03    0.30541E-06   -0.72872E-06  4040   0.149E-02
  79 F= -.13974377E+03 E0= -.13974132E+03  d E =-.265295E-03
       N       E                     dE             d eps       ncg     rms          rms(c)
DAV:   1    -0.139743959633E+03   -0.18524E-03   -0.75681E-02  6272   0.122E+00    0.411E-02
DAV:   2    -0.139744093525E+03   -0.13389E-03   -0.17268E-03  7368   0.177E-01    0.233E-02
DAV:   3    -0.139744081289E+03    0.12236E-04   -0.44294E-05  7048   0.323E-02    0.175E-02
DAV:   4    -0.139744071566E+03    0.97225E-05   -0.26246E-05  5112   0.266E-02    0.835E-03
DAV:   5    -0.139744065254E+03    0.63118E-05   -0.19669E-05  4672   0.263E-02    0.807E-03
DAV:   6    -0.139744063843E+03    0.14110E-05   -0.86353E-06  4056   0.157E-02
  80 F= -.13974406E+03 E0= -.13974160E+03  d E =-.289759E-03
