       N       E                     dE             d eps       ncg     rms          rms(c)
DAV:   1     0.472387693372E+03    0.47239E+03   -0.40967E+04  6100   0.131E+03
DAV:   2    -0.897610539112E+02   -0.56215E+03   -0.53181E+03  7960   0.247E+02
DAV:   3    -0.146617317368E+03   -0.56856E+02   -0.56497E+02  7098   0.848E+01
DAV:   4    -0.147386462365E+03   -0.76914E+00   -0.76749E+00  7136   0.107E+01
DAV:   5    -0.147398352692E+03   -0.11890E-01   -0.11884E-01  7134   0.131E+00    0.219E+01
DAV:   6    -0.132982842293E+03    0.14416E+02   -0.83648E+01  7162   0.290E+01    0.752E+00
DAV:   7    -0.132868517991E+03    0.11432E+00   -0.18027E+00  6736   0.518E+00    0.458E+00
DAV:   8    -0.132767470017E+03    0.10105E+00   -0.50968E-01  7010   0.398E+00    0.861E-01
DAV:   9    -0.132752497767E+03    0.14972E-01   -0.62927E-02  6948   0.117E+00    0.469E-01
DAV:  10    -0.132753643251E+03   -0.11455E-02   -0.51948E-02  6820   0.969E-01    0.273E-01
DAV:  11    -0.132753291808E+03    0.35144E-03   -0.37853E-03  6978   0.317E-01    0.198E-01
DAV:  12    -0.132753240859E+03    0.50949E-04   -0.63093E-03  7816   0.412E-01    0.908E-02
DAV:  13    -0.132753226198E+03    0.14661E-04   -0.14593E-03  6924   0.163E-01    0.624E-02
DAV:  14    -0.132753167828E+03    0.58370E-04   -0.34858E-04  6906   0.867E-02    0.208E-02
DAV:  15    -0.132753164574E+03    0.32541E-05   -0.13844E-04  6768   0.468E-02    0.137E-02
DAV:  16    -0.132753159407E+03    0.51670E-05   -0.50564E-06  3776   0.207E-02
   1 F= -.13275316E+03 E0= -.13275076E+03  d E =-.132753E+03
       N       E                     dE             d eps       ncg     rms          rms(c)
DAV:   1    -0.132754075073E+03   -0.91050E-03   -0.26733E-02  6718   0.734E-01    0.336E-02
DAV:   2    -0.132754130308E+03   -0.55235E-04   -0.11103E-03  7118   0.153E-01    0.255E-02
DAV:   3    -0.132754117515E+03    0.12793E-04   -0.66631E-05  6862   0.374E-02    0.202E-02
DAV:   4    -0.132754103703E+03    0.13812E-04   -0.24581E-05  5340   0.213E-02    0.929E-03
DAV:   5    -0.132754091703E+03    0.12000E-04   -0.20400E-05  5304   0.351E-02    0.802E-03
DAV:   6    -0.132754085880E+03    0.58232E-05   -0.11209E-05  4722   0.339E-02
   2 F= -.13275409E+03 E0= -.13275170E+03  d E =-.926473E-03
       N       E                     dE             d eps       ncg     rms          rms(c)
DAV:   1    -0.132754585574E+03   -0.49387E-03   -0.69326E-02  6540   0.118E+00    0.507E-02
DAV:   2    -0.132754730915E+03   -0.14534E-03   -0.27092E-03  7106   0.235E-01    0.397E-02
DAV:   3    -0.132754698415E+03    0.32500E-04   -0.14075E-04  7060   0.547E-02    0.313E-02
DAV:   4    -0.132754661958E+03    0.36457E-04   -0.74973E-05  6788   0.371E-02    0.134E-02
DAV:   5    -0.132754637665E+03    0.24293E-04   -0.37354E-05  6568   0.494E-02    0.125E-02
DAV:   6    -0.132754623420E+03    0.14245E-04   -0.25239E-05  5722   0.529E-02    0.721E-03
DAV:   7    -0.132754621343E+03    0.20779E-05   -0.42982E-05  5556   0.332E-02
   3 F= -.13275462E+03 E0= -.13275228E+03  d E =-.146194E-02
       N       E                     dE             d eps       ncg     rms          rms(c)
DAV:   1    -0.132755189220E+03   -0.56580E-03   -0.40634E-02  6254   0.870E-01    0.291E-02
DAV:   2    -0.132755269578E+03   -0.80359E-04   -0.98816E-04  6876   0.123E-01    0.161E-02
DAV:   3    -0.132755263401E+03    0.61777E-05   -0.15224E-05  4782   0.193E-02    0.108E-02
DAV:   4    -0.132755258841E+03    0.45598E-05   -0.88628E-06  3928   0.176E-02    0.444E-03
DAV:   5    -0.132755257503E+03    0.13383E-05   -0.53366E-06  3780   0.149E-02    0.242E-03
DAV:   6    -0.132755256450E+03    0.10527E-05   -0.15999E-06  3764   0.120E-02
   4 F= -.13275526E+03 E0= -.13275294E+03  d E =-.635108E-03
       N       E                     dE             d eps       ncg     rms          rms(c)
DAV:   1    -0.132756185457E+03   -0.92795E-03   -0.36553E-01  6156   0.261E+00    0.845E-02
DAV:   2    -0.132756929808E+03   -0.74435E-03   -0.89858E-03  6852   0.368E-01    0.495E-02
DAV:   3    -0.132756876918E+03    0.52890E-04   -0.13518E-04  7154   0.613E-02    0.327E-02
DAV:   4    -0.132756846637E+03    0.30282E-04   -0.81075E-05  6704   0.524E-02    0.140E-02
DAV:   5    -0.132756842797E+03    0.38404E-05   -0.36198E-05  6036   0.323E-02    0.700E-03
DAV:   6    -0.132756840594E+03    0.22021E-05   -0.78649E-06  3788   0.182E-02
   5 F= -.13275684E+03 E0= -.13275463E+03  d E =-.221925E-02
       N       E                     dE             d eps       ncg     rms          rms(c)
DAV:   1    -0.132755687722E+03    0.11551E-02   -0.14630E+00  6128   0.522E+00    0.169E-01
DAV:   2    -0.132758662102E+03   -0.29744E-02   -0.35979E-02  6864   0.737E-01    0.994E-02
DAV:   3    -0.132758438512E+03    0.22359E-03   -0.52786E-04  7172   0.128E-01    0.655E-02
DAV:   4    -0.132758288305E+03    0.15021E-03   -0.32367E-04  7158   0.118E-01    0.272E-02
DAV:   5    -0.132758256649E+03    0.31656E-04   -0.17928E-04  7122   0.798E-02    0.150E-02
DAV:   6    -0.132758229132E+03    0.27517E-04   -0.35215E-05  6324   0.459E-02    0.873E-03
DAV:   7    -0.132758205706E+03    0.23426E-04   -0.57192E-06  4258   0.407E-02    0.623E-03
DAV:   8    -0.132758174051E+03    0.31655E-04   -0.17208E-05  4952   0.604E-02    0.503E-03
DAV:   9    -0.132758124244E+03    0.49807E-04   -0.25303E-05  5804   0.999E-02    0.598E-03
DAV:  10    -0.132758087226E+03    0.37018E-04   -0.61780E-05  7158   0.118E-01    0.546E-03
DAV:  11    -0.132758071249E+03    0.15977E-04   -0.68928E-05  7256   0.123E-01    0.473E-03
DAV:  12    -0.132758079893E+03   -0.86440E-05   -0.10637E-04  6062   0.427E-02    0.811E-03
DAV:  13    -0.132758080615E+03   -0.72199E-06   -0.76600E-06  3740   0.994E-03
   6 F= -.13275808E+03 E0= -.13275613E+03  d E =-.345927E-02
       N       E                     dE             d eps       ncg     rms          rms(c)
DAV:   1    -0.132758653374E+03   -0.57348E-03   -0.10620E-01  6316   0.143E+00    0.458E-02
DAV:   2    -0.132758869653E+03   -0.21628E-03   -0.25452E-03  6714   0.204E-01    0.253E-02
DAV:   3    -0.132758854657E+03    0.14996E-04   -0.30362E-05  5738   0.298E-02    0.175E-02
DAV:   4    -0.132758842822E+03    0.11834E-04   -0.39618E-05  6018   0.388E-02    0.609E-03
DAV:   5    -0.132758842606E+03    0.21685E-06   -0.16897E-05  4260   0.197E-02    0.633E-03
DAV:   6    -0.132758841627E+03    0.97870E-06   -0.44959E-06  3606   0.109E-02
   7 F= -.13275884E+03 E0= -.13275696E+03  d E =-.761012E-03
       N       E                     dE             d eps       ncg     rms          rms(c)
DAV:   1    -0.132758832980E+03    0.96256E-05   -0.95588E-01  6248   0.431E+00    0.131E-01
DAV:   2    -0.132760840843E+03   -0.20079E-02   -0.22858E-02  6690   0.609E-01    0.749E-02
DAV:   3    -0.132760722422E+03    0.11842E-03   -0.27540E-04  7186   0.834E-02    0.524E-02
DAV:   4    -0.132760630219E+03    0.92203E-04   -0.28336E-04  7118   0.100E-01    0.198E-02
DAV:   5    -0.132760622840E+03    0.73796E-05   -0.12518E-04  6908   0.528E-02    0.177E-02
DAV:   6    -0.132760613287E+03    0.95531E-05   -0.39669E-05  5966   0.304E-02
   8 F= -.13276061E+03 E0= -.13275889E+03  d E =-.253267E-02
       N       E                     dE             d eps       ncg     rms          rms(c)
DAV:   1    -0.132754510297E+03    0.61125E-02   -0.38248E+00  6180   0.861E+00    0.262E-01
DAV:   2    -0.132762650697E+03   -0.81404E-02   -0.91864E-02  6680   0.122E+00    0.151E-01
DAV:   3    -0.132762162762E+03    0.48793E-03   -0.10268E-03  7204   0.163E-01    0.105E-01
DAV:   4    -0.132761766661E+03    0.39610E-03   -0.11974E-03  7130   0.207E-01    0.381E-02
DAV:   5    -0.132761740566E+03    0.26096E-04   -0.51133E-04  7050   0.105E-01    0.341E-02
DAV:   6    -0.132761699867E+03    0.40699E-04   -0.13484E-04  6888   0.561E-02    0.143E-02
DAV:   7    -0.132761662657E+03    0.37209E-04   -0.29101E-05  6134   0.456E-02    0.119E-02
DAV:   8    -0.132761617995E+03    0.44663E-04   -0.18095E-05  5340   0.604E-02    0.851E-03
DAV:   9    -0.132761583050E+03    0.34945E-04   -0.45022E-05  6358   0.626E-02    0.718E-03
DAV:  10    -0.132761531019E+03    0.52031E-04   -0.27551E-05  5432   0.976E-02    0.875E-03
DAV:  11    -0.132761513617E+03    0.17402E-04   -0.48453E-05  6532   0.627E-02    0.117E-02
DAV:  12    -0.132761502238E+03    0.11379E-04   -0.32569E-05  5714   0.557E-02    0.624E-03
DAV:  13    -0.132761491453E+03    0.10786E-04   -0.11316E-05  4696   0.703E-02    0.424E-03
DAV:  14    -0.132761492544E+03   -0.10918E-05   -0.55950E-05  6146   0.528E-02
   9 F= -.13276149E+03 E0= -.13275996E+03  d E =-.341193E-02
       N       E                     dE             d eps       ncg     rms          rms(c)
DAV:   1    -0.132761046951E+03    0.44450E-03   -0.29104E-01  6256   0.236E+00    0.711E-02
DAV:   2    -0.132761664272E+03   -0.61732E-03   -0.69914E-03  6718   0.330E-01    0.421E-02
DAV:   3    -0.132761626076E+03    0.38196E-04   -0.76243E-05  7218   0.470E-02    0.297E-02
DAV:   4    -0.132761594312E+03    0.31764E-04   -0.10671E-04  6766   0.619E-02    0.105E-02
DAV:   5    -0.132761593627E+03    0.68478E-06   -0.45116E-05  6098   0.315E-02    0.108E-02
DAV:   6    -0.132761591370E+03    0.22572E-05   -0.10235E-05  3626   0.154E-02
  10 F= -.13276159E+03 E0= -.13276003E+03  d E =-.351076E-02
       N       E                     dE             d eps       ncg     rms          rms(c)
DAV:   1    -0.132762423780E+03   -0.83015E-03   -0.37334E-01  6162   0.267E+00    0.815E-02
DAV:   2    -0.132763149629E+03   -0.72585E-03   -0.85270E-03  6856   0.378E-01    0.453E-02
DAV:   3    -0.132763111767E+03    0.37861E-04   -0.13606E-04  7166   0.532E-02    0.327E-02
DAV:   4    -0.132763083126E+03    0.28641E-04   -0.12372E-04  6998   0.569E-02    0.140E-02
DAV:   5    -0.132763081435E+03    0.16911E-05   -0.35119E-05  5980   0.293E-02    0.142E-02
DAV:   6    -0.132763077537E+03    0.38978E-05   -0.19352E-05  4660   0.270E-02
  11 F= -.13276308E+03 E0= -.13276155E+03  d E =-.148617E-02
       N       E                     dE             d eps       ncg     rms          rms(c)
DAV:   1    -0.132759052073E+03    0.40294E-02   -0.33588E+00  6138   0.800E+00    0.244E-01
DAV:   2    -0.132765673889E+03   -0.66218E-02   -0.76792E-02  6788   0.113E+00    0.137E-01
DAV:   3    -0.132765336916E+03    0.33697E-03   -0.11216E-03  7230   0.155E-01    0.976E-02
DAV:   4    -0.132765097989E+03    0.23893E-03   -0.11669E-03  7190   0.179E-01    0.407E-02
DAV:   5    -0.132765097995E+03   -0.56352E-08   -0.32306E-04  7018   0.847E-02    0.411E-02
DAV:   6    -0.132765074268E+03    0.23727E-04   -0.17196E-04  6666   0.703E-02    0.169E-02
DAV:   7    -0.132765072484E+03    0.17833E-05   -0.54660E-05  6192   0.372E-02
  12 F= -.13276507E+03 E0= -.13276357E+03  d E =-.348111E-02
       N       E                     dE             d eps       ncg     rms          rms(c)
DAV:   1    -0.132765546928E+03   -0.47266E-03   -0.45091E-01  6176   0.291E+00    0.855E-02
DAV:   2    -0.132766395407E+03   -0.84848E-03   -0.97898E-03  6876   0.405E-01    0.488E-02
DAV:   3    -0.132766338233E+03    0.57174E-04   -0.16406E-04  7254   0.670E-02    0.344E-02
DAV:   4    -0.132766295263E+03    0.42970E-04   -0.12188E-04  6578   0.620E-02    0.151E-02
DAV:   5    -0.132766287551E+03    0.77118E-05   -0.52312E-05  6482   0.439E-02    0.130E-02
DAV:   6    -0.132766283929E+03    0.36220E-05   -0.30030E-05  5400   0.319E-02
  13 F= -.13276628E+03 E0= -.13276477E+03  d E =-.121144E-02
       N       E                     dE             d eps       ncg     rms          rms(c)
DAV:   1    -0.132765461049E+03    0.82650E-03   -0.83926E-01  6140   0.397E+00    0.115E-01
DAV:   2    -0.132767013799E+03   -0.15527E-02   -0.18272E-02  6884   0.560E-01    0.688E-02
DAV:   3    -0.132766897018E+03    0.11678E-03   -0.36726E-04  7286   0.998E-02    0.501E-02
DAV:   4    -0.132766802829E+03    0.94190E-04   -0.21910E-04  6690   0.783E-02    0.234E-02
DAV:   5    -0.132766766092E+03    0.36736E-04   -0.93815E-05  6984   0.725E-02    0.177E-02
DAV:   6    -0.132766748221E+03    0.17871E-04   -0.95887E-05  7256   0.803E-02    0.822E-03
DAV:   7    -0.132766747444E+03    0.77681E-06   -0.54566E-05  6040   0.385E-02
  14 F= -.13276675E+03 E0= -.13276521E+03  d E =-.167496E-02
       N       E                     dE             d eps       ncg     rms          rms(c)
DAV:   1    -0.132766667632E+03    0.80589E-04   -0.54876E-01  6100   0.318E+00    0.913E-02
DAV:   2    -0.132767733027E+03   -0.10654E-02   -0.11756E-02  6786   0.434E-01    0.515E-02
DAV:   3    -0.132767679155E+03    0.53872E-04   -0.16322E-04  7202   0.601E-02    0.370E-02
DAV:   4    -0.132767638438E+03    0.40717E-04   -0.14724E-04  6586   0.679E-02    0.149E-02
DAV:   5    -0.132767636387E+03    0.20517E-05   -0.59223E-05  6426   0.385E-02    0.153E-02
DAV:   6    -0.132767632212E+03    0.41744E-05   -0.25246E-05  4656   0.260E-02
  15 F= -.13276763E+03 E0= -.13276608E+03  d E =-.884768E-03
       N       E                     dE             d eps       ncg     rms          rms(c)
DAV:   1    -0.132764218016E+03    0.34184E-02   -0.22540E+00  6100   0.644E+00    0.183E-01
DAV:   2    -0.132768606276E+03   -0.43883E-02   -0.48383E-02  6810   0.879E-01    0.107E-01
DAV:   3    -0.132768361214E+03    0.24506E-03   -0.61078E-04  7286   0.126E-01    0.765E-02
DAV:   4    -0.132768160487E+03    0.20073E-03   -0.71626E-04  7338   0.169E-01    0.294E-02
DAV:   5    -0.132768160266E+03    0.22107E-06   -0.35054E-04  6930   0.930E-02    0.337E-02
DAV:   6    -0.132768146044E+03    0.14222E-04   -0.71147E-05  6126   0.376E-02    0.206E-02
DAV:   7    -0.132768136422E+03    0.96221E-05   -0.29183E-05  5388   0.197E-02
  16 F= -.13276814E+03 E0= -.13276654E+03  d E =-.138898E-02
       N       E                     dE             d eps       ncg     rms          rms(c)
DAV:   1    -0.132767682587E+03    0.46346E-03   -0.71874E-01  6204   0.368E+00    0.101E-01
DAV:   2    -0.132769157938E+03   -0.14754E-02   -0.15725E-02  6680   0.499E-01    0.618E-02
DAV:   3    -0.132769069093E+03    0.88845E-04   -0.12211E-04  7084   0.638E-02    0.426E-02
DAV:   4    -0.132768987622E+03    0.81472E-04   -0.32408E-04  7396   0.132E-01    0.133E-02
DAV:   5    -0.132768997941E+03   -0.10319E-04   -0.16735E-04  6100   0.523E-02    0.193E-02
DAV:   6    -0.132768997915E+03    0.26303E-07   -0.40164E-06  3614   0.796E-03
  17 F= -.13276900E+03 E0= -.13276739E+03  d E =-.861493E-03
       N       E                     dE             d eps       ncg     rms          rms(c)
DAV:   1    -0.132766681865E+03    0.23161E-02   -0.15166E+00  6204   0.534E+00    0.159E-01
DAV:   2    -0.132769804689E+03   -0.31228E-02   -0.34075E-02  6648   0.735E-01    0.898E-02
DAV:   3    -0.132769601491E+03    0.20320E-03   -0.29491E-04  7128   0.997E-02    0.631E-02
DAV:   4    -0.132769408275E+03    0.19322E-03   -0.67368E-04  7890   0.195E-01    0.220E-02
DAV:   5    -0.132769416229E+03   -0.79535E-05   -0.37618E-04  6348   0.837E-02    0.304E-02
DAV:   6    -0.132769394159E+03    0.22070E-04   -0.35451E-05  5540   0.261E-02    0.172E-02
DAV:   7    -0.132769348759E+03    0.45401E-04   -0.17770E-04  6652   0.702E-02    0.266E-02
DAV:   8    -0.132769336314E+03    0.12444E-04   -0.28801E-05  5544   0.349E-02    0.314E-02
DAV:   9    -0.132769300859E+03    0.35455E-04   -0.58668E-05  6548   0.619E-02    0.134E-02
DAV:  10    -0.132769258526E+03    0.42333E-04   -0.21788E-05  5592   0.928E-02    0.774E-03
DAV:  11    -0.132769196896E+03    0.61630E-04   -0.13940E-04  9086   0.194E-01    0.156E-02
DAV:  12    -0.132769195073E+03    0.18224E-05   -0.27769E-04  6992   0.103E-01    0.325E-02
DAV:  13    -0.132769176395E+03    0.18679E-04   -0.12016E-04  6518   0.786E-02    0.139E-02
DAV:  14    -0.132769181264E+03   -0.48694E-05   -0.10928E-04  6090   0.419E-02    0.966E-03
DAV:  15    -0.132769179277E+03    0.19868E-05   -0.13321E-05  4154   0.287E-02
  18 F= -.13276918E+03 E0= -.13276755E+03  d E =-.104286E-02
       N       E                     dE             d eps       ncg     rms          rms(c)
DAV:   1    -0.132769303131E+03   -0.12187E-03   -0.26524E-01  6136   0.229E+00    0.657E-02
DAV:   2    -0.132769833396E+03   -0.53026E-03   -0.61574E-03  6770   0.328E-01    0.416E-02
DAV:   3    -0.132769797383E+03    0.36012E-04   -0.12596E-04  7102   0.568E-02    0.305E-02
DAV:   4    -0.132769757442E+03    0.39941E-04   -0.96223E-05  6482   0.504E-02    0.140E-02
DAV:   5    -0.132769740659E+03    0.16783E-04   -0.27398E-05  5346   0.484E-02    0.129E-02
DAV:   6    -0.132769725172E+03    0.15487E-04   -0.33699E-05  5676   0.593E-02    0.639E-03
DAV:   7    -0.132769718955E+03    0.62171E-05   -0.37250E-05  6024   0.451E-02
  19 F= -.13276972E+03 E0= -.13276808E+03  d E =-.539678E-03
       N       E                     dE             d eps       ncg     rms          rms(c)
DAV:   1    -0.132769675853E+03    0.49320E-04   -0.36006E-02  6144   0.844E-01    0.265E-02
DAV:   2    -0.132769741717E+03   -0.65865E-04   -0.87101E-04  6786   0.128E-01    0.142E-02
DAV:   3    -0.132769733364E+03    0.83532E-05   -0.29444E-05  5606   0.293E-02    0.113E-02
DAV:   4    -0.132769722623E+03    0.10741E-04   -0.65437E-06  3808   0.202E-02    0.578E-03
DAV:   5    -0.132769705760E+03    0.16863E-04   -0.10134E-05  4424   0.458E-02    0.665E-03
DAV:   6    -0.132769690522E+03    0.15238E-04   -0.16466E-05  5012   0.624E-02    0.391E-03
DAV:   7    -0.132769680042E+03    0.10479E-04   -0.18172E-05  5204   0.569E-02    0.437E-03
DAV:   8    -0.132769667172E+03    0.12870E-04   -0.68607E-06  4494   0.683E-02    0.215E-03
DAV:   9    -0.132769661426E+03    0.57464E-05   -0.25647E-05  5476   0.650E-02
  20 F= -.13276966E+03 E0= -.13276802E+03  d E =-.482148E-03
       N       E                     dE             d eps       ncg     rms          rms(c)
DAV:   1    -0.132769674643E+03   -0.74715E-05   -0.88404E-03  6316   0.420E-01    0.129E-02
DAV:   2    -0.132769690919E+03   -0.16276E-04   -0.21010E-04  6814   0.634E-02    0.860E-03
DAV:   3    -0.132769689598E+03    0.13214E-05   -0.93749E-06  3780   0.155E-02    0.602E-03
DAV:   4    -0.132769688338E+03    0.12595E-05   -0.22251E-06  3620   0.736E-03    0.337E-03
DAV:   5    -0.132769686848E+03    0.14899E-05   -0.21280E-06  3978   0.128E-02    0.218E-03
DAV:   6    -0.132769686286E+03    0.56197E-06   -0.23113E-06  3702   0.137E-02
  21 F= -.13276969E+03 E0= -.13276804E+03  d E =-.507009E-03
       N       E                     dE             d eps       ncg     rms          rms(c)
DAV:   1    -0.132769687676E+03   -0.82789E-06   -0.73201E-04  6220   0.121E-01    0.441E-03
DAV:   2    -0.132769689122E+03   -0.14462E-05   -0.19736E-05  4670   0.190E-02    0.249E-03
DAV:   3    -0.132769688932E+03    0.19024E-06   -0.10267E-06  3362   0.459E-03    0.181E-03
DAV:   4    -0.132769688512E+03    0.41997E-06   -0.94768E-07  3542   0.704E-03    0.127E-03
DAV:   5    -0.132769688476E+03    0.36267E-07   -0.40838E-07  3230   0.299E-03    0.116E-03
DAV:   6    -0.132769688360E+03    0.11556E-06   -0.75089E-08  3146   0.295E-03
  22 F= -.13276969E+03 E0= -.13276804E+03  d E =-.509083E-03
       N       E                     dE             d eps       ncg     rms          rms(c)
DAV:   1    -0.132769923170E+03   -0.23469E-03   -0.13207E-02  6412   0.497E-01    0.159E-02
DAV:   2    -0.132769945290E+03   -0.22120E-04   -0.32786E-04  7012   0.760E-02    0.114E-02
DAV:   3    -0.132769941945E+03    0.33453E-05   -0.67610E-06  3952   0.148E-02    0.839E-03
DAV:   4    -0.132769938130E+03    0.38148E-05   -0.16581E-05  4820   0.231E-02    0.399E-03
DAV:   5    -0.132769937632E+03    0.49738E-06   -0.47468E-06  3602   0.104E-02    0.431E-03
DAV:   6    -0.132769936829E+03    0.80322E-06   -0.15137E-06  3602   0.679E-03
  23 F= -.13276994E+03 E0= -.13276829E+03  d E =-.248469E-03
       N       E                     dE             d eps       ncg     rms          rms(c)
DAV:   1    -0.132770102740E+03   -0.16511E-03   -0.11566E-01  6348   0.147E+00    0.468E-02
DAV:   2    -0.132770280020E+03   -0.17728E-03   -0.27972E-03  7012   0.223E-01    0.326E-02
DAV:   3    -0.132770246719E+03    0.33301E-04   -0.68724E-05  7000   0.447E-02    0.237E-02
DAV:   4    -0.132770201789E+03    0.44930E-04   -0.99971E-05  6708   0.604E-02    0.117E-02
DAV:   5    -0.132770185859E+03    0.15929E-04   -0.34270E-05  6122   0.367E-02    0.127E-02
DAV:   6    -0.132770163805E+03    0.22054E-04   -0.35444E-05  6060   0.445E-02    0.595E-03
DAV:   7    -0.132770137925E+03    0.25880E-04   -0.10693E-05  4836   0.529E-02    0.824E-03
DAV:   8    -0.132770102838E+03    0.35087E-04   -0.28474E-05  6008   0.844E-02    0.652E-03
DAV:   9    -0.132770069346E+03    0.33492E-04   -0.62923E-05  7328   0.135E-01    0.580E-03
DAV:  10    -0.132770072191E+03   -0.28445E-05   -0.89307E-05  6224   0.496E-02
  24 F= -.13277007E+03 E0= -.13276842E+03  d E =-.383831E-03
       N       E                     dE             d eps       ncg     rms          rms(c)
DAV:   1    -0.132770114327E+03   -0.44981E-04   -0.10022E-02  6678   0.433E-01    0.164E-02
DAV:   2    -0.132770127760E+03   -0.13432E-04   -0.24224E-04  6982   0.667E-02    0.907E-03
DAV:   3    -0.132770124860E+03    0.28993E-05   -0.74976E-06  3952   0.144E-02    0.638E-03
DAV:   4    -0.132770121781E+03    0.30792E-05   -0.49031E-06  4036   0.133E-02    0.287E-03
DAV:   5    -0.132770120325E+03    0.14563E-05   -0.29736E-06  3804   0.120E-02    0.291E-03
DAV:   6    -0.132770118984E+03    0.13408E-05   -0.28593E-06  4054   0.162E-02
  25 F= -.13277012E+03 E0= -.13276847E+03  d E =-.430624E-03
       N       E                     dE             d eps       ncg     rms          rms(c)
DAV:   1    -0.132770231823E+03   -0.11150E-03   -0.13478E-02  6412   0.515E-01    0.152E-02
DAV:   2    -0.132770257758E+03   -0.25935E-04   -0.31378E-04  6888   0.735E-02    0.895E-03
DAV:   3    -0.132770255732E+03    0.20267E-05   -0.36099E-06  3754   0.104E-02    0.645E-03
DAV:   4    -0.132770253305E+03    0.24271E-05   -0.42165E-06  3932   0.154E-02    0.230E-03
DAV:   5    -0.132770252881E+03    0.42409E-06   -0.32341E-06  3584   0.964E-03    0.223E-03
DAV:   6    -0.132770252636E+03    0.24493E-06   -0.72830E-07  3542   0.452E-03
  26 F= -.13277025E+03 E0= -.13276860E+03  d E =-.133651E-03
       N       E                     dE             d eps       ncg     rms          rms(c)
DAV:   1    -0.132770298785E+03   -0.45905E-04   -0.12169E-01  6396   0.155E+00    0.456E-02
DAV:   2    -0.132770546336E+03   -0.24755E-03   -0.28941E-03  6918   0.222E-01    0.275E-02
DAV:   3    -0.132770528655E+03    0.17681E-04   -0.34122E-05  6102   0.336E-02    0.194E-02
DAV:   4    -0.132770510338E+03    0.18317E-04   -0.54157E-05  6114   0.476E-02    0.781E-03
DAV:   5    -0.132770509123E+03    0.12147E-05   -0.24194E-05  4748   0.234E-02    0.770E-03
DAV:   6    -0.132770508443E+03    0.67971E-06   -0.36419E-06  3620   0.825E-03
  27 F= -.13277051E+03 E0= -.13276885E+03  d E =-.389459E-03
       N       E                     dE             d eps       ncg     rms          rms(c)
DAV:   1    -0.132769527204E+03    0.98192E-03   -0.48629E-01  6404   0.309E+00    0.924E-02
DAV:   2    -0.132770514724E+03   -0.98752E-03   -0.11623E-02  6900   0.446E-01    0.552E-02
DAV:   3    -0.132770443872E+03    0.70852E-04   -0.15700E-04  7126   0.701E-02    0.391E-02
DAV:   4    -0.132770373054E+03    0.70818E-04   -0.18299E-04  6700   0.841E-02    0.168E-02
DAV:   5    -0.132770359868E+03    0.13186E-04   -0.79461E-05  6594   0.483E-02    0.154E-02
DAV:   6    -0.132770353119E+03    0.67493E-05   -0.27074E-05  5058   0.250E-02
  28 F= -.13277035E+03 E0= -.13276868E+03  d E =-.234134E-03
       N       E                     dE             d eps       ncg     rms          rms(c)
DAV:   1    -0.132770203087E+03    0.15678E-03   -0.16539E-01  6488   0.180E+00    0.550E-02
DAV:   2    -0.132770544632E+03   -0.34154E-03   -0.40115E-03  6916   0.257E-01    0.309E-02
DAV:   3    -0.132770522608E+03    0.22024E-04   -0.44554E-05  6452   0.354E-02    0.213E-02
DAV:   4    -0.132770505338E+03    0.17270E-04   -0.79783E-05  6794   0.568E-02    0.802E-03
DAV:   5    -0.132770506355E+03   -0.10170E-05   -0.30133E-05  5284   0.235E-02    0.102E-02
DAV:   6    -0.132770504744E+03    0.16115E-05   -0.37427E-06  3632   0.942E-03
  29 F= -.13277050E+03 E0= -.13276885E+03  d E =-.385759E-03
       N       E                     dE             d eps       ncg     rms          rms(c)
DAV:   1    -0.132770501204E+03    0.51515E-05   -0.44106E-03  6612   0.295E-01    0.962E-03
DAV:   2    -0.132770510523E+03   -0.93191E-05   -0.11418E-04  6896   0.438E-02    0.585E-03
DAV:   3    -0.132770509532E+03    0.99054E-06   -0.16704E-06  3698   0.904E-03    0.397E-03
DAV:   4    -0.132770508192E+03    0.13400E-05   -0.28686E-06  3736   0.149E-02    0.179E-03
DAV:   5    -0.132770508070E+03    0.12234E-06   -0.26434E-06  3578   0.786E-03    0.271E-03
DAV:   6    -0.132770508252E+03   -0.18228E-06   -0.70831E-07  3350   0.324E-03
  30 F= -.13277051E+03 E0= -.13276885E+03  d E =-.389268E-03
       N       E                     dE             d eps       ncg     rms          rms(c)
DAV:   1    -0.132770594703E+03   -0.86633E-04   -0.17099E-02  6528   0.576E-01    0.170E-02
DAV:   2    -0.132770627691E+03   -0.32989E-04   -0.40198E-04  6744   0.820E-02    0.119E-02
DAV:   3    -0.132770623833E+03    0.38585E-05   -0.41460E-06  3958   0.133E-02    0.883E-03
DAV:   4    -0.132770619827E+03    0.40061E-05   -0.16532E-05  4692   0.258E-02    0.304E-03
DAV:   5    -0.132770619869E+03   -0.42693E-07   -0.59928E-06  3566   0.101E-02    0.360E-03
DAV:   6    -0.132770619607E+03    0.26287E-06   -0.55029E-07  3470   0.338E-03
  31 F= -.13277062E+03 E0= -.13276897E+03  d E =-.111355E-03
