 vasp.5.3.5 31Mar14 (build Apr 08 2024 10:12:10) complex                        
  
 executed on             LinuxIFC date 2024.07.29  20:08:04
 running on    8 total cores
 distrk:  each k-point on    8 cores,    1 groups
 distr:  one band on NCORES_PER_BAND=   4 cores,    2 groups


--------------------------------------------------------------------------------------------------------


 INCAR:
 POTCAR:    PAW_PBE O 08Apr2002                   
 POTCAR:    PAW_PBE Mg 13Apr2007                  
 POTCAR:    PAW_PBE Al 04Jan2001                  
 POTCAR:    PAW_PBE O 08Apr2002                   
   VRHFIN =O: s2p4                                                              
   LEXCH  = PE                                                                  
   EATOM  =   432.3788 eV,   31.7789 Ry                                         
                                                                                
   TITEL  = PAW_PBE O 08Apr2002                                                 
   LULTRA =        F    use ultrasoft PP ?                                      
   IUNSCR =        1    unscreen: 0-lin 1-nonlin 2-no                           
   RPACOR =    1.200    partial core radius                                     
   POMASS =   16.000; ZVAL   =    6.000    mass and valenz                      
   RCORE  =    1.520    outmost cutoff radius                                   
   RWIGS  =    1.550; RWIGS  =    0.820    wigner-seitz radius (au A)           
   ENMAX  =  400.000; ENMIN  =  300.000 eV                                      
   ICORE  =        2    local potential                                         
   LCOR   =        T    correct aug charges                                     
   LPAW   =        T    paw PP                                                  
   EAUG   =  605.392                                                            
   DEXC   =    0.000                                                            
   RMAX   =    1.553    core radius for proj-oper                               
   RAUG   =    1.300    factor for augmentation sphere                          
   RDEP   =    1.550    radius for radial grids                                 
   RDEPT  =    1.329    core radius for aug-charge                              
                                                                                
   Atomic configuration                                                         
    4 entries                                                                   
     n  l   j            E        occ.                                          
     1  0  0.50      -514.6923   2.0000                                         
     2  0  0.50       -23.9615   2.0000                                         
     2  1  0.50        -9.0305   4.0000                                         
     3  2  1.50        -9.5241   0.0000                                         
   Description                                                                  
     l       E           TYP  RCUT    TYP  RCUT                                 
     0    -23.9615318     23  1.200                                             
     0     -9.5240782     23  1.200                                             
     1     -9.0304911     23  1.520                                             
     1      8.1634956     23  1.520                                             
     2     -9.5240782      7  1.500                                             
  local pseudopotential read in
  partial core-charges read in
  partial kinetic energy density read in
  kinetic energy density of atom read in
  atomic valenz-charges read in
  non local Contribution for L=           0  read in
    real space projection operators read in
  non local Contribution for L=           0  read in
    real space projection operators read in
  non local Contribution for L=           1  read in
    real space projection operators read in
  non local Contribution for L=           1  read in
    real space projection operators read in
    PAW grid and wavefunctions read in
 
   number of l-projection  operators is LMAX  =           4
   number of lm-projection operators is LMMAX =           8
 
 POTCAR:    PAW_PBE Mg 13Apr2007                  
   VRHFIN =Mg: s2p0                                                             
   LEXCH  = PE                                                                  
   EATOM  =    23.0369 eV,    1.6932 Ry                                         
                                                                                
   TITEL  = PAW_PBE Mg 13Apr2007                                                
   LULTRA =        F    use ultrasoft PP ?                                      
   IUNSCR =        1    unscreen: 0-lin 1-nonlin 2-no                           
   RPACOR =    1.500    partial core radius                                     
   POMASS =   24.305; ZVAL   =    2.000    mass and valenz                      
   RCORE  =    2.000    outmost cutoff radius                                   
   RWIGS  =    2.880; RWIGS  =    1.524    wigner-seitz radius (au A)           
   ENMAX  =  200.000; ENMIN  =  100.000 eV                                      
   RCLOC  =    1.506    cutoff for local pot                                    
   LCOR   =        T    correct aug charges                                     
   LPAW   =        T    paw PP                                                  
   EAUG   =  454.734                                                            
   DEXC   =    0.000                                                            
   RMAX   =    2.045    core radius for proj-oper                               
   RAUG   =    1.300    factor for augmentation sphere                          
   RDEP   =    2.025    radius for radial grids                                 
   RDEPT  =    1.942    core radius for aug-charge                              
                                                                                
   Atomic configuration                                                         
    6 entries                                                                   
     n  l   j            E        occ.                                          
     1  0  0.50     -1259.6230   2.0000                                         
     2  0  0.50       -79.8442   2.0000                                         
     2  1  1.50       -46.6121   6.0000                                         
     3  0  0.50        -4.7055   2.0000                                         
     3  1  0.50        -1.3660   0.0000                                         
     3  2  1.50        -1.3606   0.0000                                         
   Description                                                                  
     l       E           TYP  RCUT    TYP  RCUT                                 
     0     -4.7054661     23  2.000                                             
     0     27.2116520     23  2.000                                             
     1      1.3605826     23  2.000                                             
     1     27.2116520     23  2.000                                             
     2     -1.3605826     23  2.000                                             
  local pseudopotential read in
  partial core-charges read in
  partial kinetic energy density read in
  atomic valenz-charges read in
  non local Contribution for L=           0  read in
    real space projection operators read in
  non local Contribution for L=           0  read in
    real space projection operators read in
  non local Contribution for L=           1  read in
    real space projection operators read in
  non local Contribution for L=           1  read in
    real space projection operators read in
  non local Contribution for L=           2  read in
    real space projection operators read in
    PAW grid and wavefunctions read in
 
   number of l-projection  operators is LMAX  =           5
   number of lm-projection operators is LMMAX =          13
 
 POTCAR:    PAW_PBE Al 04Jan2001                  
   VRHFIN =Al: s2p1                                                             
   LEXCH  = PE                                                                  
   EATOM  =    53.5387 eV,    3.9350 Ry                                         
                                                                                
   TITEL  = PAW_PBE Al 04Jan2001                                                
   LULTRA =        F    use ultrasoft PP ?                                      
   IUNSCR =        1    unscreen: 0-lin 1-nonlin 2-no                           
   RPACOR =    1.500    partial core radius                                     
   POMASS =   26.981; ZVAL   =    3.000    mass and valenz                      
   RCORE  =    1.900    outmost cutoff radius                                   
   RWIGS  =    2.650; RWIGS  =    1.402    wigner-seitz radius (au A)           
   ENMAX  =  240.300; ENMIN  =  180.225 eV                                      
   ICORE  =        2    local potential                                         
   LCOR   =        T    correct aug charges                                     
   LPAW   =        T    paw PP                                                  
   EAUG   =  291.052                                                            
   DEXC   =    0.000                                                            
   RMAX   =    1.939    core radius for proj-oper                               
   RAUG   =    1.300    factor for augmentation sphere                          
   RDEP   =    1.966    radius for radial grids                                 
   RDEPT  =    1.856    core radius for aug-charge                              
                                                                                
   Atomic configuration                                                         
    6 entries                                                                   
     n  l   j            E        occ.                                          
     1  0  0.50     -1511.1048   2.0000                                         
     2  0  0.50      -108.1629   2.0000                                         
     2  1  1.50       -69.6402   6.0000                                         
     3  0  0.50        -7.7528   2.0000                                         
     3  1  1.50        -2.7121   1.0000                                         
     3  2  2.50        -2.7212   0.0000                                         
   Description                                                                  
     l       E           TYP  RCUT    TYP  RCUT                                 
     0     -7.7528455     23  1.900                                             
     0     -3.3096929     23  1.900                                             
     1     -2.7120682     23  1.900                                             
     1     13.6058260     23  1.900                                             
     2     -2.7211652      7  1.900                                             
  local pseudopotential read in
  partial core-charges read in
  partial kinetic energy density read in
  atomic valenz-charges read in
  non local Contribution for L=           0  read in
    real space projection operators read in
  non local Contribution for L=           0  read in
    real space projection operators read in
  non local Contribution for L=           1  read in
    real space projection operators read in
  non local Contribution for L=           1  read in
    real space projection operators read in
    PAW grid and wavefunctions read in
 
   number of l-projection  operators is LMAX  =           4
   number of lm-projection operators is LMMAX =           8
 

 ----------------------------------------------------------------------------- 
|                                                                             |
|  ADVICE TO THIS USER RUNNING 'VASP/VAMP'   (HEAR YOUR MASTER'S VOICE ...):  |
|                                                                             |
|      You have a (more or less) 'large supercell' and for larger cells       |
|      it might be more efficient to use real space projection opertators     |
|      So try LREAL= Auto  in the INCAR   file.                               |
|      Mind: At the moment your POTCAR file does not contain real space       |
|       projectors, and has to be modified,  BUT if you                       |
|      want to do an extremely  accurate calculation you might also keep the  |
|      reciprocal projection scheme          (i.e. LREAL=.FALSE.)             |
|                                                                             |
 ----------------------------------------------------------------------------- 

  PAW_PBE O 08Apr2002                   :
 energy of atom  1       EATOM= -432.3788
 kinetic energy error for atom=    0.0208 (will be added to EATOM!!)
  PAW_PBE Mg 13Apr2007                  :
 energy of atom  2       EATOM=  -23.0369
 kinetic energy error for atom=    0.0000 (will be added to EATOM!!)
  PAW_PBE Al 04Jan2001                  :
 energy of atom  3       EATOM=  -53.5387
 kinetic energy error for atom=    0.0002 (will be added to EATOM!!)
 
 
 POSCAR: Layer                                   
  positions in direct lattice
  velocities in cartesian coordinates
 exchange correlation table for  LEXCH =        8
   RHO(1)=    0.500       N(1)  =     2000
   RHO(2)=  100.500       N(2)  =     4000
 


--------------------------------------------------------------------------------------------------------


 ion  position               nearest neighbor table
   1  0.556  0.444  0.353-  14 2.15  15 2.15  14 2.15  14 2.15  15 2.15  15 2.15
   2  0.500  0.500  0.526-  16 2.15  17 2.15  16 2.15  16 2.15  17 2.15  17 2.15
   3  0.444  0.556  0.699-  19 2.15  18 2.15  19 2.15  19 2.15  18 2.15  18 2.15
   4  0.241  0.759  0.295-  14 2.15  14 2.15  14 2.15  10 2.17  10 2.17  10 2.17
   5  0.871  0.129  0.410-  15 2.15  11 2.15  15 2.15  15 2.15  11 2.15  11 2.15
   6  0.185  0.815  0.468-  16 2.15  11 2.15  16 2.15  16 2.15  11 2.15  11 2.15
   7  0.815  0.185  0.584-  17 2.15  12 2.15  17 2.15  17 2.15  12 2.15  12 2.15
   8  0.129  0.871  0.641-  18 2.15  12 2.15  18 2.15  18 2.15  12 2.15  12 2.15
   9  0.759  0.241  0.757-  19 2.15  19 2.15  19 2.15  13 2.17  13 2.17  13 2.17
  10  0.584  0.416  0.265-   4 2.17   4 2.17   4 2.17  14 3.11  14 3.11  14 3.11  21 3.20  21 3.20
                            21 3.20
  11  0.528  0.472  0.439-   5 2.15   6 2.15   5 2.15   5 2.15   6 2.15   6 2.15  15 3.08  15 3.08
                            16 3.09  16 3.09  15 3.09  16 3.09
  12  0.472  0.528  0.612-   8 2.15   7 2.15   8 2.15   8 2.15   7 2.15   7 2.15  18 3.08  18 3.08
                            17 3.09  17 3.09  18 3.09  17 3.09
  13  0.416  0.584  0.786-   9 2.17   9 2.17   9 2.17  19 3.11  19 3.11  19 3.11  24 3.20  24 3.20
                            24 3.20
  14  0.899  0.101  0.324-   1 2.15   4 2.15   1 2.15   1 2.15   4 2.15   4 2.15  15 3.09  15 3.09
                            15 3.09  10 3.11  10 3.11  10 3.11
  15  0.213  0.787  0.382-   5 2.15   1 2.15   5 2.15   5 2.15   1 2.15   1 2.15  11 3.08  11 3.08
                            14 3.09  14 3.09  11 3.09  14 3.09
  16  0.843  0.157  0.497-   6 2.15   2 2.15   6 2.15   6 2.15   2 2.15   2 2.15  11 3.09  11 3.09
                            11 3.09  17 3.09  17 3.09  17 3.09
  17  0.157  0.843  0.555-   7 2.15   2 2.15   7 2.15   7 2.15   2 2.15   2 2.15  12 3.09  12 3.09
                            12 3.09  16 3.09  16 3.09  16 3.09
  18  0.787  0.213  0.670-   8 2.15   3 2.15   8 2.15   8 2.15   3 2.15   3 2.15  12 3.08  12 3.08
                            19 3.09  19 3.09  12 3.09  19 3.09
  19  0.101  0.899  0.728-   3 2.15   9 2.15   3 2.15   3 2.15   9 2.15   9 2.15  18 3.09  18 3.09
                            18 3.09  13 3.11  13 3.11  13 3.11
  20  1.000  0.000  0.026-  25 3.10  23 3.10  23 3.10  23 3.10  25 3.10  25 3.10
  21  0.938  0.062  0.205-  10 3.20  10 3.20  10 3.20  22 3.20  22 3.21  22 3.21
  22  0.626  0.374  0.144-  23 3.15  23 3.16  23 3.16  21 3.20  21 3.21  21 3.21
  23  0.313  0.687  0.084-  20 3.10  20 3.10  20 3.10  22 3.15  22 3.16  22 3.16
  24  0.062  0.938  0.847-  13 3.20  13 3.20  13 3.20  26 3.20  26 3.21  26 3.21
  25  0.687  0.313  0.968-  20 3.10  20 3.10  20 3.10  26 3.15  26 3.16  26 3.16
  26  0.374  0.626  0.908-  25 3.15  25 3.16  25 3.16  24 3.20  24 3.21  24 3.21
 
  LATTYP: Found a base centered monoclinic cell.
 ALAT       =     5.1835214829
 B/A-ratio  =     0.5778353023
 C/A-ratio  =     8.7068549116
 COS(beta)  =    -0.1661748336
  
  Lattice vectors:
  
 A1 = (  -2.5925900058,   1.4952752266,  -0.0518951648)
 A2 = (   0.0013482762,   2.9928857368,  -0.0518951490)
 A3 = (   4.7735158528,  -8.2679694689, -44.1108484326)


Analysis of symmetry for initial positions (statically):
=====================================================================
 Subroutine PRICEL returns:
 Original cell was already a primitive cell.
 

 Routine SETGRP: Setting up the symmetry group for a 
 base centered monoclinic supercell.


 Subroutine GETGRP returns: Found  2 space group operations
 (whereof  2 operations were pure point group operations)
 out of a pool of  4 trial point group operations.


The static configuration has the point symmetry C_1h.


Analysis of symmetry for dynamics (positions and initial velocities):
=====================================================================
 Subroutine PRICEL returns:
 Original cell was already a primitive cell.
 

 Routine SETGRP: Setting up the symmetry group for a 
 base centered monoclinic supercell.


 Subroutine GETGRP returns: Found  2 space group operations
 (whereof  2 operations were pure point group operations)
 out of a pool of  4 trial point group operations.


The dynamic configuration has the point symmetry C_1h.


Analysis of constrained symmetry for selective dynamics:
=====================================================================
 Subroutine PRICEL returns:
 Original cell was already a primitive cell.
 

 Routine SETGRP: Setting up the symmetry group for a 
 base centered monoclinic supercell.


 Subroutine GETGRP returns: Found  2 space group operations
 (whereof  2 operations were pure point group operations)
 out of a pool of  4 trial point group operations.


The constrained configuration has the point symmetry C_1h.
 
 
 KPOINTS: K-Spacing Value to Generate K-Mesh: 0.02

Automatic generation of k-mesh.
Space group operators:
 irot       det(A)        alpha          n_x          n_y          n_z        tau_x        tau_y        tau_z
    1     1.000000     0.000001     1.000000     0.000000     0.000000     0.000000     0.000000     0.000000
    2    -1.000000   179.999999     0.866025     0.500000     0.000000     0.000000     0.000000     0.000000
 
 Subroutine IBZKPT returns following result:
 ===========================================
 
 Found     49 irreducible k-points:
 
 Following reciprocal coordinates:
            Coordinates               Weight
  0.000000  0.000000  0.000000      1.000000
  0.076923  0.000000  0.000000      4.000000
  0.153846  0.000000  0.000000      4.000000
  0.230769  0.000000 -0.000000      4.000000
  0.307692  0.000000 -0.000000      4.000000
  0.384615  0.000000 -0.000000      4.000000
  0.461538  0.000000 -0.000000      4.000000
  0.076923  0.076923 -0.000000      2.000000
  0.153846  0.076923  0.000000      4.000000
  0.230769  0.076923  0.000000      4.000000
  0.307692  0.076923 -0.000000      4.000000
  0.384615  0.076923 -0.000000      4.000000
  0.461538  0.076923 -0.000000      4.000000
 -0.461538  0.076923  0.000000      4.000000
 -0.384615  0.076923  0.000000      4.000000
 -0.307692  0.076923  0.000000      4.000000
 -0.230769  0.076923  0.000000      4.000000
 -0.153846  0.076923 -0.000000      4.000000
 -0.076923  0.076923 -0.000000      2.000000
  0.153846  0.153846  0.000000      2.000000
  0.230769  0.153846 -0.000000      4.000000
  0.307692  0.153846 -0.000000      4.000000
  0.384615  0.153846 -0.000000      4.000000
  0.461538  0.153846 -0.000000      4.000000
 -0.461538  0.153846  0.000000      4.000000
 -0.384615  0.153846  0.000000      4.000000
 -0.307692  0.153846 -0.000000      4.000000
 -0.230769  0.153846 -0.000000      4.000000
 -0.153846  0.153846  0.000000      2.000000
  0.230769  0.230769 -0.000000      2.000000
  0.307692  0.230769  0.000000      4.000000
  0.384615  0.230769 -0.000000      4.000000
  0.461538  0.230769 -0.000000      4.000000
 -0.461538  0.230769  0.000000      4.000000
 -0.384615  0.230769 -0.000000      4.000000
 -0.307692  0.230769 -0.000000      4.000000
 -0.230769  0.230769 -0.000000      2.000000
  0.307692  0.307692  0.000000      2.000000
  0.384615  0.307692 -0.000000      4.000000
  0.461538  0.307692 -0.000000      4.000000
 -0.461538  0.307692  0.000000      4.000000
 -0.384615  0.307692 -0.000000      4.000000
 -0.307692  0.307692  0.000000      2.000000
  0.384615  0.384615  0.000000      2.000000
  0.461538  0.384615 -0.000000      4.000000
 -0.461538  0.384615 -0.000000      4.000000
 -0.384615  0.384615  0.000000      2.000000
  0.461538  0.461538 -0.000000      2.000000
 -0.461538  0.461538 -0.000000      2.000000
 
 Following cartesian coordinates:
            Coordinates               Weight
  0.000000  0.000000  0.000000      1.000000
  0.029665 -0.000018 -0.000274      4.000000
  0.059331 -0.000036 -0.000548      4.000000
  0.088996 -0.000054 -0.000822      4.000000
  0.118662 -0.000072 -0.001096      4.000000
  0.148327 -0.000091 -0.001370      4.000000
  0.177992 -0.000109 -0.001644      4.000000
  0.044482  0.025682  0.000000      2.000000
  0.074148  0.025664 -0.000274      4.000000
  0.103813  0.025646 -0.000548      4.000000
  0.133479  0.025628 -0.000822      4.000000
  0.163144  0.025609 -0.001096      4.000000
  0.192809  0.025591 -0.001370      4.000000
 -0.163175  0.025809  0.001918      4.000000
 -0.133510  0.025791  0.001644      4.000000
 -0.103845  0.025773  0.001370      4.000000
 -0.074179  0.025754  0.001096      4.000000
 -0.044514  0.025736  0.000822      4.000000
 -0.014848  0.025718  0.000548      2.000000
  0.088965  0.051364  0.000000      2.000000
  0.118630  0.051346 -0.000274      4.000000
  0.148296  0.051328 -0.000548      4.000000
  0.177961  0.051310 -0.000822      4.000000
  0.207626  0.051291 -0.001096      4.000000
 -0.148358  0.051509  0.002192      4.000000
 -0.118693  0.051491  0.001918      4.000000
 -0.089028  0.051473  0.001644      4.000000
 -0.059362  0.051454  0.001370      4.000000
 -0.029697  0.051436  0.001096      2.000000
  0.133447  0.077046  0.000000      2.000000
  0.163113  0.077028 -0.000274      4.000000
  0.192778  0.077010 -0.000548      4.000000
  0.222443  0.076991 -0.000822      4.000000
 -0.133541  0.077209  0.002466      4.000000
 -0.103876  0.077191  0.002192      4.000000
 -0.074211  0.077173  0.001918      4.000000
 -0.044545  0.077155  0.001644      2.000000
  0.177930  0.102728  0.000000      2.000000
  0.207595  0.102710 -0.000274      4.000000
  0.237260  0.102692 -0.000548      4.000000
 -0.118724  0.102909  0.002740      4.000000
 -0.089059  0.102891  0.002466      4.000000
 -0.059394  0.102873  0.002192      2.000000
  0.222412  0.128410  0.000000      2.000000
  0.252077  0.128392 -0.000274      4.000000
 -0.103907  0.128609  0.003014      4.000000
 -0.074242  0.128591  0.002740      2.000000
  0.266894  0.154092  0.000000      2.000000
 -0.089090  0.154309  0.003288      2.000000
 


--------------------------------------------------------------------------------------------------------




 Dimension of arrays:
   k-points           NKPTS =     49   k-points in BZ     NKDIM =     49   number of bands    NBANDS=     62
   number of dos      NEDOS =    301   number of ions     NIONS =     26
   non local maximal  LDIM  =      5   non local SUM 2l+1 LMDIM =     13
   total plane-waves  NPLWV = 193536
   max r-space proj   IRMAX =      1   max aug-charges    IRDMAX= 191459
   dimension x,y,z NGX =    24 NGY =   24 NGZ =  336
   dimension x,y,z NGXF=    48 NGYF=   48 NGZF=  672
   support grid    NGXF=    96 NGYF=   96 NGZF= 1344
   ions per type =               9  10   7
 NGX,Y,Z   is equivalent  to a cutoff of  13.33, 13.33, 12.60 a.u.
 NGXF,Y,Z  is equivalent  to a cutoff of  26.66, 26.66, 25.20 a.u.


 I would recommend the setting:
   dimension x,y,z NGX =    22 NGY =   22 NGZ =  330
 SYSTEM =  unknown system                          
 POSCAR =  Layer                                   

 Startparameter for this run:
   NWRITE =      2    write-flag & timer
   PREC   = accura    normal or accurate (medium, high low for compatibility)
   ISTART =      0    job   : 0-new  1-cont  2-samecut
   ICHARG =      2    charge: 1-file 2-atom 10-const
   ISPIN  =      1    spin polarized calculation?
   LNONCOLLINEAR =      F non collinear calculations
   LSORBIT =      F    spin-orbit coupling
   INIWAV =      1    electr: 0-lowe 1-rand  2-diag
   LASPH  =      F    aspherical Exc in radial PAW
   METAGGA=      F    non-selfconsistent MetaGGA calc.

 Electronic Relaxation 1
   ENCUT  =  520.0 eV  38.22 Ry    6.18 a.u.   5.57  5.57 82.42*2*pi/ulx,y,z
   ENINI  =  520.0     initial cutoff
   ENAUG  =  605.4 eV  augmentation charge cutoff
   NELM   =    100;   NELMIN=  6; NELMDL=  0     # of ELM steps 
   EDIFF  = 0.1E-04   stopping-criterion for ELM
   LREAL  =      F    real-space projection
   NLSPLINE    = F    spline interpolate recip. space projectors
   LCOMPAT=      F    compatible to vasp.4.4
   GGA_COMPAT  = T    GGA compatible to vasp.4.4-vasp.4.6
   LMAXPAW     = -100 max onsite density
   LMAXMIX     =    2 max onsite mixed and CHGCAR
   VOSKOWN=      0    Vosko Wilk Nusair interpolation
   ROPT   =    0.00000   0.00000   0.00000
 Ionic relaxation
   EDIFFG = -.2E-01   stopping-criterion for IOM
   NSW    =    500    number of steps for IOM
   NBLOCK =      1;   KBLOCK =    500    inner block; outer block 
   IBRION =      2    ionic relax: 0-MD 1-quasi-New 2-CG
   NFREE  =      1    steps in history (QN), initial steepest desc. (CG)
   ISIF   =      2    stress and relaxation
   IWAVPR =     11    prediction:  0-non 1-charg 2-wave 3-comb
   ISYM   =      2    0-nonsym 1-usesym 2-fastsym
   LCORR  =      T    Harris-Foulkes like correction to forces

   POTIM  = 0.5000    time-step for ionic-motion
   TEIN   =    0.0    initial temperature
   TEBEG  =    0.0;   TEEND  =   0.0 temperature during run
   SMASS  =  -3.00    Nose mass-parameter (am)
   estimated Nose-frequenzy (Omega)   =  0.10E-29 period in steps =****** mass=  -0.205E-27a.u.
   SCALEE = 1.0000    scale energy and forces
   NPACO  =    256;   APACO  = 16.0  distance and # of slots for P.C.
   PSTRESS=    0.0 pullay stress

  Mass of Ions in am
   POMASS =  16.00 24.30 26.98
  Ionic Valenz
   ZVAL   =   6.00  2.00  3.00
  Atomic Wigner-Seitz radii
   RWIGS  =  -1.00 -1.00 -1.00
  virtual crystal weights 
   VCA    =   1.00  1.00  1.00
   NELECT =      95.0000    total number of electrons
   NUPDOWN=      -1.0000    fix difference up-down

 DOS related values:
   EMIN   =  10.00;   EMAX   =-10.00  energy-range for DOS
   EFERMI =   0.00
   ISMEAR =     0;   SIGMA  =   0.05  broadening in eV -4-tet -1-fermi 0-gaus

 Electronic relaxation 2 (details)
   IALGO  =     38    algorithm
   LDIAG  =      T    sub-space diagonalisation (order eigenvalues)
   LSUBROT=      F    optimize rotation matrix (better conditioning)
   TURBO    =      0    0=normal 1=particle mesh
   IRESTART =      0    0=no restart 2=restart with 2 vectors
   NREBOOT  =      0    no. of reboots
   NMIN     =      0    reboot dimension
   EREF     =   0.00    reference energy to select bands
   IMIX   =      4    mixing-type and parameters
     AMIX     =   0.40;   BMIX     =  1.00
     AMIX_MAG =   1.60;   BMIX_MAG =  1.00
     AMIN     =   0.01
     WC   =   100.;   INIMIX=   1;  MIXPRE=   1;  MAXMIX= -45

 Intra band minimization:
   WEIMIN = 0.0010     energy-eigenvalue tresh-hold
   EBREAK =  0.40E-07  absolut break condition
   DEPER  =   0.30     relativ break condition  

   TIME   =   0.40     timestep for ELM

  volume/ion in A,a.u.               =      13.22        89.24
  Fermi-wavevector in a.u.,A,eV,Ry     =   1.066258  2.014936 15.468561  1.136907
  Thomas-Fermi vector in A             =   2.201837
 
 Write flags
   LWAVE  =      F    write WAVECAR
   LCHARG =      T    write CHGCAR
   LVTOT  =      F    write LOCPOT, total local potential
   LVHAR  =      F    write LOCPOT, Hartree potential only
   LELF   =      F    write electronic localiz. function (ELF)
   LORBIT =      0    0 simple, 1 ext, 2 COOP (PROOUT)


 Dipole corrections
   LMONO  =      F    monopole corrections only (constant potential shift)
   LDIPOL =      F    correct potential (dipole corrections)
   IDIPOL =      0    1-x, 2-y, 3-z, 4-all directions 
   EPSILON=  1.0000000 bulk dielectric constant

 Exchange correlation treatment:
   GGA     =    --    GGA type
   LEXCH   =     8    internal setting for exchange type
   VOSKOWN=      0    Vosko Wilk Nusair interpolation
   LHFCALC =     F    Hartree Fock is set to
   LHFONE  =     F    Hartree Fock one center treatment
   AEXX    =    0.0000 exact exchange contribution

 Linear response parameters
   LEPSILON=     F    determine dielectric tensor
   LRPA    =     F    only Hartree local field effects (RPA)
   LNABLA  =     F    use nabla operator in PAW spheres
   LVEL    =     F    velocity operator in full k-point grid
   LINTERFAST=   F  fast interpolation
   KINTER  =     0    interpolate to denser k-point grid
   CSHIFT  =0.1000    complex shift for real part using Kramers Kronig
   OMEGAMAX=  -1.0    maximum frequency
   DEG_THRESHOLD= 0.2000000E-02 threshold for treating states as degnerate
   RTIME   =    0.100 relaxation time in fs

 Orbital magnetization related:
   ORBITALMAG=     F  switch on orbital magnetization
   LCHIMAG   =     F  perturbation theory with respect to B field
   DQ        =  0.001000  dq finite difference perturbation B field



--------------------------------------------------------------------------------------------------------


 conjugate gradient relaxation of ions
   using selective dynamics as specified on POSCAR
 charge density and potential will be updated during run
 non-spin polarized calculation
 Variant of blocked Davidson
 Davidson routine will perform the subspace rotation
 perform sub-space diagonalisation
    after iterative eigenvector-optimisation
 modified Broyden-mixing scheme, WC =      100.0
 initial mixing is a Kerker type mixing with AMIX =  0.4000 and BMIX =      1.0000
 Hartree-type preconditioning will be used
 using additional bands           14
 reciprocal scheme for non local part
 use partial core corrections
 calculate Harris-corrections to forces 
   (improved forces if not selfconsistent)
 use gradient corrections 
 use of overlap-Matrix (Vanderbilt PP)
 Gauss-broadening in eV      SIGMA  =   0.05


--------------------------------------------------------------------------------------------------------


  energy-cutoff  :      520.00
  volume of cell :      343.84
      direct lattice vectors                 reciprocal lattice vectors
     2.592590006 -1.495275227  0.051895165     0.385650153 -0.000235505 -0.003562519
     0.001348276  2.992885737 -0.051895149     0.192621123  0.334100684  0.003562519
     0.408967606 -0.708352458 44.318429060    -0.000226030  0.000391495  0.022572320

  length of vectors
     2.993336608  2.993335925 44.325976267     0.385666679  0.385666767  0.022576846


 
 k-points in units of 2pi/SCALE and weight: K-Spacing Value to Generate K-Mesh: 0.02
   0.00000000  0.00000000  0.00000000       0.006
   0.02966540 -0.00001812 -0.00027404       0.024
   0.05933079 -0.00003623 -0.00054808       0.024
   0.08899619 -0.00005435 -0.00082212       0.024
   0.11866159 -0.00007246 -0.00109616       0.024
   0.14832698 -0.00009058 -0.00137020       0.024
   0.17799238 -0.00010869 -0.00164424       0.024
   0.04448241  0.02568194  0.00000000       0.012
   0.07414780  0.02566382 -0.00027404       0.024
   0.10381320  0.02564571 -0.00054808       0.024
   0.13347859  0.02562759 -0.00082212       0.024
   0.16314399  0.02560947 -0.00109616       0.024
   0.19280939  0.02559136 -0.00137020       0.024
  -0.16317537  0.02580875  0.00191828       0.024
  -0.13350997  0.02579063  0.00164424       0.024
  -0.10384458  0.02577252  0.00137020       0.024
  -0.07417918  0.02575440  0.00109616       0.024
  -0.04451378  0.02573628  0.00082212       0.024
  -0.01484839  0.02571817  0.00054808       0.012
   0.08896481  0.05136387  0.00000000       0.012
   0.11863021  0.05134576 -0.00027404       0.024
   0.14829560  0.05132764 -0.00054808       0.024
   0.17796100  0.05130953 -0.00082212       0.024
   0.20762640  0.05129141 -0.00109616       0.024
  -0.14835836  0.05150880  0.00219232       0.024
  -0.11869296  0.05149068  0.00191828       0.024
  -0.08902757  0.05147257  0.00164424       0.024
  -0.05936217  0.05145445  0.00137020       0.024
  -0.02969677  0.05143634  0.00109616       0.012
   0.13344722  0.07704581  0.00000000       0.012
   0.16311261  0.07702769 -0.00027404       0.024
   0.19277801  0.07700958 -0.00054808       0.024
   0.22244341  0.07699146 -0.00082212       0.024
  -0.13354135  0.07720885  0.00246636       0.024
  -0.10387595  0.07719074  0.00219232       0.024
  -0.07421056  0.07717262  0.00191828       0.024
  -0.04454516  0.07715451  0.00164424       0.012
   0.17792962  0.10272775  0.00000000       0.012
   0.20759502  0.10270963 -0.00027404       0.024
   0.23726042  0.10269152 -0.00054808       0.024
  -0.11872434  0.10290891  0.00274040       0.024
  -0.08905894  0.10289079  0.00246636       0.024
  -0.05939355  0.10287267  0.00219232       0.012
   0.22241203  0.12840968  0.00000000       0.012
   0.25207743  0.12839157 -0.00027404       0.024
  -0.10390733  0.12860896  0.00301444       0.024
  -0.07424193  0.12859084  0.00274040       0.012
   0.26689444  0.15409162  0.00000000       0.012
  -0.08909032  0.15430901  0.00328848       0.012
 
 k-points in reciprocal lattice and weights: K-Spacing Value to Generate K-Mesh: 0.02
   0.00000000  0.00000000  0.00000000       0.006
   0.07692308  0.00000000  0.00000000       0.024
   0.15384615  0.00000000  0.00000000       0.024
   0.23076923  0.00000000 -0.00000000       0.024
   0.30769231  0.00000000 -0.00000000       0.024
   0.38461538  0.00000000 -0.00000000       0.024
   0.46153846  0.00000000 -0.00000000       0.024
   0.07692308  0.07692308 -0.00000000       0.012
   0.15384615  0.07692308  0.00000000       0.024
   0.23076923  0.07692308  0.00000000       0.024
   0.30769231  0.07692308 -0.00000000       0.024
   0.38461538  0.07692308 -0.00000000       0.024
   0.46153846  0.07692308 -0.00000000       0.024
  -0.46153846  0.07692308  0.00000000       0.024
  -0.38461538  0.07692308  0.00000000       0.024
  -0.30769231  0.07692308  0.00000000       0.024
  -0.23076923  0.07692308  0.00000000       0.024
  -0.15384615  0.07692308 -0.00000000       0.024
  -0.07692308  0.07692308 -0.00000000       0.012
   0.15384615  0.15384615  0.00000000       0.012
   0.23076923  0.15384615 -0.00000000       0.024
   0.30769231  0.15384615 -0.00000000       0.024
   0.38461538  0.15384615 -0.00000000       0.024
   0.46153846  0.15384615 -0.00000000       0.024
  -0.46153846  0.15384615  0.00000000       0.024
  -0.38461538  0.15384615  0.00000000       0.024
  -0.30769231  0.15384615 -0.00000000       0.024
  -0.23076923  0.15384615 -0.00000000       0.024
  -0.15384615  0.15384615  0.00000000       0.012
   0.23076923  0.23076923 -0.00000000       0.012
   0.30769231  0.23076923  0.00000000       0.024
   0.38461538  0.23076923 -0.00000000       0.024
   0.46153846  0.23076923 -0.00000000       0.024
  -0.46153846  0.23076923  0.00000000       0.024
  -0.38461538  0.23076923 -0.00000000       0.024
  -0.30769231  0.23076923 -0.00000000       0.024
  -0.23076923  0.23076923 -0.00000000       0.012
   0.30769231  0.30769231  0.00000000       0.012
   0.38461538  0.30769231 -0.00000000       0.024
   0.46153846  0.30769231 -0.00000000       0.024
  -0.46153846  0.30769231  0.00000000       0.024
  -0.38461538  0.30769231 -0.00000000       0.024
  -0.30769231  0.30769231  0.00000000       0.012
   0.38461538  0.38461538  0.00000000       0.012
   0.46153846  0.38461538 -0.00000000       0.024
  -0.46153846  0.38461538 -0.00000000       0.024
  -0.38461538  0.38461538  0.00000000       0.012
   0.46153846  0.46153846 -0.00000000       0.012
  -0.46153846  0.46153846 -0.00000000       0.012
 
 position of ions in fractional coordinates (direct lattice) 
   0.55600325  0.44399675  0.35264061
   0.50001569  0.49998431  0.52578907
   0.44402273  0.55597727  0.69893715
   0.24140811  0.75859189  0.29496991
   0.87064026  0.12935974  0.41035864
   0.18531313  0.81468687  0.46807568
   0.81471601  0.18528399  0.58350301
   0.12938840  0.87061160  0.64122021
   0.75861439  0.24138561  0.75660750
   0.58433644  0.41566356  0.26539652
   0.52797089  0.47202911  0.43921337
   0.47205884  0.52794116  0.61236484
   0.41568344  0.58431656  0.78618116
   0.89868707  0.10131293  0.32381497
   0.21331230  0.78668770  0.38151856
   0.84266516  0.15733484  0.49691964
   0.15736533  0.84263467  0.55465940
   0.78671522  0.21328478  0.67005947
   0.10133703  0.89866297  0.72776294
   0.99993309  0.00006691  0.02578966
   0.93779203  0.06220797  0.20454955
   0.62611631  0.37388369  0.14350982
   0.31301322  0.68698678  0.08390022
   0.06220279  0.93779721  0.84702719
   0.68688771  0.31311229  0.96767842
   0.37380116  0.62619884  0.90806750
 
 position of ions in cartesian coordinates  (Angst):
   1.58630569  0.24765981 15.63429048
   1.51204049  0.37629086 23.30214714
   1.43776114  0.50494643 30.96998646
   0.74752818  1.70046462 13.04576350
   2.42521103 -1.20536643 18.22491911
   0.67296718  1.82960803 20.71171729
   2.35110823 -1.07701666 25.89260137
   0.59886320  1.95795985 28.37940637
   2.27652950 -0.94784254 33.55849763
   1.62404383  0.18229546 11.77071018
   1.54907252  0.31214953 19.46814969
   1.47500423  0.44043952 27.13614785
   1.40000719  0.57033817 34.83356292
   2.46249354 -1.26994161 14.39235063
   0.71012074  1.76525618 16.87854768
   2.38812144 -1.14112538 22.05826336
   0.63595761  1.89371046 24.54607103
   2.31395021 -1.01265710 29.72574123
   0.56156848  2.02255617 32.21193268
   2.60296375 -1.51324308  1.19484532
   2.51504826 -1.36096903  9.11075344
   1.68245786  0.08111942  6.37321964
   0.84675365  1.52860112  3.69891840
   0.50893744  2.11371579 37.49347542
   2.17698950 -0.77543425 42.90538459
   1.34132762  0.67197413 40.23102669
 


--------------------------------------------------------------------------------------------------------


 k-point  1 :   0.0000 0.0000 0.0000  plane waves:    9389
 k-point  2 :   0.0769 0.0000 0.0000  plane waves:    9380
 k-point  3 :   0.1538 0.0000 0.0000  plane waves:    9346
 k-point  4 :   0.2308 0.0000-0.0000  plane waves:    9317
 k-point  5 :   0.3077 0.0000-0.0000  plane waves:    9264
 k-point  6 :   0.3846 0.0000-0.0000  plane waves:    9192
 k-point  7 :   0.4615 0.0000-0.0000  plane waves:    9210
 k-point  8 :   0.0769 0.0769-0.0000  plane waves:    9359
 k-point  9 :   0.1538 0.0769 0.0000  plane waves:    9333
 k-point 10 :   0.2308 0.0769 0.0000  plane waves:    9283
 k-point 11 :   0.3077 0.0769-0.0000  plane waves:    9250
 k-point 12 :   0.3846 0.0769-0.0000  plane waves:    9210
 k-point 13 :   0.4615 0.0769-0.0000  plane waves:    9184
 k-point 14 :  -0.4615 0.0769 0.0000  plane waves:    9204
 k-point 15 :  -0.3846 0.0769 0.0000  plane waves:    9251
 k-point 16 :  -0.3077 0.0769 0.0000  plane waves:    9275
 k-point 17 :  -0.2308 0.0769 0.0000  plane waves:    9333
 k-point 18 :  -0.1538 0.0769-0.0000  plane waves:    9365
 k-point 19 :  -0.0769 0.0769-0.0000  plane waves:    9384
 k-point 20 :   0.1538 0.1538 0.0000  plane waves:    9291
 k-point 21 :   0.2308 0.1538-0.0000  plane waves:    9253
 k-point 22 :   0.3077 0.1538-0.0000  plane waves:    9247
 k-point 23 :   0.3846 0.1538-0.0000  plane waves:    9206
 k-point 24 :   0.4615 0.1538-0.0000  plane waves:    9199
 k-point 25 :  -0.4615 0.1538 0.0000  plane waves:    9245
 k-point 26 :  -0.3846 0.1538 0.0000  plane waves:    9256
 k-point 27 :  -0.3077 0.1538-0.0000  plane waves:    9291
 k-point 28 :  -0.2308 0.1538-0.0000  plane waves:    9332
 k-point 29 :  -0.1538 0.1538 0.0000  plane waves:    9357
 k-point 30 :   0.2308 0.2308-0.0000  plane waves:    9252
 k-point 31 :   0.3077 0.2308 0.0000  plane waves:    9212
 k-point 32 :   0.3846 0.2308-0.0000  plane waves:    9237
 k-point 33 :   0.4615 0.2308-0.0000  plane waves:    9209
 k-point 34 :  -0.4615 0.2308 0.0000  plane waves:    9248
 k-point 35 :  -0.3846 0.2308-0.0000  plane waves:    9258
 k-point 36 :  -0.3077 0.2308-0.0000  plane waves:    9278
 k-point 37 :  -0.2308 0.2308-0.0000  plane waves:    9316
 k-point 38 :   0.3077 0.3077 0.0000  plane waves:    9252
 k-point 39 :   0.3846 0.3077-0.0000  plane waves:    9253
 k-point 40 :   0.4615 0.3077-0.0000  plane waves:    9211
 k-point 41 :  -0.4615 0.3077 0.0000  plane waves:    9236
 k-point 42 :  -0.3846 0.3077-0.0000  plane waves:    9254
 k-point 43 :  -0.3077 0.3077 0.0000  plane waves:    9260
 k-point 44 :   0.3846 0.3846 0.0000  plane waves:    9234
 k-point 45 :   0.4615 0.3846-0.0000  plane waves:    9199
 k-point 46 :  -0.4615 0.3846-0.0000  plane waves:    9214
 k-point 47 :  -0.3846 0.3846 0.0000  plane waves:    9211
 k-point 48 :   0.4615 0.4615-0.0000  plane waves:    9170
 k-point 49 :  -0.4615 0.4615-0.0000  plane waves:    9217

 maximum and minimum number of plane-waves per node :      2376     2277

 maximum number of plane-waves:      9389
 maximum index in each direction: 
   IXMAX=    6   IYMAX=    5   IZMAX=   82
   IXMIN=   -6   IYMIN=   -6   IZMIN=  -82

 WARNING: aliasing errors must be expected set NGX to  26 to avoid them
 NGY is ok and might be reduce to  24
 NGZ is ok and might be reduce to 330
 aliasing errors are usually negligible using standard VASP settings
 and one can safely disregard these warnings

 parallel 3D FFT for wavefunctions:
    minimum data exchange during FFTs selected (reduces bandwidth)
 parallel 3D FFT for charge:
    minimum data exchange during FFTs selected (reduces bandwidth)


 total amount of memory used by VASP on root node   206902. kBytes
========================================================================

   base      :      30000. kBytes
   nonl-proj :      36872. kBytes
   fftplans  :      57935. kBytes
   grid      :      23224. kBytes
   one-center:         56. kBytes
   wavefun   :      58815. kBytes
 
     INWAV:  cpu time    0.00: real time    0.00
 Broyden mixing: mesh for mixing (old mesh)
   NGX = 11   NGY = 11   NGZ =165
  (NGX  = 48   NGY  = 48   NGZ  =672)
  gives a total of  19965 points

 initial charge density was supplied:
 charge density of overlapping atoms calculated
 number of electron      95.0000000 magnetization 
 keeping initial charge density in first step


--------------------------------------------------------------------------------------------------------


 Maximum index for augmentation-charges        23311 (set IRDMAX)


--------------------------------------------------------------------------------------------------------


 First call to EWALD:  gamma=   0.253
 Maximum number of real-space cells 7x 7x 1
 Maximum number of reciprocal cells 1x 1x15

 FEWALD executed in parallel
    FEWALD:  cpu time    0.00: real time    0.00


----------------------------------------- Iteration    1(   1)  ---------------------------------------


    POTLOK:  cpu time    0.11: real time    0.11
    SETDIJ:  cpu time    0.11: real time    0.11
     EDDAV:  cpu time   10.33: real time   10.36
       DOS:  cpu time    0.00: real time    0.00
    --------------------------------------------
      LOOP:  cpu time   10.56: real time   10.59

 eigenvalue-minimisations  :  6100
 total energy-change (2. order) : 0.4723877E+03  (-0.4096651E+04)
 number of electron      95.0000000 magnetization 
 augmentation part       95.0000000 magnetization 

 Free energy of the ion-electron system (eV)
  ---------------------------------------------------
  alpha Z        PSCENC =       117.59479419
  Ewald energy   TEWEN  =     17748.73031451
  -Hartree energ DENC   =    -22465.14102981
  -exchange      EXHF   =         0.00000000
  -V(xc)+E(xc)   XCENC  =      -420.80433142
  PAW double counting   =      4235.41334458    -3509.29226066
  entropy T*S    EENTRO =        -0.00600219
  eigenvalues    EBANDS =       269.53314834
  atomic energy  EATOM  =      4496.35971583
  ---------------------------------------------------
  free energy    TOTEN  =       472.38769337 eV

  energy without entropy =      472.39369556  energy(sigma->0) =      472.39069447


--------------------------------------------------------------------------------------------------------




----------------------------------------- Iteration    1(   2)  ---------------------------------------


     EDDAV:  cpu time   12.73: real time   12.74
       DOS:  cpu time    0.00: real time    0.00
    --------------------------------------------
      LOOP:  cpu time   12.73: real time   12.75

 eigenvalue-minimisations  :  7960
 total energy-change (2. order) :-0.5621487E+03  (-0.5318115E+03)
 number of electron      95.0000000 magnetization 
 augmentation part       95.0000000 magnetization 

 Free energy of the ion-electron system (eV)
  ---------------------------------------------------
  alpha Z        PSCENC =       117.59479419
  Ewald energy   TEWEN  =     17748.73031451
  -Hartree energ DENC   =    -22465.14102981
  -exchange      EXHF   =         0.00000000
  -V(xc)+E(xc)   XCENC  =      -420.80433142
  PAW double counting   =      4235.41334458    -3509.29226066
  entropy T*S    EENTRO =        -0.00414807
  eigenvalues    EBANDS =      -292.61745306
  atomic energy  EATOM  =      4496.35971583
  ---------------------------------------------------
  free energy    TOTEN  =       -89.76105391 eV

  energy without entropy =      -89.75690584  energy(sigma->0) =      -89.75897988


--------------------------------------------------------------------------------------------------------




----------------------------------------- Iteration    1(   3)  ---------------------------------------


     EDDAV:  cpu time   11.56: real time   11.57
       DOS:  cpu time    0.00: real time    0.00
    --------------------------------------------
      LOOP:  cpu time   11.56: real time   11.57

 eigenvalue-minimisations  :  7098
 total energy-change (2. order) :-0.5685626E+02  (-0.5649724E+02)
 number of electron      95.0000000 magnetization 
 augmentation part       95.0000000 magnetization 

 Free energy of the ion-electron system (eV)
  ---------------------------------------------------
  alpha Z        PSCENC =       117.59479419
  Ewald energy   TEWEN  =     17748.73031451
  -Hartree energ DENC   =    -22465.14102981
  -exchange      EXHF   =         0.00000000
  -V(xc)+E(xc)   XCENC  =      -420.80433142
  PAW double counting   =      4235.41334458    -3509.29226066
  entropy T*S    EENTRO =        -0.00557685
  eigenvalues    EBANDS =      -349.47228774
  atomic energy  EATOM  =      4496.35971583
  ---------------------------------------------------
  free energy    TOTEN  =      -146.61731737 eV

  energy without entropy =     -146.61174052  energy(sigma->0) =     -146.61452894


--------------------------------------------------------------------------------------------------------




----------------------------------------- Iteration    1(   4)  ---------------------------------------


     EDDAV:  cpu time   11.61: real time   11.62
       DOS:  cpu time    0.00: real time    0.00
    --------------------------------------------
      LOOP:  cpu time   11.62: real time   11.63

 eigenvalue-minimisations  :  7136
 total energy-change (2. order) :-0.7691450E+00  (-0.7674920E+00)
 number of electron      95.0000000 magnetization 
 augmentation part       95.0000000 magnetization 

 Free energy of the ion-electron system (eV)
  ---------------------------------------------------
  alpha Z        PSCENC =       117.59479419
  Ewald energy   TEWEN  =     17748.73031451
  -Hartree energ DENC   =    -22465.14102981
  -exchange      EXHF   =         0.00000000
  -V(xc)+E(xc)   XCENC  =      -420.80433142
  PAW double counting   =      4235.41334458    -3509.29226066
  entropy T*S    EENTRO =        -0.00572950
  eigenvalues    EBANDS =      -350.24128009
  atomic energy  EATOM  =      4496.35971583
  ---------------------------------------------------
  free energy    TOTEN  =      -147.38646236 eV

  energy without entropy =     -147.38073287  energy(sigma->0) =     -147.38359762


--------------------------------------------------------------------------------------------------------




----------------------------------------- Iteration    1(   5)  ---------------------------------------


     EDDAV:  cpu time   11.54: real time   11.55
       DOS:  cpu time    0.00: real time    0.00
    CHARGE:  cpu time    0.76: real time    0.76
    MIXING:  cpu time    0.01: real time    0.01
    --------------------------------------------
      LOOP:  cpu time   12.31: real time   12.32

 eigenvalue-minimisations  :  7134
 total energy-change (2. order) :-0.1189033E-01  (-0.1188426E-01)
 number of electron      95.0000001 magnetization 
 augmentation part        6.8976416 magnetization 

 Broyden mixing:
  rms(total) = 0.21935E+01    rms(broyden)= 0.21930E+01
  rms(prec ) = 0.22430E+01
  weight for this iteration     100.00

 Free energy of the ion-electron system (eV)
  ---------------------------------------------------
  alpha Z        PSCENC =       117.59479419
  Ewald energy   TEWEN  =     17748.73031451
  -Hartree energ DENC   =    -22465.14102981
  -exchange      EXHF   =         0.00000000
  -V(xc)+E(xc)   XCENC  =      -420.80433142
  PAW double counting   =      4235.41334458    -3509.29226066
  entropy T*S    EENTRO =        -0.00573683
  eigenvalues    EBANDS =      -350.25316308
  atomic energy  EATOM  =      4496.35971583
  ---------------------------------------------------
  free energy    TOTEN  =      -147.39835269 eV

  energy without entropy =     -147.39261586  energy(sigma->0) =     -147.39548428


--------------------------------------------------------------------------------------------------------




----------------------------------------- Iteration    1(   6)  ---------------------------------------


    POTLOK:  cpu time    0.11: real time    0.11
    SETDIJ:  cpu time    0.11: real time    0.11
     EDDAV:  cpu time   11.60: real time   11.61
       DOS:  cpu time    0.00: real time    0.00
    CHARGE:  cpu time    0.72: real time    0.72
    MIXING:  cpu time    0.01: real time    0.01
    --------------------------------------------
      LOOP:  cpu time   12.55: real time   12.56

 eigenvalue-minimisations  :  7162
 total energy-change (2. order) : 0.1441551E+02  (-0.8364784E+01)
 number of electron      95.0000002 magnetization 
 augmentation part        5.5505874 magnetization 

 Broyden mixing:
  rms(total) = 0.75237E+00    rms(broyden)= 0.75146E+00
  rms(prec ) = 0.75833E+00
  weight for this iteration     100.00

 eigenvalues of (default mixing * dielectric matrix)
  average eigenvalue GAMMA=   0.8323
  0.8323

 Free energy of the ion-electron system (eV)
  ---------------------------------------------------
  alpha Z        PSCENC =       117.59479419
  Ewald energy   TEWEN  =     17748.73031451
  -Hartree energ DENC   =    -22640.96377720
  -exchange      EXHF   =         0.00000000
  -V(xc)+E(xc)   XCENC  =      -408.62582377
  PAW double counting   =      4979.83334868    -4256.77457156
  entropy T*S    EENTRO =        -0.00417100
  eigenvalues    EBANDS =      -169.13267198
  atomic energy  EATOM  =      4496.35971583
  ---------------------------------------------------
  free energy    TOTEN  =      -132.98284229 eV

  energy without entropy =     -132.97867130  energy(sigma->0) =     -132.98075680


--------------------------------------------------------------------------------------------------------




----------------------------------------- Iteration    1(   7)  ---------------------------------------


    POTLOK:  cpu time    0.11: real time    0.11
    SETDIJ:  cpu time    0.10: real time    0.10
     EDDAV:  cpu time   10.95: real time   10.96
       DOS:  cpu time    0.00: real time    0.00
    CHARGE:  cpu time    0.73: real time    0.73
    MIXING:  cpu time    0.01: real time    0.01
    --------------------------------------------
      LOOP:  cpu time   11.91: real time   11.91

 eigenvalue-minimisations  :  6736
 total energy-change (2. order) : 0.1143243E+00  (-0.1802748E+00)
 number of electron      95.0000002 magnetization 
 augmentation part        5.5956887 magnetization 

 Broyden mixing:
  rms(total) = 0.45834E+00    rms(broyden)= 0.45833E+00
  rms(prec ) = 0.46274E+00
  weight for this iteration     100.00

 eigenvalues of (default mixing * dielectric matrix)
  average eigenvalue GAMMA=   1.6447
  0.9707  2.3188

 Free energy of the ion-electron system (eV)
  ---------------------------------------------------
  alpha Z        PSCENC =       117.59479419
  Ewald energy   TEWEN  =     17748.73031451
  -Hartree energ DENC   =    -22637.94134380
  -exchange      EXHF   =         0.00000000
  -V(xc)+E(xc)   XCENC  =      -408.38101602
  PAW double counting   =      5220.16003520    -4496.64243972
  entropy T*S    EENTRO =        -0.00503120
  eigenvalues    EBANDS =      -172.74354699
  atomic energy  EATOM  =      4496.35971583
  ---------------------------------------------------
  free energy    TOTEN  =      -132.86851799 eV

  energy without entropy =     -132.86348679  energy(sigma->0) =     -132.86600239


--------------------------------------------------------------------------------------------------------




----------------------------------------- Iteration    1(   8)  ---------------------------------------


    POTLOK:  cpu time    0.10: real time    0.10
    SETDIJ:  cpu time    0.10: real time    0.10
     EDDAV:  cpu time   11.43: real time   11.44
       DOS:  cpu time    0.00: real time    0.00
    CHARGE:  cpu time    0.73: real time    0.73
    MIXING:  cpu time    0.00: real time    0.00
    --------------------------------------------
      LOOP:  cpu time   12.36: real time   12.38

 eigenvalue-minimisations  :  7010
 total energy-change (2. order) : 0.1010480E+00  (-0.5096799E-01)
 number of electron      95.0000002 magnetization 
 augmentation part        5.6522538 magnetization 

 Broyden mixing:
  rms(total) = 0.86127E-01    rms(broyden)= 0.86071E-01
  rms(prec ) = 0.89857E-01
  weight for this iteration     100.00

 eigenvalues of (default mixing * dielectric matrix)
  average eigenvalue GAMMA=   1.3722
  2.4358  0.9023  0.7785

 Free energy of the ion-electron system (eV)
  ---------------------------------------------------
  alpha Z        PSCENC =       117.59479419
  Ewald energy   TEWEN  =     17748.73031451
  -Hartree energ DENC   =    -22642.64268288
  -exchange      EXHF   =         0.00000000
  -V(xc)+E(xc)   XCENC  =      -407.04456366
  PAW double counting   =      5651.89293500    -4928.01640068
  entropy T*S    EENTRO =        -0.00495113
  eigenvalues    EBANDS =      -169.63663120
  atomic energy  EATOM  =      4496.35971583
  ---------------------------------------------------
  free energy    TOTEN  =      -132.76747002 eV

  energy without entropy =     -132.76251889  energy(sigma->0) =     -132.76499445


--------------------------------------------------------------------------------------------------------




----------------------------------------- Iteration    1(   9)  ---------------------------------------


    POTLOK:  cpu time    0.10: real time    0.11
    SETDIJ:  cpu time    0.10: real time    0.10
     EDDAV:  cpu time   11.37: real time   11.38
       DOS:  cpu time    0.00: real time    0.00
    CHARGE:  cpu time    0.77: real time    0.77
    MIXING:  cpu time    0.00: real time    0.00
    --------------------------------------------
      LOOP:  cpu time   12.36: real time   12.37

 eigenvalue-minimisations  :  6948
 total energy-change (2. order) : 0.1497225E-01  (-0.6292717E-02)
 number of electron      95.0000002 magnetization 
 augmentation part        5.6268198 magnetization 

 Broyden mixing:
  rms(total) = 0.46891E-01    rms(broyden)= 0.46889E-01
  rms(prec ) = 0.47574E-01
  weight for this iteration     100.00

 eigenvalues of (default mixing * dielectric matrix)
  average eigenvalue GAMMA=   1.5098
  2.4711  0.9825  0.9825  1.6028

 Free energy of the ion-electron system (eV)
  ---------------------------------------------------
  alpha Z        PSCENC =       117.59479419
  Ewald energy   TEWEN  =     17748.73031451
  -Hartree energ DENC   =    -22646.95900042
  -exchange      EXHF   =         0.00000000
  -V(xc)+E(xc)   XCENC  =      -406.67366203
  PAW double counting   =      5664.89785308    -4941.08088030
  entropy T*S    EENTRO =        -0.00483890
  eigenvalues    EBANDS =      -165.61679373
  atomic energy  EATOM  =      4496.35971583
  ---------------------------------------------------
  free energy    TOTEN  =      -132.75249777 eV

  energy without entropy =     -132.74765886  energy(sigma->0) =     -132.75007831


--------------------------------------------------------------------------------------------------------




----------------------------------------- Iteration    1(  10)  ---------------------------------------


    POTLOK:  cpu time    0.11: real time    0.11
    SETDIJ:  cpu time    0.10: real time    0.10
     EDDAV:  cpu time   11.11: real time   11.12
       DOS:  cpu time    0.00: real time    0.00
    CHARGE:  cpu time    0.74: real time    0.74
    MIXING:  cpu time    0.01: real time    0.01
    --------------------------------------------
      LOOP:  cpu time   12.07: real time   12.08

 eigenvalue-minimisations  :  6820
 total energy-change (2. order) :-0.1145484E-02  (-0.5194825E-02)
 number of electron      95.0000002 magnetization 
 augmentation part        5.6078627 magnetization 

 Broyden mixing:
  rms(total) = 0.27258E-01    rms(broyden)= 0.27233E-01
  rms(prec ) = 0.28056E-01
  weight for this iteration     100.00

 eigenvalues of (default mixing * dielectric matrix)
  average eigenvalue GAMMA=   1.2905
  2.5151  1.6263  0.9181  0.9181  0.4751

 Free energy of the ion-electron system (eV)
  ---------------------------------------------------
  alpha Z        PSCENC =       117.59479419
  Ewald energy   TEWEN  =     17748.73031451
  -Hartree energ DENC   =    -22648.86237573
  -exchange      EXHF   =         0.00000000
  -V(xc)+E(xc)   XCENC  =      -406.49340314
  PAW double counting   =      5644.38447495    -4920.59943076
  entropy T*S    EENTRO =        -0.00475925
  eigenvalues    EBANDS =      -163.86297385
  atomic energy  EATOM  =      4496.35971583
  ---------------------------------------------------
  free energy    TOTEN  =      -132.75364325 eV

  energy without entropy =     -132.74888400  energy(sigma->0) =     -132.75126363


--------------------------------------------------------------------------------------------------------




----------------------------------------- Iteration    1(  11)  ---------------------------------------


    POTLOK:  cpu time    0.11: real time    0.11
    SETDIJ:  cpu time    0.11: real time    0.11
     EDDAV:  cpu time   11.29: real time   11.30
       DOS:  cpu time    0.00: real time    0.00
    CHARGE:  cpu time    0.73: real time    0.73
    MIXING:  cpu time    0.01: real time    0.01
    --------------------------------------------
      LOOP:  cpu time   12.25: real time   12.26

 eigenvalue-minimisations  :  6978
 total energy-change (2. order) : 0.3514427E-03  (-0.3785322E-03)
 number of electron      95.0000002 magnetization 
 augmentation part        5.6105588 magnetization 

 Broyden mixing:
  rms(total) = 0.19758E-01    rms(broyden)= 0.19758E-01
  rms(prec ) = 0.20030E-01
  weight for this iteration     100.00

 eigenvalues of (default mixing * dielectric matrix)
  average eigenvalue GAMMA=   1.4188
  2.6903  2.1564  0.9606  0.8531  0.9261  0.9261

 Free energy of the ion-electron system (eV)
  ---------------------------------------------------
  alpha Z        PSCENC =       117.59479419
  Ewald energy   TEWEN  =     17748.73031451
  -Hartree energ DENC   =    -22648.84912270
  -exchange      EXHF   =         0.00000000
  -V(xc)+E(xc)   XCENC  =      -406.47055638
  PAW double counting   =      5633.32962267    -4909.54563671
  entropy T*S    EENTRO =        -0.00478393
  eigenvalues    EBANDS =      -163.89763930
  atomic energy  EATOM  =      4496.35971583
  ---------------------------------------------------
  free energy    TOTEN  =      -132.75329181 eV

  energy without entropy =     -132.74850788  energy(sigma->0) =     -132.75089985


--------------------------------------------------------------------------------------------------------




----------------------------------------- Iteration    1(  12)  ---------------------------------------


    POTLOK:  cpu time    0.11: real time    0.11
    SETDIJ:  cpu time    0.10: real time    0.10
     EDDAV:  cpu time   12.43: real time   12.44
       DOS:  cpu time    0.00: real time    0.00
    CHARGE:  cpu time    0.74: real time    0.74
    MIXING:  cpu time    0.01: real time    0.01
    --------------------------------------------
      LOOP:  cpu time   13.38: real time   13.39

 eigenvalue-minimisations  :  7816
 total energy-change (2. order) : 0.5094886E-04  (-0.6309263E-03)
 number of electron      95.0000002 magnetization 
 augmentation part        5.6100952 magnetization 

 Broyden mixing:
  rms(total) = 0.90840E-02    rms(broyden)= 0.90743E-02
  rms(prec ) = 0.92608E-02
  weight for this iteration     100.00

 eigenvalues of (default mixing * dielectric matrix)
  average eigenvalue GAMMA=   1.3899
  2.8343  2.4992  0.9044  0.9044  0.9574  0.9574  0.6722

 Free energy of the ion-electron system (eV)
  ---------------------------------------------------
  alpha Z        PSCENC =       117.59479419
  Ewald energy   TEWEN  =     17748.73031451
  -Hartree energ DENC   =    -22649.03964058
  -exchange      EXHF   =         0.00000000
  -V(xc)+E(xc)   XCENC  =      -406.43308974
  PAW double counting   =      5617.49631999    -4893.72628111
  entropy T*S    EENTRO =        -0.00479343
  eigenvalues    EBANDS =      -163.73058053
  atomic energy  EATOM  =      4496.35971583
  ---------------------------------------------------
  free energy    TOTEN  =      -132.75324086 eV

  energy without entropy =     -132.74844743  energy(sigma->0) =     -132.75084415


--------------------------------------------------------------------------------------------------------




----------------------------------------- Iteration    1(  13)  ---------------------------------------


    POTLOK:  cpu time    0.11: real time    0.11
    SETDIJ:  cpu time    0.11: real time    0.11
     EDDAV:  cpu time   11.27: real time   11.28
       DOS:  cpu time    0.00: real time    0.00
    CHARGE:  cpu time    0.73: real time    0.73
    MIXING:  cpu time    0.01: real time    0.01
    --------------------------------------------
      LOOP:  cpu time   12.23: real time   12.24

 eigenvalue-minimisations  :  6924
 total energy-change (2. order) : 0.1466109E-04  (-0.1459285E-03)
 number of electron      95.0000002 magnetization 
 augmentation part        5.6130223 magnetization 

 Broyden mixing:
  rms(total) = 0.62449E-02    rms(broyden)= 0.62437E-02
  rms(prec ) = 0.63527E-02
  weight for this iteration     100.00

 eigenvalues of (default mixing * dielectric matrix)
  average eigenvalue GAMMA=   1.3589
  2.8725  2.5147  0.9309  0.9309  1.0291  0.9205  0.9205  0.7520

 Free energy of the ion-electron system (eV)
  ---------------------------------------------------
  alpha Z        PSCENC =       117.59479419
  Ewald energy   TEWEN  =     17748.73031451
  -Hartree energ DENC   =    -22648.64606541
  -exchange      EXHF   =         0.00000000
  -V(xc)+E(xc)   XCENC  =      -406.45526143
  PAW double counting   =      5607.84740606    -4884.07442074
  entropy T*S    EENTRO =        -0.00480924
  eigenvalues    EBANDS =      -164.10489997
  atomic energy  EATOM  =      4496.35971583
  ---------------------------------------------------
  free energy    TOTEN  =      -132.75322620 eV

  energy without entropy =     -132.74841696  energy(sigma->0) =     -132.75082158


--------------------------------------------------------------------------------------------------------




----------------------------------------- Iteration    1(  14)  ---------------------------------------


    POTLOK:  cpu time    0.11: real time    0.11
    SETDIJ:  cpu time    0.10: real time    0.10
     EDDAV:  cpu time   11.21: real time   11.22
       DOS:  cpu time    0.00: real time    0.00
    CHARGE:  cpu time    0.73: real time    0.73
    MIXING:  cpu time    0.01: real time    0.01
    --------------------------------------------
      LOOP:  cpu time   12.16: real time   12.17

 eigenvalue-minimisations  :  6906
 total energy-change (2. order) : 0.5837018E-04  (-0.3485766E-04)
 number of electron      95.0000002 magnetization 
 augmentation part        5.6136349 magnetization 

 Broyden mixing:
  rms(total) = 0.20831E-02    rms(broyden)= 0.20808E-02
  rms(prec ) = 0.21561E-02
  weight for this iteration     100.00

 eigenvalues of (default mixing * dielectric matrix)
  average eigenvalue GAMMA=   1.4425
  2.9991  2.6203  1.7305  0.9367  0.9367  1.0762  0.9833  0.9833  0.7164

 Free energy of the ion-electron system (eV)
  ---------------------------------------------------
  alpha Z        PSCENC =       117.59479419
  Ewald energy   TEWEN  =     17748.73031451
  -Hartree energ DENC   =    -22648.61285716
  -exchange      EXHF   =         0.00000000
  -V(xc)+E(xc)   XCENC  =      -406.45785148
  PAW double counting   =      5607.17655330    -4883.40200620
  entropy T*S    EENTRO =        -0.00480480
  eigenvalues    EBANDS =      -164.13702602
  atomic energy  EATOM  =      4496.35971583
  ---------------------------------------------------
  free energy    TOTEN  =      -132.75316783 eV

  energy without entropy =     -132.74836303  energy(sigma->0) =     -132.75076543


--------------------------------------------------------------------------------------------------------




----------------------------------------- Iteration    1(  15)  ---------------------------------------


    POTLOK:  cpu time    0.10: real time    0.10
    SETDIJ:  cpu time    0.10: real time    0.10
     EDDAV:  cpu time   10.95: real time   10.96
       DOS:  cpu time    0.00: real time    0.00
    CHARGE:  cpu time    0.74: real time    0.74
    MIXING:  cpu time    0.01: real time    0.01
    --------------------------------------------
      LOOP:  cpu time   11.91: real time   11.93

 eigenvalue-minimisations  :  6768
 total energy-change (2. order) : 0.3254129E-05  (-0.1384420E-04)
 number of electron      95.0000002 magnetization 
 augmentation part        5.6131031 magnetization 

 Broyden mixing:
  rms(total) = 0.13705E-02    rms(broyden)= 0.13693E-02
  rms(prec ) = 0.14559E-02
  weight for this iteration     100.00

 eigenvalues of (default mixing * dielectric matrix)
  average eigenvalue GAMMA=   1.3798
  2.9348  2.2972  2.2972  0.9356  0.9356  0.9750  0.9750  0.8580  0.8580  0.7318

 Free energy of the ion-electron system (eV)
  ---------------------------------------------------
  alpha Z        PSCENC =       117.59479419
  Ewald energy   TEWEN  =     17748.73031451
  -Hartree energ DENC   =    -22648.67113727
  -exchange      EXHF   =         0.00000000
  -V(xc)+E(xc)   XCENC  =      -406.45562636
  PAW double counting   =      5606.82263114    -4883.04892873
  entropy T*S    EENTRO =        -0.00480326
  eigenvalues    EBANDS =      -164.08012463
  atomic energy  EATOM  =      4496.35971583
  ---------------------------------------------------
  free energy    TOTEN  =      -132.75316457 eV

  energy without entropy =     -132.74836131  energy(sigma->0) =     -132.75076294


--------------------------------------------------------------------------------------------------------




----------------------------------------- Iteration    1(  16)  ---------------------------------------


    POTLOK:  cpu time    0.11: real time    0.11
    SETDIJ:  cpu time    0.11: real time    0.11
     EDDAV:  cpu time    7.63: real time    7.63
       DOS:  cpu time    0.00: real time    0.00
    --------------------------------------------
      LOOP:  cpu time    7.85: real time    7.86

 eigenvalue-minimisations  :  3776
 total energy-change (2. order) : 0.5166959E-05  (-0.5056353E-06)
 number of electron      95.0000002 magnetization 
 augmentation part        5.6131031 magnetization 

 Free energy of the ion-electron system (eV)
  ---------------------------------------------------
  alpha Z        PSCENC =       117.59479419
  Ewald energy   TEWEN  =     17748.73031451
  -Hartree energ DENC   =    -22648.71389212
  -exchange      EXHF   =         0.00000000
  -V(xc)+E(xc)   XCENC  =      -406.45347445
  PAW double counting   =      5607.38292883    -4883.60953612
  entropy T*S    EENTRO =        -0.00480057
  eigenvalues    EBANDS =      -164.03920951
  atomic energy  EATOM  =      4496.35971583
  ---------------------------------------------------
  free energy    TOTEN  =      -132.75315941 eV

  energy without entropy =     -132.74835884  energy(sigma->0) =     -132.75075912


--------------------------------------------------------------------------------------------------------




 average (electrostatic) potential at core
  the test charge radii are     0.7215  1.0714  1.0406
  (the norm of the test charge is              1.0000)
       1 -70.3523       2 -70.3597       3 -70.3520       4 -70.4256       5 -70.3628
       6 -70.3656       7 -70.3660       8 -70.3628       9 -70.4256      10 -36.2286
      11 -36.0603      12 -36.0606      13 -36.2286      14 -36.0491      15 -36.0514
      16 -36.0588      17 -36.0591      18 -36.0513      19 -36.0490      20 -74.9186
      21 -74.8619      22 -74.9925      23 -74.9225      24 -74.8620      25 -74.9228
      26 -74.9927
 
 
 
 E-fermi :   5.9747     XC(G=0): -10.0940     alpha+bet :-11.9299


 k-point     1 :       0.0000    0.0000    0.0000
  band No.  band energies     occupation 
      1     -14.5559      2.00000
      2     -14.4897      2.00000
      3     -14.3863      2.00000
      4     -14.2557      2.00000
      5     -14.0990      2.00000
      6     -13.9353      2.00000
      7     -13.7761      2.00000
      8     -13.6487      2.00000
      9     -13.5659      2.00000
     10      -3.7554      2.00000
     11      -3.4125      2.00000
     12      -3.0247      2.00000
     13      -2.5173      2.00000
     14      -2.0684      2.00000
     15      -2.0196      2.00000
     16      -1.7105      2.00000
     17      -1.5989      2.00000
     18      -1.0646      2.00000
     19      -0.9918      2.00000
     20      -0.4105      2.00000
     21      -0.1010      2.00000
     22       0.4362      2.00000
     23       0.7127      2.00000
     24       1.4052      2.00000
     25       1.7978      2.00000
     26       1.9960      2.00000
     27       1.9991      2.00000
     28       2.0328      2.00000
     29       2.0358      2.00000
     30       2.0888      2.00000
     31       2.0916      2.00000
     32       2.1200      2.00000
     33       2.1549      2.00000
     34       2.1575      2.00000
     35       2.2347      2.00000
     36       2.2370      2.00000
     37       2.3152      2.00000
     38       2.3172      2.00000
     39       2.3939      2.00000
     40       2.3955      2.00000
     41       2.4528      2.00000
     42       2.4542      2.00000
     43       2.4896      2.00000
     44       2.4905      2.00000
     45       2.8055      2.00000
     46       3.9093      2.00000
     47       5.1825      2.00000
     48       6.3626      0.00000
     49       6.6986      0.00000
     50       7.3771      0.00000
     51       7.4763      0.00000
     52       8.3601      0.00000
     53       8.4850      0.00000
     54       9.3077      0.00000
     55       9.3948      0.00000
     56       9.9712      0.00000
     57      10.0168      0.00000
     58      10.1891      0.00000
     59      10.9084      0.00000
     60      12.1752      0.00000
     61      13.7089      0.00000
     62      13.8039      0.00000

 k-point     2 :       0.0769    0.0000    0.0000
  band No.  band energies     occupation 
      1     -14.5038      2.00000
      2     -14.4391      2.00000
      3     -14.3381      2.00000
      4     -14.2108      2.00000
      5     -14.0581      2.00000
      6     -13.8988      2.00000
      7     -13.7440      2.00000
      8     -13.6204      2.00000
      9     -13.5404      2.00000
     10      -3.6253      2.00000
     11      -3.2827      2.00000
     12      -2.8957      2.00000
     13      -2.3912      2.00000
     14      -1.9867      2.00000
     15      -1.9193      2.00000
     16      -1.6165      2.00000
     17      -1.5225      2.00000
     18      -1.0093      2.00000
     19      -0.8993      2.00000
     20      -0.3650      2.00000
     21      -0.0659      2.00000
     22       0.5032      2.00000
     23       0.6774      2.00000
     24       1.3182      2.00000
     25       1.7122      2.00000
     26       1.7644      2.00000
     27       1.8071      2.00000
     28       1.8729      2.00000
     29       1.9485      2.00000
     30       1.9545      2.00000
     31       1.9916      2.00000
     32       2.0405      2.00000
     33       2.0479      2.00000
     34       2.0932      2.00000
     35       2.1144      2.00000
     36       2.1531      2.00000
     37       2.1757      2.00000
     38       2.1947      2.00000
     39       2.2117      2.00000
     40       2.2582      2.00000
     41       2.2757      2.00000
     42       2.3549      2.00000
     43       2.4142      2.00000
     44       2.4510      2.00000
     45       2.9346      2.00000
     46       4.0430      2.00000
     47       5.3334      2.00000
     48       6.5548      0.00000
     49       7.0282      0.00000
     50       7.6192      0.00000
     51       7.7011      0.00000
     52       8.5451      0.00000
     53       8.6986      0.00000
     54       9.5119      0.00000
     55       9.6045      0.00000
     56      10.2203      0.00000
     57      10.2584      0.00000
     58      10.4622      0.00000
     59      11.0604      0.00000
     60      12.2587      0.00000
     61      13.7204      0.00000
     62      13.7524      0.00000

 k-point     3 :       0.1538    0.0000    0.0000
  band No.  band energies     occupation 
      1     -14.3546      2.00000
      2     -14.2943      2.00000
      3     -14.2007      2.00000
      4     -14.0833      2.00000
      5     -13.9425      2.00000
      6     -13.7962      2.00000
      7     -13.6543      2.00000
      8     -13.5418      2.00000
      9     -13.4694      2.00000
     10      -3.2355      2.00000
     11      -2.8939      2.00000
     12      -2.5097      2.00000
     13      -2.0175      2.00000
     14      -1.7484      2.00000
     15      -1.6497      2.00000
     16      -1.3393      2.00000
     17      -1.3071      2.00000
     18      -0.8539      2.00000
     19      -0.6827      2.00000
     20      -0.2216      2.00000
     21      -0.0528      2.00000
     22       0.4747      2.00000
     23       0.6749      2.00000
     24       0.9987      2.00000
     25       1.1551      2.00000
     26       1.1881      2.00000
     27       1.2418      2.00000
     28       1.3183      2.00000
     29       1.3696      2.00000
     30       1.5183      2.00000
     31       1.6612      2.00000
     32       1.8144      2.00000
     33       1.8364      2.00000
     34       1.8741      2.00000
     35       1.9316      2.00000
     36       1.9320      2.00000
     37       1.9996      2.00000
     38       2.0213      2.00000
     39       2.0817      2.00000
     40       2.1645      2.00000
     41       2.2454      2.00000
     42       2.3061      2.00000
     43       2.3439      2.00000
     44       2.4445      2.00000
     45       3.2563      2.00000
     46       4.3984      2.00000
     47       5.7187      2.00000
     48       7.0075      0.00000
     49       7.7890      0.00000
     50       8.2357      0.00000
     51       8.2451      0.00000
     52       9.0164      0.00000
     53       9.2236      0.00000
     54      10.0007      0.00000
     55      10.1109      0.00000
     56      10.7980      0.00000
     57      10.8700      0.00000
     58      11.1548      0.00000
     59      11.3697      0.00000
     60      11.4872      0.00000
     61      11.6943      0.00000
     62      12.0325      0.00000

 k-point     4 :       0.2308    0.0000   -0.0000
  band No.  band energies     occupation 
      1     -14.1299      2.00000
      2     -14.0770      2.00000
      3     -13.9955      2.00000
      4     -13.8943      2.00000
      5     -13.7729      2.00000
      6     -13.6476      2.00000
      7     -13.5262      2.00000
      8     -13.4313      2.00000
      9     -13.3707      2.00000
     10      -2.5881      2.00000
     11      -2.2486      2.00000
     12      -1.8716      2.00000
     13      -1.4500      2.00000
     14      -1.3607      2.00000
     15      -1.2949      2.00000
     16      -1.0546      2.00000
     17      -0.9531      2.00000
     18      -0.6538      2.00000
     19      -0.5679      2.00000
     20      -0.2918      2.00000
     21      -0.0768      2.00000
     22       0.0883      2.00000
     23       0.3225      2.00000
     24       0.3686      2.00000
     25       0.4436      2.00000
     26       0.5260      2.00000
     27       0.6279      2.00000
     28       0.8780      2.00000
     29       1.0818      2.00000
     30       1.3438      2.00000
     31       1.4876      2.00000
     32       1.5855      2.00000
     33       1.6773      2.00000
     34       1.7158      2.00000
     35       1.7571      2.00000
     36       1.7745      2.00000
     37       1.8441      2.00000
     38       1.8965      2.00000
     39       1.9280      2.00000
     40       2.0129      2.00000
     41       2.0957      2.00000
     42       2.1580      2.00000
     43       2.1969      2.00000
     44       2.9685      2.00000
     45       3.7895      2.00000
     46       4.9544      2.00000
     47       6.2836      0.00000
     48       7.5881      0.00000
     49       8.6284      0.00000
     50       8.7852      0.00000
     51       8.9394      0.00000
     52       9.0561      0.00000
     53       9.2128      0.00000
     54       9.4805      0.00000
     55       9.6359      0.00000
     56       9.9013      0.00000
     57      10.0357      0.00000
     58      10.5467      0.00000
     59      10.6538      0.00000
     60      10.7714      0.00000
     61      11.3445      0.00000
     62      11.5070      0.00000

 k-point     5 :       0.3077    0.0000   -0.0000
  band No.  band energies     occupation 
[...]
     58      10.0498      0.00000
     59      10.1500      0.00000
     60      10.2678      0.00000
     61      10.4072      0.00000
     62      10.4957      0.00000

 k-point    47 :      -0.3846    0.3846    0.0000
  band No.  band energies     occupation 
      1     -13.6646      2.00000
      2     -13.6434      2.00000
      3     -13.6000      2.00000
      4     -13.5453      2.00000
      5     -13.4760      2.00000
      6     -13.4062      2.00000
      7     -13.3387      2.00000
      8     -13.2854      2.00000
      9     -13.2467      2.00000
     10      -1.6005      2.00000
     11      -1.5017      2.00000
     12      -1.3422      2.00000
     13      -1.3098      2.00000
     14      -1.2173      2.00000
     15      -1.1545      2.00000
     16      -1.0767      2.00000
     17      -0.9722      2.00000
     18      -0.9540      2.00000
     19      -0.5174      2.00000
     20      -0.3215      2.00000
     21      -0.0934      2.00000
     22      -0.0400      2.00000
     23       0.2689      2.00000
     24       0.3141      2.00000
     25       0.6651      2.00000
     26       0.8056      2.00000
     27       0.9798      2.00000
     28       1.0978      2.00000
     29       1.1805      2.00000
     30       1.3185      2.00000
     31       1.3499      2.00000
     32       1.3873      2.00000
     33       1.4089      2.00000
     34       1.4818      2.00000
     35       1.5672      2.00000
     36       1.5728      2.00000
     37       1.6284      2.00000
     38       1.6651      2.00000
     39       1.7542      2.00000
     40       1.8252      2.00000
     41       1.8761      2.00000
     42       2.2345      2.00000
     43       3.3579      2.00000
     44       4.3642      2.00000
     45       4.6890      2.00000
     46       4.8751      2.00000
     47       5.1579      2.00000
     48       5.5754      2.00000
     49       5.7413      2.00000
     50       6.4016      0.00000
     51       6.6509      0.00000
     52       7.1169      0.00000
     53       7.9186      0.00000
     54       8.3065      0.00000
     55       9.1020      0.00000
     56       9.5679      0.00000
     57       9.8642      0.00000
     58      10.0030      0.00000
     59      10.2687      0.00000
     60      10.5356      0.00000
     61      10.6084      0.00000
     62      11.0457      0.00000

 k-point    48 :       0.4615    0.4615   -0.0000
  band No.  band energies     occupation 
      1     -13.4371      2.00000
      2     -13.4330      2.00000
      3     -13.4134      2.00000
      4     -13.3899      2.00000
      5     -13.3557      2.00000
      6     -13.3219      2.00000
      7     -13.2865      2.00000
      8     -13.2592      2.00000
      9     -13.2369      2.00000
     10      -1.8846      2.00000
     11      -1.7841      2.00000
     12      -1.6227      2.00000
     13      -1.4419      2.00000
     14      -1.4229      2.00000
     15      -1.3489      2.00000
     16      -1.2932      2.00000
     17      -1.2293      2.00000
     18      -1.2024      2.00000
     19       0.3764      2.00000
     20       0.4041      2.00000
     21       0.5229      2.00000
     22       0.6122      2.00000
     23       0.7263      2.00000
     24       0.8973      2.00000
     25       0.9021      2.00000
     26       1.0625      2.00000
     27       1.1131      2.00000
     28       1.1659      2.00000
     29       1.2198      2.00000
     30       1.2803      2.00000
     31       1.4001      2.00000
     32       1.4363      2.00000
     33       1.5259      2.00000
     34       1.5828      2.00000
     35       1.6586      2.00000
     36       1.6610      2.00000
     37       1.7479      2.00000
     38       1.7800      2.00000
     39       2.2168      2.00000
     40       2.2241      2.00000
     41       2.5252      2.00000
     42       2.5987      2.00000
     43       3.0030      2.00000
     44       3.1103      2.00000
     45       3.6820      2.00000
     46       3.7972      2.00000
     47       4.2908      2.00000
     48       4.6110      2.00000
     49       5.5139      2.00000
     50       5.6840      2.00000
     51       6.6482      0.00000
     52       7.1679      0.00000
     53       7.2798      0.00000
     54       8.0449      0.00000
     55       8.5040      0.00000
     56       9.0423      0.00000
     57       9.5299      0.00000
     58      10.0029      0.00000
     59      10.1665      0.00000
     60      10.2082      0.00000
     61      10.2427      0.00000
     62      10.3898      0.00000

 k-point    49 :      -0.4615    0.4615   -0.0000
  band No.  band energies     occupation 
      1     -13.4821      2.00000
      2     -13.4744      2.00000
      3     -13.4506      2.00000
      4     -13.4206      2.00000
      5     -13.3795      2.00000
      6     -13.3387      2.00000
      7     -13.2973      2.00000
      8     -13.2652      2.00000
      9     -13.2399      2.00000
     10      -1.9051      2.00000
     11      -1.8041      2.00000
     12      -1.6418      2.00000
     13      -1.4618      2.00000
     14      -1.4554      2.00000
     15      -1.3765      2.00000
     16      -1.3120      2.00000
     17      -1.2453      2.00000
     18      -1.2159      2.00000
     19       0.1972      2.00000
     20       0.3277      2.00000
     21       0.5372      2.00000
     22       0.7306      2.00000
     23       0.7574      2.00000
     24       0.8817      2.00000
     25       0.9087      2.00000
     26       1.0009      2.00000
     27       1.2485      2.00000
     28       1.2800      2.00000
     29       1.2970      2.00000
     30       1.3393      2.00000
     31       1.3632      2.00000
     32       1.4125      2.00000
     33       1.5039      2.00000
     34       1.5434      2.00000
     35       1.5965      2.00000
     36       1.6861      2.00000
     37       1.6862      2.00000
     38       1.7574      2.00000
     39       1.8086      2.00000
     40       2.1874      2.00000
     41       2.5231      2.00000
     42       2.8620      2.00000
     43       2.9875      2.00000
     44       3.2861      2.00000
     45       3.5632      2.00000
     46       3.8320      2.00000
     47       4.4053      2.00000
     48       4.8179      2.00000
     49       5.1921      2.00000
     50       6.1011      0.00003
     51       6.2736      0.00000
     52       6.8292      0.00000
     53       7.5001      0.00000
     54       8.1278      0.00000
     55       8.3723      0.00000
     56       9.2587      0.00000
     57       9.5266      0.00000
     58       9.9485      0.00000
     59      10.2039      0.00000
     60      10.4151      0.00000
     61      10.4638      0.00000
     62      11.0918      0.00000


--------------------------------------------------------------------------------------------------------


 soft charge-density along one line, spin component           1
         0         1         2         3         4         5         6         7         8         9
 total charge-density along one line
 
 pseudopotential strength for first ion, spin component:           1
 12.222   0.000 -14.875   0.000  -0.000   0.000  -0.000   0.000   0.000   0.000   0.000   0.000   0.000   0.000  -0.000   0.000
-14.875   0.000  18.123   0.000   0.000   0.000   0.000   0.000  -0.000   0.000  -0.000   0.000  -0.000   0.000   0.000   0.000
 -0.000   0.000   0.000   0.000  -8.368   0.000  -0.000   0.000  -0.000   0.000  10.030   0.000   0.000   0.000   0.000   0.000
 -0.000   0.000   0.000   0.000  -0.000   0.000  -8.376   0.000   0.000   0.000   0.000   0.000  10.040   0.000  -0.000   0.000
  0.000   0.000  -0.000   0.000  -0.000   0.000   0.000   0.000  -8.368   0.000   0.000   0.000  -0.000   0.000  10.030   0.000
  0.000   0.000  -0.000   0.000  10.030   0.000   0.000   0.000   0.000   0.000 -11.863   0.000  -0.000   0.000  -0.000   0.000
  0.000   0.000  -0.000   0.000   0.000   0.000  10.040   0.000  -0.000   0.000  -0.000   0.000 -11.877   0.000   0.000   0.000
 -0.000   0.000   0.000   0.000   0.000   0.000  -0.000   0.000  10.030   0.000  -0.000   0.000   0.000   0.000 -11.863   0.000
 total augmentation occupancy for first ion, spin component:           1
  2.586   0.355   0.000   0.000  -0.000  -0.000  -0.000   0.000
  0.355   0.066   0.000   0.000  -0.000  -0.000  -0.000   0.000
  0.000   0.000   2.148   0.000  -0.000   0.254   0.000  -0.000
  0.000   0.000   0.000   2.141  -0.000   0.000   0.261  -0.000
 -0.000  -0.000  -0.000  -0.000   2.148  -0.000  -0.000   0.254
 -0.000  -0.000   0.254   0.000  -0.000   0.033   0.000   0.000
 -0.000  -0.000   0.000   0.261  -0.000   0.000   0.034  -0.000
  0.000   0.000  -0.000  -0.000   0.254   0.000  -0.000   0.033


------------------------ aborting loop because EDIFF is reached ----------------------------------------


    CHARGE:  cpu time    0.73: real time    0.73
    FORLOC:  cpu time    0.04: real time    0.04
    FORNL :  cpu time    6.53: real time    6.53
    STRESS:  cpu time    7.28: real time    7.28
    FORCOR:  cpu time    0.14: real time    0.14
    FORHAR:  cpu time    0.06: real time    0.06
    MIXING:  cpu time    0.00: real time    0.00
    OFIELD:  cpu time    0.00: real time    0.00

  FORCE on cell =-STRESS in cart. coord.  units (eV):
  Direction    XX          YY          ZZ          XY          YZ          ZX
  --------------------------------------------------------------------------------------
  Alpha Z   117.59479   117.59479   117.59479
  Ewald   20982.64282 20974.39785-23422.11020     7.14058  -769.66060   444.36373
  Hartree 22572.70176 22564.03954-21703.36736     7.50164  -768.03344   443.42448
  E(xc)    -386.60439  -386.61085  -386.30068     0.00558     0.00132    -0.00076
  Local  -44686.38577-44669.46814 43994.51441   -14.65086  1537.73449  -887.81163
  n-local   -28.77068   -36.34204   -34.12461    -2.23815     1.50851     2.62763
  augment    53.09905    53.10026    52.39021    -0.00107    -0.01386     0.00802
  Kinetic  1385.87308  1358.59645  1358.35703    -7.96715     0.30660     1.19511
  Fock        0.00000     0.00000     0.00000     0.00000     0.00000     0.00000
  -------------------------------------------------------------------------------------
  Total      -7.33623    -7.20526   -23.04640    -0.11341    -0.26598     0.15356
  in kB     -34.18399   -33.57375  -107.38733    -0.52846    -1.23935     0.71554
  external pressure =      -58.38 kB  Pullay stress =        0.00 kB


 VOLUME and BASIS-vectors are now :
 -----------------------------------------------------------------------------
  energy-cutoff  :      520.00
  volume of cell :      343.84
      direct lattice vectors                 reciprocal lattice vectors
     2.592590006 -1.495275227  0.051895165     0.385650153 -0.000235505 -0.003562519
     0.001348276  2.992885737 -0.051895149     0.192621123  0.334100684  0.003562519
     0.408967606 -0.708352458 44.318429060    -0.000226030  0.000391495  0.022572320

  length of vectors
     2.993336608  2.993335925 44.325976267     0.385666679  0.385666767  0.022576846


 FORCES acting on ions
    electron-ion (+dipol)            ewald-force                    non-local-force                 convergence-correction
 -----------------------------------------------------------------------------------------------
   -.108E+02 0.186E+02 0.107E+04   0.108E+02 -.186E+02 -.107E+04   -.435E-03 0.754E-03 0.578E-01   0.382E-03 -.661E-03 -.390E-01
   0.206E-04 -.356E-04 -.497E-02   -.123E-04 0.212E-04 0.493E-02   -.232E-05 0.402E-05 0.531E-04   -.388E-07 0.672E-07 -.457E-05
   0.108E+02 -.186E+02 -.107E+04   -.108E+02 0.186E+02 0.107E+04   0.429E-03 -.744E-03 -.573E-01   -.386E-03 0.668E-03 0.394E-01
   -.143E+02 0.248E+02 0.143E+04   0.143E+02 -.248E+02 -.143E+04   -.864E-02 0.150E-01 0.887E+00   0.465E-03 -.805E-03 -.472E-01
   -.718E+01 0.124E+02 0.717E+03   0.718E+01 -.124E+02 -.717E+03   0.247E-03 -.427E-03 -.206E-01   0.225E-03 -.390E-03 -.235E-01
   -.358E+01 0.621E+01 0.358E+03   0.358E+01 -.620E+01 -.358E+03   -.198E-03 0.343E-03 0.293E-01   0.106E-03 -.184E-03 -.109E-01
   0.358E+01 -.621E+01 -.358E+03   -.358E+01 0.621E+01 0.358E+03   0.203E-03 -.352E-03 -.289E-01   -.108E-03 0.187E-03 0.110E-01
   0.718E+01 -.124E+02 -.717E+03   -.718E+01 0.124E+02 0.717E+03   -.255E-03 0.442E-03 0.203E-01   -.231E-03 0.399E-03 0.240E-01
   0.143E+02 -.248E+02 -.143E+04   -.143E+02 0.248E+02 0.143E+04   0.863E-02 -.150E-01 -.888E+00   -.467E-03 0.809E-03 0.474E-01
   -.522E+01 0.904E+01 0.519E+03   0.521E+01 -.903E+01 -.519E+03   0.411E-02 -.712E-02 -.185E+00   0.150E-03 -.259E-03 -.149E-01
   -.179E+01 0.311E+01 0.179E+03   0.179E+01 -.311E+01 -.179E+03   0.163E-03 -.282E-03 0.219E-02   0.579E-04 -.100E-03 -.578E-02
   0.179E+01 -.311E+01 -.179E+03   -.179E+01 0.311E+01 0.179E+03   -.165E-03 0.286E-03 -.231E-02   -.587E-04 0.102E-03 0.586E-02
   0.522E+01 -.904E+01 -.519E+03   -.521E+01 0.903E+01 0.519E+03   -.413E-02 0.715E-02 0.185E+00   -.151E-03 0.261E-03 0.151E-01
   -.419E+01 0.725E+01 0.418E+03   0.419E+01 -.725E+01 -.418E+03   0.684E-03 -.119E-02 -.296E-01   0.140E-03 -.242E-03 -.140E-01
   -.299E+01 0.518E+01 0.299E+03   0.299E+01 -.518E+01 -.299E+03   0.157E-03 -.271E-03 -.138E-02   0.108E-03 -.187E-03 -.108E-01
   -.597E+00 0.103E+01 0.596E+02   0.597E+00 -.103E+01 -.596E+02   0.938E-04 -.163E-03 0.548E-02   0.155E-04 -.268E-04 -.155E-02
   0.597E+00 -.103E+01 -.596E+02   -.597E+00 0.103E+01 0.596E+02   -.997E-04 0.173E-03 -.543E-02   -.158E-04 0.273E-04 0.158E-02
   0.299E+01 -.518E+01 -.299E+03   -.299E+01 0.518E+01 0.299E+03   -.163E-03 0.283E-03 0.146E-02   -.110E-03 0.190E-03 0.110E-01
   0.419E+01 -.725E+01 -.418E+03   -.419E+01 0.725E+01 0.418E+03   -.688E-03 0.119E-02 0.295E-01   -.140E-03 0.243E-03 0.140E-01
   -.786E-04 0.136E-03 -.144E-02   0.350E-04 -.605E-04 0.165E-02   0.442E-04 -.766E-04 0.513E-04   0.257E-05 -.446E-05 -.257E-03
   -.577E+01 0.999E+01 0.576E+03   0.576E+01 -.997E+01 -.575E+03   0.140E-01 -.242E-01 -.130E+01   0.154E-03 -.267E-03 -.154E-01
   -.369E+01 0.640E+01 0.369E+03   0.369E+01 -.640E+01 -.369E+03   -.107E-02 0.185E-02 0.136E+00   0.931E-04 -.161E-03 -.930E-02
   -.170E+01 0.294E+01 0.169E+03   0.170E+01 -.295E+01 -.170E+03   -.543E-02 0.941E-02 0.423E+00   0.433E-04 -.750E-04 -.433E-02
   0.577E+01 -.999E+01 -.576E+03   -.576E+01 0.997E+01 0.575E+03   -.140E-01 0.243E-01 0.130E+01   -.155E-03 0.268E-03 0.155E-01
   0.170E+01 -.294E+01 -.169E+03   -.170E+01 0.295E+01 0.170E+03   0.541E-02 -.937E-02 -.423E+00   -.394E-04 0.683E-04 0.394E-02
   0.369E+01 -.640E+01 -.369E+03   -.369E+01 0.640E+01 0.369E+03   0.112E-02 -.193E-02 -.136E+00   -.918E-04 0.159E-03 0.917E-02
 -----------------------------------------------------------------------------------------------
   0.803E-04 -.139E-03 -.126E-02   -.933E-14 -.346E-13 -.568E-13   -.693E-04 0.120E-03 0.120E-03   -.107E-04 0.186E-04 0.109E-02
 
 
 POSITION                                       TOTAL-FORCE (eV/Angst)
 -----------------------------------------------------------------------------------
      1.58625      0.24776     15.69662         0.000074     -0.000128      0.007114
      1.51203      0.37630     23.30213         0.000006     -0.000010      0.000010
      1.43781      0.50486     30.90766        -0.000082      0.000141     -0.006851
      0.74748      1.70054     13.13006         0.000083     -0.000144      0.005397
      2.42513     -1.20523     18.26759         0.000339     -0.000588     -0.017044
      0.67296      1.82963     20.73060        -0.000152      0.000264      0.016493
      2.35111     -1.07702     25.87366         0.000144     -0.000250     -0.016298
      0.59893      1.95785     28.33670        -0.000331      0.000573      0.016893
      2.27657     -0.94792     33.47427        -0.000081      0.000140     -0.005760
      1.62404      0.18229     11.86533         0.000220     -0.000381     -0.010511
      1.54903      0.31222     19.49894         0.000052     -0.000091      0.003216
      1.47503      0.44039     27.10535        -0.000050      0.000087     -0.003509
      1.40001      0.57033     34.73897        -0.000226      0.000391      0.010795
      2.46247     -1.26989     14.46376        -0.000037      0.000065      0.013394
      0.71006      1.76536     16.93028         0.000073     -0.000127     -0.000758
      2.38810     -1.14110     22.06791        -0.000063      0.000109      0.012060
      0.63596      1.89370     24.53635         0.000060     -0.000104     -0.012002
      2.31400     -1.01275     29.67400        -0.000078      0.000135      0.000986
      0.56159      2.02252     32.14054         0.000037     -0.000065     -0.013619
      2.60298     -1.51328      1.19481         0.000003     -0.000005      0.000009
      2.51499     -1.36087      9.22101         0.000117     -0.000203     -0.000465
      1.68193      0.08203      6.41640        -0.000006      0.000011      0.005517
      0.84787      1.52667      3.65502         0.000064     -0.000112      0.011158
      0.50902      2.11358     37.38331        -0.000114      0.000198      0.000444
      2.17589     -0.77352     42.94925        -0.000062      0.000108     -0.011145
      1.34186      0.67104     40.18793         0.000009     -0.000016     -0.005524
 -----------------------------------------------------------------------------------
    total drift:                                0.000000     -0.000000     -0.000055


--------------------------------------------------------------------------------------------------------



  FREE ENERGIE OF THE ION-ELECTRON SYSTEM (eV)
  ---------------------------------------------------
  free  energy   TOTEN  =      -132.77061961 eV

  energy  without entropy=     -132.76731389  energy(sigma->0) =     -132.76896675
 
 d Force = 0.1147692E-03[ 0.951E-04, 0.134E-03]  d Energy = 0.1113546E-03 0.341E-05
 d Force =-0.3144753E+01[-0.315E+01,-0.314E+01]  d Ewald  =-0.3144753E+01-0.114E-06


--------------------------------------------------------------------------------------------------------


    POTLOK:  cpu time    0.21: real time    0.21


--------------------------------------------------------------------------------------------------------


 Conjugate gradient step on ions:
 trial-energy change:   -0.000111  1 .order   -0.000115   -0.000134   -0.000095
  (g-gl).g = 0.142E-03      g.g   = 0.230E-03  gl.gl    = 0.545E-03
 g(Force)  = 0.230E-03   g(Stress)= 0.000E+00 ortho     =-0.220E-04
 gamma     =   0.26141
 trial     =   0.59863
 opt step  =   2.04365  (harmonic =   2.04365) maximal distance =0.00275660
 next E    =  -132.770738   (d E  =  -0.00023)


--------------------------------------------------------------------------------------------------------


  
 reached required accuracy - stopping structural energy minimisation
     LOOP+:  cpu time   73.29: real time   73.34
    4ORBIT:  cpu time    0.00: real time    0.00

 total amount of memory used by VASP on root node   206902. kBytes
========================================================================

   base      :      30000. kBytes
   nonl-proj :      36872. kBytes
   fftplans  :      57935. kBytes
   grid      :      23224. kBytes
   one-center:         56. kBytes
   wavefun   :      58815. kBytes
 
  
  
 General timing and accounting informations for this job:
 ========================================================
  
                  Total CPU time used (sec):     3031.661
                            User time (sec):     3006.357
                          System time (sec):       25.304
                         Elapsed time (sec):     3034.106
  
                   Maximum memory used (kb):      316824.
                   Average memory used (kb):           0.
  
                          Minor page faults:       792699
                          Major page faults:            0
                 Voluntary context switches:          496
