       N       E                     dE             d eps       ncg     rms          rms(c)
DAV:   1     0.505079784133E+03    0.50508E+03   -0.43867E+04  2696   0.134E+03
DAV:   2    -0.996922463988E+02   -0.60477E+03   -0.57351E+03  3496   0.257E+02
DAV:   3    -0.156893579352E+03   -0.57201E+02   -0.56918E+02  3144   0.865E+01
DAV:   4    -0.157627055092E+03   -0.73348E+00   -0.73224E+00  3152   0.106E+01
DAV:   5    -0.157638220244E+03   -0.11165E-01   -0.11161E-01  3192   0.129E+00    0.237E+01
DAV:   6    -0.140482655341E+03    0.17156E+02   -0.94306E+01  3208   0.335E+01    0.791E+00
DAV:   7    -0.140527576799E+03   -0.44921E-01   -0.41327E+00  2992   0.672E+00    0.501E+00
DAV:   8    -0.140362918349E+03    0.16466E+00   -0.88562E-01  3080   0.461E+00    0.144E+00
DAV:   9    -0.140306406359E+03    0.56512E-01   -0.17219E-01  3080   0.201E+00    0.687E-01
DAV:  10    -0.140296946814E+03    0.94595E-02   -0.98821E-02  3008   0.113E+00    0.309E-01
DAV:  11    -0.140287970550E+03    0.89763E-02   -0.91378E-03  3496   0.758E-01    0.228E-01
DAV:  12    -0.140281964562E+03    0.60060E-02   -0.67713E-03  3480   0.539E-01    0.153E-01
DAV:  13    -0.140270266985E+03    0.11698E-01   -0.86463E-03  4264   0.973E-01    0.917E-02
DAV:  14    -0.140265051074E+03    0.52159E-02   -0.11277E-02  3472   0.758E-01    0.142E-01
DAV:  15    -0.140254671881E+03    0.10379E-01   -0.12807E-02  4248   0.154E+00    0.118E-01
DAV:  16    -0.140252056231E+03    0.26156E-02   -0.10184E-02  3072   0.769E-01    0.855E-02
DAV:  17    -0.140249599071E+03    0.24572E-02   -0.85721E-03  3456   0.882E-01    0.130E-01
DAV:  18    -0.140247912073E+03    0.16870E-02   -0.47130E-03  3864   0.818E-01    0.103E-01
DAV:  19    -0.140247308559E+03    0.60351E-03   -0.74793E-03  3480   0.691E-01    0.666E-02
DAV:  20    -0.140247346795E+03   -0.38237E-04   -0.29275E-03  3144   0.412E-01    0.869E-02
DAV:  21    -0.140247238294E+03    0.10850E-03   -0.14477E-03  2992   0.199E-01    0.268E-02
DAV:  22    -0.140247239790E+03   -0.14959E-05   -0.36651E-04  2984   0.891E-02    0.228E-02
DAV:  23    -0.140247227285E+03    0.12505E-04   -0.64862E-05  3040   0.597E-02    0.116E-02
DAV:  24    -0.140247231401E+03   -0.41160E-05   -0.72089E-05  2712   0.361E-02
   1 F= -.14024723E+03 E0= -.14024439E+03  d E =-.140247E+03
       N       E                     dE             d eps       ncg     rms          rms(c)
DAV:   1    -0.140245070402E+03    0.21569E-02   -0.13622E+00  2728   0.454E+00    0.244E-01
DAV:   2    -0.140249053381E+03   -0.39830E-02   -0.58245E-02  2928   0.766E-01    0.203E-01
DAV:   3    -0.140248174256E+03    0.87912E-03   -0.10072E-03  3112   0.175E-01    0.140E-01
DAV:   4    -0.140247219913E+03    0.95434E-03   -0.26763E-03  3056   0.292E-01    0.406E-02
DAV:   5    -0.140247185323E+03    0.34590E-04   -0.95198E-04  3024   0.141E-01    0.275E-02
DAV:   6    -0.140247099583E+03    0.85740E-04   -0.13959E-04  3104   0.761E-02    0.215E-02
DAV:   7    -0.140247064068E+03    0.35514E-04   -0.61509E-05  2952   0.523E-02    0.149E-02
DAV:   8    -0.140246997963E+03    0.66105E-04   -0.86123E-05  3272   0.823E-02    0.933E-03
DAV:   9    -0.140246978648E+03    0.19316E-04   -0.58447E-05  2832   0.473E-02    0.811E-03
DAV:  10    -0.140246967103E+03    0.11545E-04   -0.64062E-05  3016   0.471E-02    0.182E-02
DAV:  11    -0.140246950013E+03    0.17089E-04   -0.13723E-05  1976   0.441E-02    0.147E-02
DAV:  12    -0.140246940239E+03    0.97745E-05   -0.37449E-05  2544   0.405E-02
   2 F= -.14024694E+03 E0= -.14024393E+03  d E =0.291163E-03
       N       E                     dE             d eps       ncg     rms          rms(c)
DAV:   1    -0.140250649340E+03   -0.36993E-02   -0.34600E-01  2712   0.228E+00    0.123E-01
DAV:   2    -0.140251601071E+03   -0.95173E-03   -0.14481E-02  2920   0.396E-01    0.101E-01
DAV:   3    -0.140251372878E+03    0.22819E-03   -0.30044E-04  3128   0.943E-02    0.685E-02
DAV:   4    -0.140251138419E+03    0.23446E-03   -0.49091E-04  3024   0.129E-01    0.213E-02
DAV:   5    -0.140251114561E+03    0.23858E-04   -0.20982E-04  3072   0.802E-02    0.110E-02
DAV:   6    -0.140251094836E+03    0.19724E-04   -0.33913E-05  2648   0.513E-02    0.806E-03
DAV:   7    -0.140251087325E+03    0.75108E-05   -0.23938E-05  2144   0.326E-02
   3 F= -.14025109E+03 E0= -.14024814E+03  d E =-.385592E-02
       N       E                     dE             d eps       ncg     rms          rms(c)
DAV:   1    -0.140252049591E+03   -0.95476E-03   -0.15513E-01  2728   0.160E+00    0.655E-02
DAV:   2    -0.140252372569E+03   -0.32298E-03   -0.40588E-03  2944   0.224E-01    0.394E-02
DAV:   3    -0.140252329095E+03    0.43474E-04   -0.78246E-05  3064   0.425E-02    0.255E-02
DAV:   4    -0.140252294965E+03    0.34130E-04   -0.31665E-05  2536   0.359E-02    0.122E-02
DAV:   5    -0.140252264552E+03    0.30414E-04   -0.28400E-05  2576   0.453E-02    0.536E-03
DAV:   6    -0.140252242273E+03    0.22279E-04   -0.29093E-05  2456   0.428E-02    0.510E-03
DAV:   7    -0.140252224000E+03    0.18272E-04   -0.10637E-05  1824   0.409E-02    0.317E-03
DAV:   8    -0.140252194231E+03    0.29769E-04   -0.36761E-05  2696   0.856E-02    0.572E-03
DAV:   9    -0.140252190218E+03    0.40136E-05   -0.48823E-05  2512   0.372E-02
   4 F= -.14025219E+03 E0= -.14024920E+03  d E =-.110289E-02
       N       E                     dE             d eps       ncg     rms          rms(c)
DAV:   1    -0.140252368968E+03   -0.17474E-03   -0.18883E-01  2736   0.174E+00    0.718E-02
DAV:   2    -0.140252785090E+03   -0.41612E-03   -0.49828E-03  2928   0.240E-01    0.448E-02
DAV:   3    -0.140252736743E+03    0.48347E-04   -0.82799E-05  3080   0.419E-02    0.276E-02
DAV:   4    -0.140252705298E+03    0.31445E-04   -0.36406E-05  2592   0.344E-02    0.128E-02
DAV:   5    -0.140252676410E+03    0.28888E-04   -0.28161E-05  2520   0.434E-02    0.433E-03
DAV:   6    -0.140252658043E+03    0.18366E-04   -0.17983E-05  2184   0.336E-02    0.422E-03
DAV:   7    -0.140252622207E+03    0.35836E-04   -0.14758E-05  2208   0.692E-02    0.512E-03
DAV:   8    -0.140252601885E+03    0.20322E-04   -0.38655E-05  2592   0.629E-02    0.624E-03
DAV:   9    -0.140252591335E+03    0.10551E-04   -0.30128E-05  2400   0.547E-02    0.525E-03
DAV:  10    -0.140252582916E+03    0.84189E-05   -0.99786E-06  1872   0.583E-02
   5 F= -.14025258E+03 E0= -.14024955E+03  d E =-.149559E-02
       N       E                     dE             d eps       ncg     rms          rms(c)
DAV:   1    -0.140253270904E+03   -0.67957E-03   -0.13556E-01  2728   0.145E+00    0.580E-02
DAV:   2    -0.140253546928E+03   -0.27602E-03   -0.33371E-03  2912   0.204E-01    0.322E-02
DAV:   3    -0.140253525117E+03    0.21811E-04   -0.61397E-05  3032   0.408E-02    0.222E-02
DAV:   4    -0.140253514288E+03    0.10828E-04   -0.42283E-05  2672   0.309E-02    0.958E-03
DAV:   5    -0.140253512367E+03    0.19219E-05   -0.87884E-06  1680   0.175E-02    0.492E-03
DAV:   6    -0.140253511570E+03    0.79685E-06   -0.83151E-06  1656   0.186E-02
   6 F= -.14025351E+03 E0= -.14025045E+03  d E =-.928654E-03
       N       E                     dE             d eps       ncg     rms          rms(c)
DAV:   1    -0.140252861078E+03    0.65129E-03   -0.12234E+00  2744   0.434E+00    0.171E-01
DAV:   2    -0.140255319652E+03   -0.24586E-02   -0.29649E-02  2904   0.599E-01    0.941E-02
DAV:   3    -0.140255121063E+03    0.19859E-03   -0.47883E-04  3160   0.117E-01    0.648E-02
DAV:   4    -0.140255023898E+03    0.97166E-04   -0.36764E-04  3024   0.984E-02    0.270E-02
DAV:   5    -0.140255012846E+03    0.11052E-04   -0.10708E-04  2912   0.511E-02    0.138E-02
DAV:   6    -0.140255006614E+03    0.62320E-05   -0.52067E-05  2632   0.374E-02
   7 F= -.14025501E+03 E0= -.14025188E+03  d E =-.242370E-02
       N       E                     dE             d eps       ncg     rms          rms(c)
DAV:   1    -0.140256006016E+03   -0.99317E-03   -0.73370E-02  2688   0.121E+00    0.503E-02
DAV:   2    -0.140256114427E+03   -0.10841E-03   -0.16993E-03  3008   0.173E-01    0.317E-02
DAV:   3    -0.140256088092E+03    0.26335E-04   -0.63973E-05  3024   0.408E-02    0.225E-02
DAV:   4    -0.140256053329E+03    0.34764E-04   -0.50992E-05  2880   0.493E-02    0.117E-02
DAV:   5    -0.140256028320E+03    0.25009E-04   -0.19777E-05  2048   0.399E-02    0.104E-02
DAV:   6    -0.140256003884E+03    0.24435E-04   -0.36541E-05  2400   0.418E-02    0.629E-03
DAV:   7    -0.140255977438E+03    0.26447E-04   -0.65765E-06  1816   0.437E-02    0.460E-03
DAV:   8    -0.140255933455E+03    0.43983E-04   -0.35631E-05  2720   0.925E-02    0.548E-03
DAV:   9    -0.140255900128E+03    0.33327E-04   -0.61115E-05  3048   0.112E-01    0.710E-03
DAV:  10    -0.140255896131E+03    0.39971E-05   -0.77972E-05  2704   0.664E-02
   8 F= -.14025590E+03 E0= -.14025277E+03  d E =-.889517E-03
       N       E                     dE             d eps       ncg     rms          rms(c)
DAV:   1    -0.140256003103E+03   -0.10297E-03   -0.14241E-02  2720   0.534E-01    0.206E-02
DAV:   2    -0.140256026390E+03   -0.23288E-04   -0.32315E-04  3016   0.750E-02    0.138E-02
DAV:   3    -0.140256022564E+03    0.38265E-05   -0.83942E-06  1680   0.162E-02    0.992E-03
DAV:   4    -0.140256016731E+03    0.58327E-05   -0.98482E-06  1760   0.257E-02    0.397E-03
DAV:   5    -0.140256014348E+03    0.23831E-05   -0.68982E-06  1608   0.174E-02    0.459E-03
DAV:   6    -0.140256012023E+03    0.23251E-05   -0.41103E-06  1624   0.126E-02
   9 F= -.14025601E+03 E0= -.14025288E+03  d E =-.100541E-02
       N       E                     dE             d eps       ncg     rms          rms(c)
DAV:   1    -0.140256457816E+03   -0.44347E-03   -0.22780E-01  2720   0.209E+00    0.651E-02
DAV:   2    -0.140256953468E+03   -0.49565E-03   -0.53984E-03  2904   0.294E-01    0.382E-02
DAV:   3    -0.140256919175E+03    0.34293E-04   -0.50791E-05  2992   0.437E-02    0.260E-02
DAV:   4    -0.140256893889E+03    0.25286E-04   -0.12682E-04  2936   0.751E-02    0.936E-03
DAV:   5    -0.140256896769E+03   -0.28795E-05   -0.50052E-05  2592   0.299E-02    0.109E-02
DAV:   6    -0.140256896173E+03    0.59631E-06   -0.22948E-06  1560   0.621E-03
  10 F= -.14025690E+03 E0= -.14025376E+03  d E =-.884150E-03
       N       E                     dE             d eps       ncg     rms          rms(c)
DAV:   1    -0.140254503402E+03    0.23934E-02   -0.20473E+00  2720   0.628E+00    0.198E-01
DAV:   2    -0.140258929672E+03   -0.44263E-02   -0.48670E-02  2888   0.882E-01    0.114E-01
DAV:   3    -0.140258618957E+03    0.31072E-03   -0.46031E-04  3176   0.132E-01    0.796E-02
DAV:   4    -0.140258391456E+03    0.22750E-03   -0.12302E-03  3128   0.232E-01    0.294E-02
DAV:   5    -0.140258416026E+03   -0.24570E-04   -0.47021E-04  2984   0.909E-02    0.351E-02
DAV:   6    -0.140258408388E+03    0.76383E-05   -0.21838E-05  1912   0.195E-02
  11 F= -.14025841E+03 E0= -.14025526E+03  d E =-.239637E-02
       N       E                     dE             d eps       ncg     rms          rms(c)
DAV:   1    -0.140257875595E+03    0.54043E-03   -0.33842E-01  2712   0.256E+00    0.831E-02
DAV:   2    -0.140258587720E+03   -0.71212E-03   -0.81243E-03  2896   0.364E-01    0.494E-02
DAV:   3    -0.140258524774E+03    0.62946E-04   -0.10488E-04  3152   0.671E-02    0.346E-02
DAV:   4    -0.140258471954E+03    0.52820E-04   -0.19443E-04  3000   0.968E-02    0.135E-02
DAV:   5    -0.140258470949E+03    0.10056E-05   -0.96479E-05  2792   0.478E-02    0.153E-02
DAV:   6    -0.140258467692E+03    0.32572E-05   -0.13710E-05  1584   0.171E-02
  12 F= -.14025847E+03 E0= -.14025532E+03  d E =-.245567E-02
       N       E                     dE             d eps       ncg     rms          rms(c)
DAV:   1    -0.140258812070E+03   -0.34112E-03   -0.36955E-01  2720   0.268E+00    0.854E-02
DAV:   2    -0.140259630008E+03   -0.81794E-03   -0.89075E-03  2888   0.377E-01    0.470E-02
DAV:   3    -0.140259583425E+03    0.46582E-04   -0.10806E-04  3256   0.504E-02    0.325E-02
DAV:   4    -0.140259548243E+03    0.35183E-04   -0.10094E-04  2936   0.573E-02    0.124E-02
DAV:   5    -0.140259542627E+03    0.56162E-05   -0.37382E-05  2472   0.319E-02    0.831E-03
DAV:   6    -0.140259535386E+03    0.72402E-05   -0.18723E-05  1984   0.276E-02
  13 F= -.14025954E+03 E0= -.14025639E+03  d E =-.106769E-02
       N       E                     dE             d eps       ncg     rms          rms(c)
DAV:   1    -0.140254440086E+03    0.51025E-02   -0.33285E+00  2712   0.805E+00    0.260E-01
DAV:   2    -0.140261887719E+03   -0.74476E-02   -0.81563E-02  2904   0.115E+00    0.141E-01
DAV:   3    -0.140261462165E+03    0.42555E-03   -0.10538E-03  3240   0.154E-01    0.986E-02
DAV:   4    -0.140261130577E+03    0.33159E-03   -0.87080E-04  3032   0.162E-01    0.399E-02
DAV:   5    -0.140261053723E+03    0.76854E-04   -0.33015E-04  3064   0.110E-01    0.278E-02
DAV:   6    -0.140260977125E+03    0.76598E-04   -0.20583E-04  3200   0.104E-01    0.153E-02
DAV:   7    -0.140260916384E+03    0.60741E-04   -0.62084E-05  2832   0.772E-02    0.158E-02
DAV:   8    -0.140260821763E+03    0.94621E-04   -0.70483E-05  3288   0.100E-01    0.102E-02
DAV:   9    -0.140260695235E+03    0.12653E-03   -0.52325E-05  2880   0.140E-01    0.102E-02
DAV:  10    -0.140260562285E+03    0.13295E-03   -0.16667E-04  3568   0.214E-01    0.133E-02
DAV:  11    -0.140260481856E+03    0.80429E-04   -0.33748E-04  3784   0.304E-01    0.101E-02
DAV:  12    -0.140260529598E+03   -0.47742E-04   -0.54720E-04  2808   0.893E-02    0.139E-02
DAV:  13    -0.140260529168E+03    0.42926E-06   -0.39897E-05  2392   0.295E-02
  14 F= -.14026053E+03 E0= -.14025741E+03  d E =-.206148E-02
       N       E                     dE             d eps       ncg     rms          rms(c)
DAV:   1    -0.140261021485E+03   -0.49189E-03   -0.16460E-01  2704   0.180E+00    0.606E-02
DAV:   2    -0.140261359336E+03   -0.33785E-03   -0.37671E-03  2944   0.248E-01    0.310E-02
DAV:   3    -0.140261349212E+03    0.10123E-04   -0.82484E-05  3112   0.381E-02    0.216E-02
DAV:   4    -0.140261342852E+03    0.63602E-05   -0.29642E-05  2232   0.287E-02    0.111E-02
DAV:   5    -0.140261341504E+03    0.13480E-05   -0.10144E-05  1640   0.164E-02    0.640E-03
DAV:   6    -0.140261340403E+03    0.11016E-05   -0.59817E-06  1552   0.144E-02
  15 F= -.14026134E+03 E0= -.14025825E+03  d E =-.811234E-03
       N       E                     dE             d eps       ncg     rms          rms(c)
DAV:   1    -0.140259761914E+03    0.15796E-02   -0.14804E+00  2688   0.541E+00    0.181E-01
DAV:   2    -0.140262860622E+03   -0.30987E-02   -0.33898E-02  2968   0.739E-01    0.947E-02
DAV:   3    -0.140262737427E+03    0.12319E-03   -0.60550E-04  3232   0.105E-01    0.655E-02
DAV:   4    -0.140262664190E+03    0.73237E-04   -0.29337E-04  3144   0.841E-02    0.310E-02
DAV:   5    -0.140262647750E+03    0.16440E-04   -0.79794E-05  3160   0.510E-02    0.185E-02
DAV:   6    -0.140262637991E+03    0.97590E-05   -0.73037E-05  2776   0.504E-02
  16 F= -.14026264E+03 E0= -.14025965E+03  d E =-.210882E-02
       N       E                     dE             d eps       ncg     rms          rms(c)
DAV:   1    -0.140263975058E+03   -0.13273E-02   -0.12470E-01  2688   0.156E+00    0.570E-02
DAV:   2    -0.140264229019E+03   -0.25396E-03   -0.32226E-03  2968   0.232E-01    0.299E-02
DAV:   3    -0.140264203312E+03    0.25706E-04   -0.75908E-05  3056   0.477E-02    0.216E-02
DAV:   4    -0.140264177781E+03    0.25531E-04   -0.49906E-05  2656   0.429E-02    0.103E-02
DAV:   5    -0.140264162417E+03    0.15365E-04   -0.13556E-05  1720   0.369E-02    0.863E-03
DAV:   6    -0.140264142262E+03    0.20155E-04   -0.23890E-05  2120   0.527E-02    0.448E-03
DAV:   7    -0.140264126553E+03    0.15709E-04   -0.15674E-05  1904   0.443E-02    0.539E-03
DAV:   8    -0.140264099908E+03    0.26646E-04   -0.22062E-05  2264   0.725E-02    0.540E-03
DAV:   9    -0.140264074752E+03    0.25156E-04   -0.42122E-05  2744   0.104E-01    0.973E-03
DAV:  10    -0.140264069329E+03    0.54236E-05   -0.68134E-05  2648   0.644E-02
  17 F= -.14026407E+03 E0= -.14026110E+03  d E =-.143134E-02
       N       E                     dE             d eps       ncg     rms          rms(c)
DAV:   1    -0.140264742332E+03   -0.66758E-03   -0.61922E-01  2696   0.349E+00    0.116E-01
DAV:   2    -0.140266016020E+03   -0.12737E-02   -0.15652E-02  2968   0.511E-01    0.693E-02
DAV:   3    -0.140265898649E+03    0.11737E-03   -0.32249E-04  3224   0.977E-02    0.501E-02
DAV:   4    -0.140265783381E+03    0.11527E-03   -0.28559E-04  3048   0.101E-01    0.230E-02
DAV:   5    -0.140265743785E+03    0.39596E-04   -0.99472E-05  3064   0.737E-02    0.198E-02
DAV:   6    -0.140265702140E+03    0.41645E-04   -0.11634E-04  2848   0.870E-02    0.107E-02
DAV:   7    -0.140265678778E+03    0.23362E-04   -0.49050E-05  2696   0.530E-02    0.106E-02
DAV:   8    -0.140265652922E+03    0.25856E-04   -0.16497E-05  1936   0.437E-02    0.584E-03
DAV:   9    -0.140265581246E+03    0.71675E-04   -0.77319E-05  3152   0.148E-01    0.134E-02
DAV:  10    -0.140265545598E+03    0.35648E-04   -0.80174E-05  2944   0.105E-01    0.662E-03
DAV:  11    -0.140265518124E+03    0.27474E-04   -0.70706E-05  3064   0.138E-01    0.692E-03
DAV:  12    -0.140265515066E+03    0.30585E-05   -0.10817E-04  2864   0.842E-02    0.471E-03
DAV:  13    -0.140265517690E+03   -0.26244E-05   -0.62356E-05  2600   0.334E-02
  18 F= -.14026552E+03 E0= -.14026258E+03  d E =-.287970E-02
       N       E                     dE             d eps       ncg     rms          rms(c)
DAV:   1    -0.140266029049E+03   -0.51398E-03   -0.25336E-01  2720   0.224E+00    0.685E-02
DAV:   2    -0.140266572437E+03   -0.54339E-03   -0.59901E-03  2968   0.317E-01    0.392E-02
DAV:   3    -0.140266539565E+03    0.32872E-04   -0.73354E-05  3072   0.447E-02    0.278E-02
DAV:   4    -0.140266512405E+03    0.27160E-04   -0.10947E-04  2896   0.663E-02    0.109E-02
DAV:   5    -0.140266512351E+03    0.53333E-07   -0.50094E-05  2568   0.341E-02    0.129E-02
DAV:   6    -0.140266510390E+03    0.19615E-05   -0.78116E-06  1552   0.126E-02
  19 F= -.14026651E+03 E0= -.14026360E+03  d E =-.992700E-03
       N       E                     dE             d eps       ncg     rms          rms(c)
DAV:   1    -0.140263742627E+03    0.27697E-02   -0.22792E+00  2696   0.672E+00    0.199E-01
DAV:   2    -0.140268683130E+03   -0.49405E-02   -0.53705E-02  2952   0.945E-01    0.117E-01
DAV:   3    -0.140268381422E+03    0.30171E-03   -0.56703E-04  3240   0.123E-01    0.823E-02
DAV:   4    -0.140268104794E+03    0.27663E-03   -0.10619E-03  3200   0.215E-01    0.300E-02
DAV:   5    -0.140268105033E+03   -0.23898E-06   -0.46100E-04  2920   0.965E-02    0.350E-02
DAV:   6    -0.140268078918E+03    0.26115E-04   -0.68879E-05  2704   0.349E-02    0.186E-02
DAV:   7    -0.140268019476E+03    0.59442E-04   -0.52063E-05  2864   0.543E-02    0.917E-03
DAV:   8    -0.140267980133E+03    0.39343E-04   -0.33495E-05  2520   0.525E-02    0.167E-02
DAV:   9    -0.140267904987E+03    0.75146E-04   -0.54937E-05  2976   0.110E-01    0.112E-02
DAV:  10    -0.140267819476E+03    0.85511E-04   -0.13778E-04  3624   0.168E-01    0.170E-02
DAV:  11    -0.140267732515E+03    0.86961E-04   -0.22719E-04  3544   0.218E-01    0.241E-02
DAV:  12    -0.140267717882E+03    0.14633E-04   -0.24343E-04  3312   0.156E-01    0.157E-02
DAV:  13    -0.140267732743E+03   -0.14861E-04   -0.22715E-04  2640   0.535E-02    0.125E-02
DAV:  14    -0.140267732340E+03    0.40318E-06   -0.11186E-05  1584   0.135E-02
  20 F= -.14026773E+03 E0= -.14026487E+03  d E =-.221465E-02
       N       E                     dE             d eps       ncg     rms          rms(c)
DAV:   1    -0.140268236248E+03   -0.50351E-03   -0.14888E-01  2776   0.165E+00    0.473E-02
DAV:   2    -0.140268538367E+03   -0.30212E-03   -0.32672E-03  2968   0.223E-01    0.302E-02
DAV:   3    -0.140268522695E+03    0.15672E-04   -0.43170E-05  2520   0.315E-02    0.214E-02
DAV:   4    -0.140268509864E+03    0.12832E-04   -0.64869E-05  2696   0.506E-02    0.796E-03
DAV:   5    -0.140268511261E+03   -0.13976E-05   -0.26943E-05  2200   0.211E-02    0.914E-03
DAV:   6    -0.140268509692E+03    0.15698E-05   -0.44819E-06  1504   0.892E-03
  21 F= -.14026851E+03 E0= -.14026567E+03  d E =-.777352E-03
       N       E                     dE             d eps       ncg     rms          rms(c)
DAV:   1    -0.140267459844E+03    0.10514E-02   -0.13382E+00  2768   0.495E+00    0.143E-01
DAV:   2    -0.140270131686E+03   -0.26718E-02   -0.28762E-02  2952   0.661E-01    0.886E-02
DAV:   3    -0.140269979580E+03    0.15211E-03   -0.35315E-04  3200   0.937E-02    0.616E-02
DAV:   4    -0.140269849161E+03    0.13042E-03   -0.54574E-04  3328   0.158E-01    0.214E-02
DAV:   5    -0.140269863067E+03   -0.13906E-04   -0.27729E-04  2880   0.677E-02    0.272E-02
DAV:   6    -0.140269854164E+03    0.89028E-05   -0.12392E-05  1600   0.157E-02
  22 F= -.14026985E+03 E0= -.14026710E+03  d E =-.212182E-02
       N       E                     dE             d eps       ncg     rms          rms(c)
DAV:   1    -0.140269526532E+03    0.33654E-03   -0.23937E-01  2752   0.209E+00    0.603E-02
DAV:   2    -0.140270001330E+03   -0.47480E-03   -0.50933E-03  2968   0.280E-01    0.384E-02
DAV:   3    -0.140269970640E+03    0.30690E-04   -0.64944E-05  2912   0.464E-02    0.259E-02
DAV:   4    -0.140269940025E+03    0.30615E-04   -0.88636E-05  3088   0.756E-02    0.883E-03
DAV:   5    -0.140269942292E+03   -0.22671E-05   -0.71277E-05  2680   0.361E-02    0.118E-02
DAV:   6    -0.140269942537E+03   -0.24464E-06   -0.35604E-06  1560   0.721E-03
  23 F= -.14026994E+03 E0= -.14026723E+03  d E =-.221020E-02
       N       E                     dE             d eps       ncg     rms          rms(c)
DAV:   1    -0.140270416391E+03   -0.47410E-03   -0.29619E-01  2720   0.244E+00    0.788E-02
DAV:   2    -0.140271061932E+03   -0.64554E-03   -0.72716E-03  3008   0.355E-01    0.413E-02
DAV:   3    -0.140271033589E+03    0.28343E-04   -0.13957E-04  3136   0.541E-02    0.306E-02
DAV:   4    -0.140271013323E+03    0.20266E-04   -0.91090E-05  2728   0.481E-02    0.135E-02
DAV:   5    -0.140271010853E+03    0.24702E-05   -0.27363E-05  2104   0.290E-02    0.102E-02
DAV:   6    -0.140271009459E+03    0.13938E-05   -0.16332E-05  1760   0.215E-02
  24 F= -.14027101E+03 E0= -.14026832E+03  d E =-.106692E-02
       N       E                     dE             d eps       ncg     rms          rms(c)
DAV:   1    -0.140268669850E+03    0.23410E-02   -0.17351E+00  2720   0.591E+00    0.181E-01
DAV:   2    -0.140272455602E+03   -0.37858E-02   -0.42049E-02  3000   0.852E-01    0.999E-02
DAV:   3    -0.140272281530E+03    0.17407E-03   -0.78177E-04  3224   0.125E-01    0.736E-02
DAV:   4    -0.140272152937E+03    0.12859E-03   -0.51479E-04  3008   0.103E-01    0.320E-02
DAV:   5    -0.140272129390E+03    0.23546E-04   -0.12819E-04  2984   0.649E-02    0.246E-02
DAV:   6    -0.140272118039E+03    0.11351E-04   -0.13245E-04  3072   0.711E-02    0.106E-02
DAV:   7    -0.140272119696E+03   -0.16575E-05   -0.45316E-05  2496   0.296E-02
  25 F= -.14027212E+03 E0= -.14026950E+03  d E =-.217716E-02
       N       E                     dE             d eps       ncg     rms          rms(c)
DAV:   1    -0.140272630518E+03   -0.51248E-03   -0.14791E-01  2704   0.167E+00    0.498E-02
DAV:   2    -0.140272911011E+03   -0.28049E-03   -0.33357E-03  3064   0.238E-01    0.300E-02
DAV:   3    -0.140272890199E+03    0.20812E-04   -0.72272E-05  3000   0.405E-02    0.220E-02
DAV:   4    -0.140272871084E+03    0.19115E-04   -0.54247E-05  2688   0.342E-02    0.995E-03
DAV:   5    -0.140272863220E+03    0.78641E-05   -0.11481E-05  1704   0.280E-02    0.865E-03
DAV:   6    -0.140272855370E+03    0.78498E-05   -0.15594E-05  2048   0.354E-02
  26 F= -.14027286E+03 E0= -.14027025E+03  d E =-.735674E-03
       N       E                     dE             d eps       ncg     rms          rms(c)
DAV:   1    -0.140272642027E+03    0.22119E-03   -0.41256E-01  2712   0.279E+00    0.831E-02
DAV:   2    -0.140273434487E+03   -0.79246E-03   -0.93819E-03  3056   0.398E-01    0.505E-02
DAV:   3    -0.140273375562E+03    0.58925E-04   -0.18943E-04  3168   0.657E-02    0.371E-02
DAV:   4    -0.140273319781E+03    0.55780E-04   -0.18502E-04  2960   0.625E-02    0.171E-02
DAV:   5    -0.140273302003E+03    0.17779E-04   -0.39265E-05  2720   0.440E-02    0.165E-02
DAV:   6    -0.140273282729E+03    0.19274E-04   -0.38364E-05  2304   0.503E-02    0.797E-03
DAV:   7    -0.140273273811E+03    0.89181E-05   -0.33368E-05  2416   0.372E-02
  27 F= -.14027327E+03 E0= -.14027070E+03  d E =-.115411E-02
       N       E                     dE             d eps       ncg     rms          rms(c)
DAV:   1    -0.140273398235E+03   -0.11551E-03   -0.61956E-02  2768   0.110E+00    0.339E-02
DAV:   2    -0.140273530564E+03   -0.13233E-03   -0.15007E-03  3040   0.159E-01    0.185E-02
DAV:   3    -0.140273520508E+03    0.10057E-04   -0.20674E-05  1984   0.216E-02    0.125E-02
DAV:   4    -0.140273509211E+03    0.11297E-04   -0.33190E-05  2736   0.312E-02    0.731E-03
DAV:   5    -0.140273508518E+03    0.69270E-06   -0.94848E-06  1584   0.145E-02    0.672E-03
DAV:   6    -0.140273507174E+03    0.13440E-05   -0.31467E-06  1536   0.925E-03
  28 F= -.14027351E+03 E0= -.14027095E+03  d E =-.233364E-03
       N       E                     dE             d eps       ncg     rms          rms(c)
DAV:   1    -0.140272925926E+03    0.58259E-03   -0.43418E-01  2752   0.290E+00    0.859E-02
DAV:   2    -0.140273820403E+03   -0.89448E-03   -0.10126E-02  3040   0.419E-01    0.501E-02
DAV:   3    -0.140273754657E+03    0.65747E-04   -0.18726E-04  3208   0.695E-02    0.358E-02
DAV:   4    -0.140273690998E+03    0.63659E-04   -0.94357E-05  2984   0.590E-02    0.167E-02
DAV:   5    -0.140273661661E+03    0.29337E-04   -0.51902E-05  2768   0.618E-02    0.127E-02
DAV:   6    -0.140273645662E+03    0.15999E-04   -0.75770E-05  2560   0.706E-02    0.692E-03
DAV:   7    -0.140273639968E+03    0.56941E-05   -0.37240E-05  2448   0.410E-02
  29 F= -.14027364E+03 E0= -.14027112E+03  d E =-.366157E-03
       N       E                     dE             d eps       ncg     rms          rms(c)
DAV:   1    -0.140273615866E+03    0.29796E-04   -0.34504E-02  2760   0.817E-01    0.250E-02
DAV:   2    -0.140273687231E+03   -0.71365E-04   -0.80672E-04  3000   0.117E-01    0.145E-02
DAV:   3    -0.140273682651E+03    0.45801E-05   -0.11996E-05  1720   0.169E-02    0.967E-03
DAV:   4    -0.140273679109E+03    0.35417E-05   -0.11262E-05  1640   0.175E-02    0.343E-03
DAV:   5    -0.140273678908E+03    0.20184E-06   -0.41587E-06  1536   0.960E-03    0.323E-03
DAV:   6    -0.140273678567E+03    0.34024E-06   -0.16571E-06  1488   0.794E-03
  30 F= -.14027368E+03 E0= -.14027115E+03  d E =-.404757E-03
       N       E                     dE             d eps       ncg     rms          rms(c)
DAV:   1    -0.140273743454E+03   -0.64547E-04   -0.64462E-02  2704   0.112E+00    0.349E-02
DAV:   2    -0.140273886719E+03   -0.14326E-03   -0.15690E-03  2880   0.159E-01    0.197E-02
DAV:   3    -0.140273876740E+03    0.99789E-05   -0.13552E-05  1920   0.206E-02    0.139E-02
DAV:   4    -0.140273866340E+03    0.10400E-04   -0.28711E-05  2384   0.364E-02    0.427E-03
DAV:   5    -0.140273866003E+03    0.33748E-06   -0.13432E-05  1568   0.164E-02    0.485E-03
DAV:   6    -0.140273864157E+03    0.18453E-05   -0.30823E-06  1552   0.104E-02
  31 F= -.14027386E+03 E0= -.14027135E+03  d E =-.185590E-03
       N       E                     dE             d eps       ncg     rms          rms(c)
DAV:   1    -0.140273094007E+03    0.77200E-03   -0.50015E-01  2704   0.313E+00    0.961E-02
DAV:   2    -0.140274216560E+03   -0.11226E-02   -0.12178E-02  2888   0.443E-01    0.562E-02
DAV:   3    -0.140274137520E+03    0.79040E-04   -0.10354E-04  3216   0.565E-02    0.391E-02
DAV:   4    -0.140274057179E+03    0.80341E-04   -0.23607E-04  3008   0.101E-01    0.131E-02
DAV:   5    -0.140274054518E+03    0.26605E-05   -0.10096E-04  2744   0.452E-02    0.135E-02
DAV:   6    -0.140274043668E+03    0.10850E-04   -0.19848E-05  1856   0.229E-02    0.539E-03
DAV:   7    -0.140274018550E+03    0.25119E-04   -0.19287E-05  2120   0.459E-02    0.110E-02
DAV:   8    -0.140273992974E+03    0.25576E-04   -0.14287E-05  1944   0.496E-02    0.109E-02
DAV:   9    -0.140273967701E+03    0.25273E-04   -0.64545E-05  2656   0.717E-02    0.842E-03
DAV:  10    -0.140273933136E+03    0.34565E-04   -0.25374E-05  2576   0.104E-01    0.782E-03
DAV:  11    -0.140273920710E+03    0.12426E-04   -0.71242E-05  2992   0.972E-02    0.786E-03
DAV:  12    -0.140273924113E+03   -0.34030E-05   -0.73386E-05  2512   0.398E-02
  32 F= -.14027392E+03 E0= -.14027145E+03  d E =-.245546E-03
       N       E                     dE             d eps       ncg     rms          rms(c)
DAV:   1    -0.140273862263E+03    0.58447E-04   -0.55680E-02  2720   0.104E+00    0.336E-02
DAV:   2    -0.140273985802E+03   -0.12354E-03   -0.13498E-03  2912   0.147E-01    0.179E-02
DAV:   3    -0.140273977121E+03    0.86817E-05   -0.10612E-05  1824   0.191E-02    0.122E-02
DAV:   4    -0.140273969531E+03    0.75896E-05   -0.26632E-05  2304   0.341E-02    0.357E-03
DAV:   5    -0.140273969828E+03   -0.29704E-06   -0.11444E-05  1528   0.144E-02    0.419E-03
DAV:   6    -0.140273969357E+03    0.47104E-06   -0.12210E-06  1416   0.524E-03
  33 F= -.14027397E+03 E0= -.14027148E+03  d E =-.290790E-03
       N       E                     dE             d eps       ncg     rms          rms(c)
DAV:   1    -0.140274112278E+03   -0.14245E-03   -0.23759E-02  2744   0.692E-01    0.237E-02
DAV:   2    -0.140274160469E+03   -0.48191E-04   -0.55846E-04  2944   0.976E-02    0.116E-02
DAV:   3    -0.140274157121E+03    0.33485E-05   -0.87580E-06  1608   0.165E-02    0.823E-03
DAV:   4    -0.140274153994E+03    0.31269E-05   -0.67652E-06  1664   0.203E-02    0.323E-03
DAV:   5    -0.140274153256E+03    0.73808E-06   -0.68073E-06  1584   0.167E-02    0.363E-03
DAV:   6    -0.140274153018E+03    0.23804E-06   -0.27721E-06  1536   0.759E-03
  34 F= -.14027415E+03 E0= -.14027168E+03  d E =-.183661E-03
       N       E                     dE             d eps       ncg     rms          rms(c)
DAV:   1    -0.140274137427E+03    0.15829E-04   -0.21370E-01  2736   0.208E+00    0.663E-02
DAV:   2    -0.140274578587E+03   -0.44116E-03   -0.49265E-03  2928   0.289E-01    0.367E-02
DAV:   3    -0.140274547182E+03    0.31405E-04   -0.67853E-05  3120   0.490E-02    0.259E-02
DAV:   4    -0.140274522158E+03    0.25024E-04   -0.75137E-05  2664   0.621E-02    0.110E-02
DAV:   5    -0.140274518731E+03    0.34268E-05   -0.46508E-05  2632   0.400E-02    0.106E-02
DAV:   6    -0.140274515469E+03    0.32622E-05   -0.14444E-05  1584   0.194E-02
  35 F= -.14027452E+03 E0= -.14027210E+03  d E =-.546112E-03
       N       E                     dE             d eps       ncg     rms          rms(c)
DAV:   1    -0.140272883519E+03    0.16352E-02   -0.85361E-01  2736   0.416E+00    0.130E-01
DAV:   2    -0.140274636794E+03   -0.17533E-02   -0.19501E-02  2936   0.576E-01    0.736E-02
DAV:   3    -0.140274510285E+03    0.12651E-03   -0.27261E-04  3168   0.981E-02    0.514E-02
DAV:   4    -0.140274410278E+03    0.10001E-03   -0.28259E-04  3288   0.120E-01    0.220E-02
DAV:   5    -0.140274394473E+03    0.15805E-04   -0.17199E-04  2912   0.780E-02    0.197E-02
DAV:   6    -0.140274382680E+03    0.11793E-04   -0.65148E-05  2664   0.399E-02    0.989E-03
DAV:   7    -0.140274363377E+03    0.19303E-04   -0.15083E-05  1776   0.394E-02    0.520E-03
DAV:   8    -0.140274351918E+03    0.11459E-04   -0.11346E-05  1872   0.345E-02    0.530E-03
DAV:   9    -0.140274336562E+03    0.15356E-04   -0.29878E-05  2408   0.708E-02    0.994E-03
DAV:  10    -0.140274321872E+03    0.14690E-04   -0.41035E-05  2616   0.800E-02    0.929E-03
DAV:  11    -0.140274320962E+03    0.90916E-06   -0.50203E-05  2400   0.333E-02
  36 F= -.14027432E+03 E0= -.14027202E+03  d E =-.351605E-03
       N       E                     dE             d eps       ncg     rms          rms(c)
DAV:   1    -0.140274015064E+03    0.30681E-03   -0.31577E-01  2736   0.253E+00    0.790E-02
DAV:   2    -0.140274655394E+03   -0.64033E-03   -0.70961E-03  2920   0.346E-01    0.444E-02
DAV:   3    -0.140274606243E+03    0.49151E-04   -0.73799E-05  3168   0.533E-02    0.306E-02
DAV:   4    -0.140274566318E+03    0.39925E-04   -0.12394E-04  3080   0.827E-02    0.104E-02
DAV:   5    -0.140274568107E+03   -0.17890E-05   -0.78562E-05  2680   0.412E-02    0.119E-02
DAV:   6    -0.140274567080E+03    0.10265E-05   -0.61212E-06  1536   0.105E-02
  37 F= -.14027457E+03 E0= -.14027219E+03  d E =-.597723E-03
       N       E                     dE             d eps       ncg     rms          rms(c)
DAV:   1    -0.140274719751E+03   -0.15164E-03   -0.20794E-02  2688   0.601E-01    0.232E-02
DAV:   2    -0.140274759658E+03   -0.39906E-04   -0.54582E-04  2960   0.900E-02    0.132E-02
DAV:   3    -0.140274754716E+03    0.49417E-05   -0.11797E-05  1720   0.191E-02    0.977E-03
DAV:   4    -0.140274748358E+03    0.63576E-05   -0.11042E-05  1704   0.223E-02    0.402E-03
DAV:   5    -0.140274746489E+03    0.18693E-05   -0.71837E-06  1672   0.175E-02    0.451E-03
DAV:   6    -0.140274745390E+03    0.10990E-05   -0.48998E-06  1600   0.131E-02
  38 F= -.14027475E+03 E0= -.14027239E+03  d E =-.178310E-03
       N       E                     dE             d eps       ncg     rms          rms(c)
DAV:   1    -0.140274707280E+03    0.39209E-04   -0.12212E-01  2688   0.146E+00    0.571E-02
DAV:   2    -0.140274975274E+03   -0.26799E-03   -0.32436E-03  2936   0.216E-01    0.322E-02
DAV:   3    -0.140274956439E+03    0.18835E-04   -0.70865E-05  3112   0.416E-02    0.229E-02
DAV:   4    -0.140274939966E+03    0.16473E-04   -0.53087E-05  2736   0.340E-02    0.108E-02
DAV:   5    -0.140274932314E+03    0.76519E-05   -0.83651E-06  1832   0.236E-02    0.738E-03
DAV:   6    -0.140274923289E+03    0.90255E-05   -0.18331E-05  2144   0.333E-02
  39 F= -.14027492E+03 E0= -.14027262E+03  d E =-.356208E-03
       N       E                     dE             d eps       ncg     rms          rms(c)
DAV:   1    -0.140274960354E+03   -0.28039E-04   -0.40898E-02  2688   0.832E-01    0.343E-02
DAV:   2    -0.140275057230E+03   -0.96876E-04   -0.11395E-03  2928   0.120E-01    0.183E-02
DAV:   3    -0.140275048482E+03    0.87482E-05   -0.13485E-05  1960   0.219E-02    0.123E-02
DAV:   4    -0.140275041591E+03    0.68908E-05   -0.24419E-05  2296   0.301E-02    0.459E-03
DAV:   5    -0.140275041734E+03   -0.14302E-06   -0.10821E-05  1768   0.151E-02    0.465E-03
DAV:   6    -0.140275041326E+03    0.40768E-06   -0.19294E-06  1512   0.641E-03
  40 F= -.14027504E+03 E0= -.14027275E+03  d E =-.118037E-03
