 vasp.5.3.5 31Mar14 (build Apr 08 2024 10:12:10) complex                        
  
 executed on             LinuxIFC date 2024.07.29  21:46:58
 running on    8 total cores
 distrk:  each k-point on    8 cores,    1 groups
 distr:  one band on NCORES_PER_BAND=   4 cores,    2 groups


--------------------------------------------------------------------------------------------------------


 INCAR:
 POTCAR:    PAW_PBE O 08Apr2002                   
 POTCAR:    PAW_PBE Mg 13Apr2007                  
 POTCAR:    PAW_PBE Al 04Jan2001                  
 POTCAR:    PAW_PBE O 08Apr2002                   
   VRHFIN =O: s2p4                                                              
   LEXCH  = PE                                                                  
   EATOM  =   432.3788 eV,   31.7789 Ry                                         
                                                                                
   TITEL  = PAW_PBE O 08Apr2002                                                 
   LULTRA =        F    use ultrasoft PP ?                                      
   IUNSCR =        1    unscreen: 0-lin 1-nonlin 2-no                           
   RPACOR =    1.200    partial core radius                                     
   POMASS =   16.000; ZVAL   =    6.000    mass and valenz                      
   RCORE  =    1.520    outmost cutoff radius                                   
   RWIGS  =    1.550; RWIGS  =    0.820    wigner-seitz radius (au A)           
   ENMAX  =  400.000; ENMIN  =  300.000 eV                                      
   ICORE  =        2    local potential                                         
   LCOR   =        T    correct aug charges                                     
   LPAW   =        T    paw PP                                                  
   EAUG   =  605.392                                                            
   DEXC   =    0.000                                                            
   RMAX   =    1.553    core radius for proj-oper                               
   RAUG   =    1.300    factor for augmentation sphere                          
   RDEP   =    1.550    radius for radial grids                                 
   RDEPT  =    1.329    core radius for aug-charge                              
                                                                                
   Atomic configuration                                                         
    4 entries                                                                   
     n  l   j            E        occ.                                          
     1  0  0.50      -514.6923   2.0000                                         
     2  0  0.50       -23.9615   2.0000                                         
     2  1  0.50        -9.0305   4.0000                                         
     3  2  1.50        -9.5241   0.0000                                         
   Description                                                                  
     l       E           TYP  RCUT    TYP  RCUT                                 
     0    -23.9615318     23  1.200                                             
     0     -9.5240782     23  1.200                                             
     1     -9.0304911     23  1.520                                             
     1      8.1634956     23  1.520                                             
     2     -9.5240782      7  1.500                                             
  local pseudopotential read in
  partial core-charges read in
  partial kinetic energy density read in
  kinetic energy density of atom read in
  atomic valenz-charges read in
  non local Contribution for L=           0  read in
    real space projection operators read in
  non local Contribution for L=           0  read in
    real space projection operators read in
  non local Contribution for L=           1  read in
    real space projection operators read in
  non local Contribution for L=           1  read in
    real space projection operators read in
    PAW grid and wavefunctions read in
 
   number of l-projection  operators is LMAX  =           4
   number of lm-projection operators is LMMAX =           8
 
 POTCAR:    PAW_PBE Mg 13Apr2007                  
   VRHFIN =Mg: s2p0                                                             
   LEXCH  = PE                                                                  
   EATOM  =    23.0369 eV,    1.6932 Ry                                         
                                                                                
   TITEL  = PAW_PBE Mg 13Apr2007                                                
   LULTRA =        F    use ultrasoft PP ?                                      
   IUNSCR =        1    unscreen: 0-lin 1-nonlin 2-no                           
   RPACOR =    1.500    partial core radius                                     
   POMASS =   24.305; ZVAL   =    2.000    mass and valenz                      
   RCORE  =    2.000    outmost cutoff radius                                   
   RWIGS  =    2.880; RWIGS  =    1.524    wigner-seitz radius (au A)           
   ENMAX  =  200.000; ENMIN  =  100.000 eV                                      
   RCLOC  =    1.506    cutoff for local pot                                    
   LCOR   =        T    correct aug charges                                     
   LPAW   =        T    paw PP                                                  
   EAUG   =  454.734                                                            
   DEXC   =    0.000                                                            
   RMAX   =    2.045    core radius for proj-oper                               
   RAUG   =    1.300    factor for augmentation sphere                          
   RDEP   =    2.025    radius for radial grids                                 
   RDEPT  =    1.942    core radius for aug-charge                              
                                                                                
   Atomic configuration                                                         
    6 entries                                                                   
     n  l   j            E        occ.                                          
     1  0  0.50     -1259.6230   2.0000                                         
     2  0  0.50       -79.8442   2.0000                                         
     2  1  1.50       -46.6121   6.0000                                         
     3  0  0.50        -4.7055   2.0000                                         
     3  1  0.50        -1.3660   0.0000                                         
     3  2  1.50        -1.3606   0.0000                                         
   Description                                                                  
     l       E           TYP  RCUT    TYP  RCUT                                 
     0     -4.7054661     23  2.000                                             
     0     27.2116520     23  2.000                                             
     1      1.3605826     23  2.000                                             
     1     27.2116520     23  2.000                                             
     2     -1.3605826     23  2.000                                             
  local pseudopotential read in
  partial core-charges read in
  partial kinetic energy density read in
  atomic valenz-charges read in
  non local Contribution for L=           0  read in
    real space projection operators read in
  non local Contribution for L=           0  read in
    real space projection operators read in
  non local Contribution for L=           1  read in
    real space projection operators read in
  non local Contribution for L=           1  read in
    real space projection operators read in
  non local Contribution for L=           2  read in
    real space projection operators read in
    PAW grid and wavefunctions read in
 
   number of l-projection  operators is LMAX  =           5
   number of lm-projection operators is LMMAX =          13
 
 POTCAR:    PAW_PBE Al 04Jan2001                  
   VRHFIN =Al: s2p1                                                             
   LEXCH  = PE                                                                  
   EATOM  =    53.5387 eV,    3.9350 Ry                                         
                                                                                
   TITEL  = PAW_PBE Al 04Jan2001                                                
   LULTRA =        F    use ultrasoft PP ?                                      
   IUNSCR =        1    unscreen: 0-lin 1-nonlin 2-no                           
   RPACOR =    1.500    partial core radius                                     
   POMASS =   26.981; ZVAL   =    3.000    mass and valenz                      
   RCORE  =    1.900    outmost cutoff radius                                   
   RWIGS  =    2.650; RWIGS  =    1.402    wigner-seitz radius (au A)           
   ENMAX  =  240.300; ENMIN  =  180.225 eV                                      
   ICORE  =        2    local potential                                         
   LCOR   =        T    correct aug charges                                     
   LPAW   =        T    paw PP                                                  
   EAUG   =  291.052                                                            
   DEXC   =    0.000                                                            
   RMAX   =    1.939    core radius for proj-oper                               
   RAUG   =    1.300    factor for augmentation sphere                          
   RDEP   =    1.966    radius for radial grids                                 
   RDEPT  =    1.856    core radius for aug-charge                              
                                                                                
   Atomic configuration                                                         
    6 entries                                                                   
     n  l   j            E        occ.                                          
     1  0  0.50     -1511.1048   2.0000                                         
     2  0  0.50      -108.1629   2.0000                                         
     2  1  1.50       -69.6402   6.0000                                         
     3  0  0.50        -7.7528   2.0000                                         
     3  1  1.50        -2.7121   1.0000                                         
     3  2  2.50        -2.7212   0.0000                                         
   Description                                                                  
     l       E           TYP  RCUT    TYP  RCUT                                 
     0     -7.7528455     23  1.900                                             
     0     -3.3096929     23  1.900                                             
     1     -2.7120682     23  1.900                                             
     1     13.6058260     23  1.900                                             
     2     -2.7211652      7  1.900                                             
  local pseudopotential read in
  partial core-charges read in
  partial kinetic energy density read in
  atomic valenz-charges read in
  non local Contribution for L=           0  read in
    real space projection operators read in
  non local Contribution for L=           0  read in
    real space projection operators read in
  non local Contribution for L=           1  read in
    real space projection operators read in
  non local Contribution for L=           1  read in
    real space projection operators read in
    PAW grid and wavefunctions read in
 
   number of l-projection  operators is LMAX  =           4
   number of lm-projection operators is LMMAX =           8
 

 ----------------------------------------------------------------------------- 
|                                                                             |
|  ADVICE TO THIS USER RUNNING 'VASP/VAMP'   (HEAR YOUR MASTER'S VOICE ...):  |
|                                                                             |
|      You have a (more or less) 'large supercell' and for larger cells       |
|      it might be more efficient to use real space projection opertators     |
|      So try LREAL= Auto  in the INCAR   file.                               |
|      Mind: At the moment your POTCAR file does not contain real space       |
|       projectors, and has to be modified,  BUT if you                       |
|      want to do an extremely  accurate calculation you might also keep the  |
|      reciprocal projection scheme          (i.e. LREAL=.FALSE.)             |
|                                                                             |
 ----------------------------------------------------------------------------- 

  PAW_PBE O 08Apr2002                   :
 energy of atom  1       EATOM= -432.3788
 kinetic energy error for atom=    0.0208 (will be added to EATOM!!)
  PAW_PBE Mg 13Apr2007                  :
 energy of atom  2       EATOM=  -23.0369
 kinetic energy error for atom=    0.0000 (will be added to EATOM!!)
  PAW_PBE Al 04Jan2001                  :
 energy of atom  3       EATOM=  -53.5387
 kinetic energy error for atom=    0.0002 (will be added to EATOM!!)
 
 
 POSCAR: Layer                                   
  positions in direct lattice
  velocities in cartesian coordinates
 exchange correlation table for  LEXCH =        8
   RHO(1)=    0.500       N(1)  =     2000
   RHO(2)=  100.500       N(2)  =     4000
 


--------------------------------------------------------------------------------------------------------


 ion  position               nearest neighbor table
   1  0.000  0.000  0.260-  21 1.76  14 2.10  14 2.10  14 2.10
   2  0.333  0.667  0.317-  11 2.15  11 2.15  11 2.15  14 2.15  14 2.15  14 2.15
   3  0.000  0.000  0.437-  17 2.15  17 2.15  17 2.15  15 2.15  15 2.15  15 2.15
   4  0.333  0.667  0.496-  12 2.15  12 2.15  12 2.15  15 2.15  15 2.15  15 2.15
   5  0.000  0.000  0.616-  16 2.15  16 2.15  16 2.15  18 2.15  18 2.15  18 2.15
   6  0.333  0.667  0.675-  13 2.15  13 2.15  13 2.15  16 2.15  16 2.15  16 2.15
   7  0.000  0.000  0.792-  24 1.76  19 2.10  19 2.10  19 2.10
   8  0.667  0.333  0.377-  11 2.15  11 2.15  11 2.15  17 2.15  17 2.15  17 2.15
   9  0.667  0.333  0.556-  12 2.15  12 2.15  12 2.15  18 2.15  18 2.15  18 2.15
  10  0.667  0.333  0.735-  13 2.15  13 2.15  13 2.15  19 2.15  19 2.15  19 2.15
  11  0.000  0.000  0.347-   8 2.15   8 2.15   8 2.15   2 2.15   2 2.15   2 2.15  17 3.09  17 3.09
                            17 3.09  14 3.09  14 3.09  14 3.09
  12  0.000  0.000  0.526-   4 2.15   4 2.15   4 2.15   9 2.15   9 2.15   9 2.15  15 3.08  15 3.08
                            15 3.08  18 3.08  18 3.08  18 3.08
  13  0.000  0.000  0.705-   6 2.15   6 2.15   6 2.15  10 2.15  10 2.15  10 2.15  16 3.09  16 3.09
                            16 3.09  19 3.09  19 3.09  19 3.09
  14  0.667  0.333  0.287-   1 2.10   1 2.10   1 2.10   2 2.15   2 2.15   2 2.15  11 3.09  11 3.09
                            11 3.09  21 3.41  21 3.41  21 3.41
  15  0.667  0.333  0.466-   4 2.15   4 2.15   4 2.15   3 2.15   3 2.15   3 2.15  12 3.08  12 3.08
                            12 3.08  17 3.09  17 3.09  17 3.09
  16  0.667  0.333  0.645-   5 2.15   5 2.15   5 2.15   6 2.15   6 2.15   6 2.15  13 3.09  13 3.09
                            13 3.09  18 3.09  18 3.09  18 3.09
  17  0.333  0.667  0.407-   3 2.15   3 2.15   3 2.15   8 2.15   8 2.15   8 2.15  11 3.09  11 3.09
                            11 3.09  15 3.09  15 3.09  15 3.09
  18  0.333  0.667  0.586-   9 2.15   9 2.15   9 2.15   5 2.15   5 2.15   5 2.15  12 3.08  12 3.08
                            12 3.08  16 3.09  16 3.09  16 3.09
  19  0.333  0.667  0.765-   7 2.10   7 2.10   7 2.10  10 2.15  10 2.15  10 2.15  13 3.09  13 3.09
                            13 3.09  24 3.41  24 3.41  24 3.41
  20  0.000  0.000  0.026-  23 3.22  23 3.22  23 3.22  25 3.22  25 3.22  25 3.22
  21  0.000  0.000  0.219-   1 1.76  22 3.08  22 3.08  22 3.08  14 3.41  14 3.41  14 3.41
  22  0.667  0.333  0.159-  21 3.08  21 3.08  21 3.08
  23  0.333  0.667  0.089-  20 3.22  20 3.22  20 3.22
  24  0.000  0.000  0.833-   7 1.76  26 3.08  26 3.08  26 3.08  19 3.41  19 3.41  19 3.41
  25  0.667  0.333  0.963-  20 3.22  20 3.22  20 3.22
  26  0.333  0.667  0.893-  24 3.08  24 3.08  24 3.08
 
  LATTYP: Found a hexagonal cell.
 ALAT       =     3.0027496481
 C/A-ratio  =    14.2476908798
  
  Lattice vectors:
  
 A1 = (   2.6004576727,  -1.5013744842,   0.0000000000)
 A2 = (   0.0000000000,   3.0027489684,   0.0000000000)
 A3 = (   0.0000000000,  -0.0000000000,  42.7822487758)


Analysis of symmetry for initial positions (statically):
=====================================================================
 Subroutine PRICEL returns:
 Original cell was already a primitive cell.
 

 Routine SETGRP: Setting up the symmetry group for a 
 hexagonal supercell.


 Subroutine GETGRP returns: Found  6 space group operations
 (whereof  6 operations were pure point group operations)
 out of a pool of 24 trial point group operations.


The static configuration has the point symmetry C_3v.


Analysis of symmetry for dynamics (positions and initial velocities):
=====================================================================
 Subroutine PRICEL returns:
 Original cell was already a primitive cell.
 

 Routine SETGRP: Setting up the symmetry group for a 
 hexagonal supercell.


 Subroutine GETGRP returns: Found  6 space group operations
 (whereof  6 operations were pure point group operations)
 out of a pool of 24 trial point group operations.


The dynamic configuration has the point symmetry C_3v.


Analysis of constrained symmetry for selective dynamics:
=====================================================================
 Subroutine PRICEL returns:
 Original cell was already a primitive cell.
 

 Routine SETGRP: Setting up the symmetry group for a 
 hexagonal supercell.


 Subroutine GETGRP returns: Found  6 space group operations
 (whereof  6 operations were pure point group operations)
 out of a pool of 24 trial point group operations.


The constrained configuration has the point symmetry C_3v.
 
 
 KPOINTS: K-Spacing Value to Generate K-Mesh: 0.02

Automatic generation of k-mesh.
Space group operators:
 irot       det(A)        alpha          n_x          n_y          n_z        tau_x        tau_y        tau_z
    1     1.000000     0.000000     1.000000     0.000000     0.000000     0.000000     0.000000     0.000000
    2     1.000000   120.000000    -0.000000    -0.000000    -1.000000     0.000000     0.000000     0.000000
    3     1.000000   120.000000     0.000000    -0.000000     1.000000     0.000000     0.000000     0.000000
    4    -1.000000   180.000000    -0.866025     0.500000     0.000000     0.000000     0.000000     0.000000
    5    -1.000000   180.000000     0.000000     1.000000     0.000000     0.000000     0.000000     0.000000
    6    -1.000000   180.000000    -0.866025    -0.500000     0.000000     0.000000     0.000000     0.000000
 
 Subroutine IBZKPT returns following result:
 ===========================================
 
 Found     21 irreducible k-points:
 
 Following reciprocal coordinates:
            Coordinates               Weight
  0.000000  0.000000  0.000000      1.000000
  0.076923  0.000000  0.000000      6.000000
  0.153846  0.000000  0.000000      6.000000
  0.230769  0.000000  0.000000      6.000000
  0.307692  0.000000 -0.000000      6.000000
  0.384615  0.000000  0.000000      6.000000
  0.461538  0.000000  0.000000      6.000000
  0.076923  0.076923 -0.000000      6.000000
  0.153846  0.076923  0.000000     12.000000
  0.230769  0.076923 -0.000000     12.000000
  0.307692  0.076923 -0.000000     12.000000
  0.384615  0.076923  0.000000     12.000000
  0.461538  0.076923  0.000000      6.000000
  0.153846  0.153846 -0.000000      6.000000
  0.230769  0.153846 -0.000000     12.000000
  0.307692  0.153846  0.000000     12.000000
  0.384615  0.153846  0.000000     12.000000
  0.230769  0.230769 -0.000000      6.000000
  0.307692  0.230769 -0.000000     12.000000
  0.384615  0.230769  0.000000      6.000000
  0.307692  0.307692 -0.000000      6.000000
 
 Following cartesian coordinates:
            Coordinates               Weight
  0.000000  0.000000  0.000000      1.000000
  0.029581  0.000000 -0.000000      6.000000
  0.059161  0.000000 -0.000000      6.000000
  0.088742  0.000000 -0.000000      6.000000
  0.118322  0.000000 -0.000000      6.000000
  0.147903  0.000000 -0.000000      6.000000
  0.177484  0.000000 -0.000000      6.000000
  0.044371  0.025618 -0.000000      6.000000
  0.073951  0.025618 -0.000000     12.000000
  0.103532  0.025618 -0.000000     12.000000
  0.133113  0.025618 -0.000000     12.000000
  0.162693  0.025618 -0.000000     12.000000
  0.192274  0.025618 -0.000000      6.000000
  0.088742  0.051235 -0.000000      6.000000
  0.118322  0.051235 -0.000000     12.000000
  0.147903  0.051235 -0.000000     12.000000
  0.177484  0.051235 -0.000000     12.000000
  0.133113  0.076853 -0.000000      6.000000
  0.162693  0.076853 -0.000000     12.000000
  0.192274  0.076853 -0.000000      6.000000
  0.177484  0.102470 -0.000000      6.000000
 


--------------------------------------------------------------------------------------------------------




 Dimension of arrays:
   k-points           NKPTS =     21   k-points in BZ     NKDIM =     21   number of bands    NBANDS=     64
   number of dos      NEDOS =    301   number of ions     NIONS =     26
   non local maximal  LDIM  =      5   non local SUM 2l+1 LMDIM =     13
   total plane-waves  NPLWV = 184320
   max r-space proj   IRMAX =      1   max aug-charges    IRDMAX= 187683
   dimension x,y,z NGX =    24 NGY =   24 NGZ =  320
   dimension x,y,z NGXF=    48 NGYF=   48 NGZF=  640
   support grid    NGXF=    96 NGYF=   96 NGZF= 1280
   ions per type =              10   9   7
 NGX,Y,Z   is equivalent  to a cutoff of  13.29, 13.29, 12.43 a.u.
 NGXF,Y,Z  is equivalent  to a cutoff of  26.57, 26.57, 24.87 a.u.


 I would recommend the setting:
   dimension x,y,z NGX =    22 NGY =   22 NGZ =  318
 SYSTEM =  unknown system                          
 POSCAR =  Layer                                   

 Startparameter for this run:
   NWRITE =      2    write-flag & timer
   PREC   = accura    normal or accurate (medium, high low for compatibility)
   ISTART =      0    job   : 0-new  1-cont  2-samecut
   ICHARG =      2    charge: 1-file 2-atom 10-const
   ISPIN  =      1    spin polarized calculation?
   LNONCOLLINEAR =      F non collinear calculations
   LSORBIT =      F    spin-orbit coupling
   INIWAV =      1    electr: 0-lowe 1-rand  2-diag
   LASPH  =      F    aspherical Exc in radial PAW
   METAGGA=      F    non-selfconsistent MetaGGA calc.

 Electronic Relaxation 1
   ENCUT  =  520.0 eV  38.22 Ry    6.18 a.u.   5.58  5.58 79.55*2*pi/ulx,y,z
   ENINI  =  520.0     initial cutoff
   ENAUG  =  605.4 eV  augmentation charge cutoff
   NELM   =    100;   NELMIN=  6; NELMDL=  0     # of ELM steps 
   EDIFF  = 0.1E-04   stopping-criterion for ELM
   LREAL  =      F    real-space projection
   NLSPLINE    = F    spline interpolate recip. space projectors
   LCOMPAT=      F    compatible to vasp.4.4
   GGA_COMPAT  = T    GGA compatible to vasp.4.4-vasp.4.6
   LMAXPAW     = -100 max onsite density
   LMAXMIX     =    2 max onsite mixed and CHGCAR
   VOSKOWN=      0    Vosko Wilk Nusair interpolation
   ROPT   =    0.00000   0.00000   0.00000
 Ionic relaxation
   EDIFFG = -.2E-01   stopping-criterion for IOM
   NSW    =    500    number of steps for IOM
   NBLOCK =      1;   KBLOCK =    500    inner block; outer block 
   IBRION =      2    ionic relax: 0-MD 1-quasi-New 2-CG
   NFREE  =      1    steps in history (QN), initial steepest desc. (CG)
   ISIF   =      2    stress and relaxation
   IWAVPR =     11    prediction:  0-non 1-charg 2-wave 3-comb
   ISYM   =      2    0-nonsym 1-usesym 2-fastsym
   LCORR  =      T    Harris-Foulkes like correction to forces

   POTIM  = 0.5000    time-step for ionic-motion
   TEIN   =    0.0    initial temperature
   TEBEG  =    0.0;   TEEND  =   0.0 temperature during run
   SMASS  =  -3.00    Nose mass-parameter (am)
   estimated Nose-frequenzy (Omega)   =  0.10E-29 period in steps =****** mass=  -0.206E-27a.u.
   SCALEE = 1.0000    scale energy and forces
   NPACO  =    256;   APACO  = 16.0  distance and # of slots for P.C.
   PSTRESS=    0.0 pullay stress

  Mass of Ions in am
   POMASS =  16.00 24.30 26.98
  Ionic Valenz
   ZVAL   =   6.00  2.00  3.00
  Atomic Wigner-Seitz radii
   RWIGS  =  -1.00 -1.00 -1.00
  virtual crystal weights 
   VCA    =   1.00  1.00  1.00
   NELECT =      99.0000    total number of electrons
   NUPDOWN=      -1.0000    fix difference up-down

 DOS related values:
   EMIN   =  10.00;   EMAX   =-10.00  energy-range for DOS
   EFERMI =   0.00
   ISMEAR =     0;   SIGMA  =   0.05  broadening in eV -4-tet -1-fermi 0-gaus

 Electronic relaxation 2 (details)
   IALGO  =     38    algorithm
   LDIAG  =      T    sub-space diagonalisation (order eigenvalues)
   LSUBROT=      F    optimize rotation matrix (better conditioning)
   TURBO    =      0    0=normal 1=particle mesh
   IRESTART =      0    0=no restart 2=restart with 2 vectors
   NREBOOT  =      0    no. of reboots
   NMIN     =      0    reboot dimension
   EREF     =   0.00    reference energy to select bands
   IMIX   =      4    mixing-type and parameters
     AMIX     =   0.40;   BMIX     =  1.00
     AMIX_MAG =   1.60;   BMIX_MAG =  1.00
     AMIN     =   0.01
     WC   =   100.;   INIMIX=   1;  MIXPRE=   1;  MAXMIX= -45

 Intra band minimization:
   WEIMIN = 0.0010     energy-eigenvalue tresh-hold
   EBREAK =  0.39E-07  absolut break condition
   DEPER  =   0.30     relativ break condition  

   TIME   =   0.40     timestep for ELM

  volume/ion in A,a.u.               =      12.85        86.71
  Fermi-wavevector in a.u.,A,eV,Ry     =   1.091463  2.062566 16.208510  1.191292
  Thomas-Fermi vector in A             =   2.227709
 
 Write flags
   LWAVE  =      F    write WAVECAR
   LCHARG =      T    write CHGCAR
   LVTOT  =      F    write LOCPOT, total local potential
   LVHAR  =      F    write LOCPOT, Hartree potential only
   LELF   =      F    write electronic localiz. function (ELF)
   LORBIT =      0    0 simple, 1 ext, 2 COOP (PROOUT)


 Dipole corrections
   LMONO  =      F    monopole corrections only (constant potential shift)
   LDIPOL =      F    correct potential (dipole corrections)
   IDIPOL =      0    1-x, 2-y, 3-z, 4-all directions 
   EPSILON=  1.0000000 bulk dielectric constant

 Exchange correlation treatment:
   GGA     =    --    GGA type
   LEXCH   =     8    internal setting for exchange type
   VOSKOWN=      0    Vosko Wilk Nusair interpolation
   LHFCALC =     F    Hartree Fock is set to
   LHFONE  =     F    Hartree Fock one center treatment
   AEXX    =    0.0000 exact exchange contribution

 Linear response parameters
   LEPSILON=     F    determine dielectric tensor
   LRPA    =     F    only Hartree local field effects (RPA)
   LNABLA  =     F    use nabla operator in PAW spheres
   LVEL    =     F    velocity operator in full k-point grid
   LINTERFAST=   F  fast interpolation
   KINTER  =     0    interpolate to denser k-point grid
   CSHIFT  =0.1000    complex shift for real part using Kramers Kronig
   OMEGAMAX=  -1.0    maximum frequency
   DEG_THRESHOLD= 0.2000000E-02 threshold for treating states as degnerate
   RTIME   =    0.100 relaxation time in fs

 Orbital magnetization related:
   ORBITALMAG=     F  switch on orbital magnetization
   LCHIMAG   =     F  perturbation theory with respect to B field
   DQ        =  0.001000  dq finite difference perturbation B field



--------------------------------------------------------------------------------------------------------


 conjugate gradient relaxation of ions
   using selective dynamics as specified on POSCAR
 charge density and potential will be updated during run
 non-spin polarized calculation
 Variant of blocked Davidson
 Davidson routine will perform the subspace rotation
 perform sub-space diagonalisation
    after iterative eigenvector-optimisation
 modified Broyden-mixing scheme, WC =      100.0
 initial mixing is a Kerker type mixing with AMIX =  0.4000 and BMIX =      1.0000
 Hartree-type preconditioning will be used
 using additional bands           14
 reciprocal scheme for non local part
 use partial core corrections
 calculate Harris-corrections to forces 
   (improved forces if not selfconsistent)
 use gradient corrections 
 use of overlap-Matrix (Vanderbilt PP)
 Gauss-broadening in eV      SIGMA  =   0.05


--------------------------------------------------------------------------------------------------------


  energy-cutoff  :      520.00
  volume of cell :      334.07
      direct lattice vectors                 reciprocal lattice vectors
     2.600457673 -1.501374484  0.000000000     0.384547693  0.000000000 -0.000000000
     0.000000000  3.002748968  0.000000000     0.192273847  0.333028172 -0.000000000
     0.000000000 -0.000000000 42.782248776     0.000000000  0.000000000  0.023374180

  length of vectors
     3.002749648  3.002748968 42.782248776     0.384547693  0.384547781  0.023374180


 
 k-points in units of 2pi/SCALE and weight: K-Spacing Value to Generate K-Mesh: 0.02
   0.00000000  0.00000000  0.00000000       0.006
   0.02958059  0.00000000 -0.00000000       0.036
   0.05916118  0.00000000 -0.00000000       0.036
   0.08874178  0.00000000 -0.00000000       0.036
   0.11832237  0.00000000 -0.00000000       0.036
   0.14790296  0.00000000 -0.00000000       0.036
   0.17748355  0.00000000 -0.00000000       0.036
   0.04437089  0.02561755 -0.00000000       0.036
   0.07395148  0.02561755 -0.00000000       0.071
   0.10353207  0.02561755 -0.00000000       0.071
   0.13311266  0.02561755 -0.00000000       0.071
   0.16269325  0.02561755 -0.00000000       0.071
   0.19227385  0.02561755 -0.00000000       0.036
   0.08874178  0.05123510 -0.00000000       0.036
   0.11832237  0.05123510 -0.00000000       0.071
   0.14790296  0.05123510 -0.00000000       0.071
   0.17748355  0.05123510 -0.00000000       0.071
   0.13311266  0.07685266 -0.00000000       0.036
   0.16269325  0.07685266 -0.00000000       0.071
   0.19227385  0.07685266 -0.00000000       0.036
   0.17748355  0.10247021 -0.00000000       0.036
 
 k-points in reciprocal lattice and weights: K-Spacing Value to Generate K-Mesh: 0.02
   0.00000000  0.00000000  0.00000000       0.006
   0.07692308  0.00000000  0.00000000       0.036
   0.15384615  0.00000000  0.00000000       0.036
   0.23076923  0.00000000  0.00000000       0.036
   0.30769231  0.00000000 -0.00000000       0.036
   0.38461538  0.00000000  0.00000000       0.036
   0.46153846  0.00000000  0.00000000       0.036
   0.07692308  0.07692308 -0.00000000       0.036
   0.15384615  0.07692308  0.00000000       0.071
   0.23076923  0.07692308 -0.00000000       0.071
   0.30769231  0.07692308 -0.00000000       0.071
   0.38461538  0.07692308  0.00000000       0.071
   0.46153846  0.07692308  0.00000000       0.036
   0.15384615  0.15384615 -0.00000000       0.036
   0.23076923  0.15384615 -0.00000000       0.071
   0.30769231  0.15384615  0.00000000       0.071
   0.38461538  0.15384615  0.00000000       0.071
   0.23076923  0.23076923 -0.00000000       0.036
   0.30769231  0.23076923 -0.00000000       0.071
   0.38461538  0.23076923  0.00000000       0.036
   0.30769231  0.30769231 -0.00000000       0.036
 
 position of ions in fractional coordinates (direct lattice) 
   0.00000000  0.00000000  0.25973175
   0.33333300  0.66666700  0.31715035
   0.00000000  0.00000000  0.43655594
   0.33333300  0.66666700  0.49622750
   0.00000000  0.00000000  0.61551762
   0.33333300  0.66666700  0.67522486
   0.00000000  0.00000000  0.79234220
   0.66666700  0.33333300  0.37684850
   0.66666700  0.33333300  0.55584514
   0.66666700  0.33333300  0.73492308
   0.00000000  0.00000000  0.34703671
   0.00000000  0.00000000  0.52603592
   0.00000000  0.00000000  0.70503719
   0.66666700  0.33333300  0.28726165
   0.66666700  0.33333300  0.46640859
   0.66666700  0.33333300  0.64535152
   0.33333300  0.66666700  0.40672195
   0.33333300  0.66666700  0.58566403
   0.33333300  0.66666700  0.76481364
   0.00000000  0.00000000  0.02603973
   0.00000000  0.00000000  0.21866257
   0.66666700  0.33333300  0.15912640
   0.33333300  0.66666700  0.08944059
   0.00000000  0.00000000  0.83341361
   0.66666700  0.33333300  0.96263872
   0.33333300  0.66666700  0.89294724
 
 position of ions in cartesian coordinates  (Angst):
   0.00000000 -0.00000000 11.11190816
   0.86681836  1.50137599 13.56840527
   0.00000000 -0.00000000 18.67684485
   0.86681836  1.50137599 21.22972823
   0.00000000 -0.00000000 26.33322791
   0.86681836  1.50137599 28.88763783
   0.00000000 -0.00000000 33.89818111
   1.73363932 -0.00000150 16.12242631
   1.73363932 -0.00000150 23.78030496
   1.73363932 -0.00000150 31.44166224
   0.00000000 -0.00000000 14.84701095
   0.00000000 -0.00000000 22.50499960
   0.00000000 -0.00000000 30.16307633
   1.73363932 -0.00000150 12.28969918
   1.73363932 -0.00000150 19.95400839
   1.73363932 -0.00000150 27.60958938
   0.86681836  1.50137599 17.40047972
   0.86681836  1.50137599 25.05602438
   0.86681836  1.50137599 32.72044723
   0.00000000 -0.00000000  1.11403838
   0.00000000 -0.00000000  9.35487630
   1.73363932 -0.00000150  6.80778540
   0.86681836  1.50137599  3.82646936
   0.00000000 -0.00000000 35.65530857
   1.73363932 -0.00000150 41.18384923
   0.86681836  1.50137599 38.20229106
 


--------------------------------------------------------------------------------------------------------


 k-point  1 :   0.0000 0.0000 0.0000  plane waves:    9123
 k-point  2 :   0.0769 0.0000 0.0000  plane waves:    9087
 k-point  3 :   0.1538 0.0000 0.0000  plane waves:    9073
 k-point  4 :   0.2308 0.0000 0.0000  plane waves:    9052
 k-point  5 :   0.3077 0.0000-0.0000  plane waves:    9004
 k-point  6 :   0.3846 0.0000 0.0000  plane waves:    8964
 k-point  7 :   0.4615 0.0000 0.0000  plane waves:    8964
 k-point  8 :   0.0769 0.0769-0.0000  plane waves:    9087
 k-point  9 :   0.1538 0.0769 0.0000  plane waves:    9066
 k-point 10 :   0.2308 0.0769-0.0000  plane waves:    9013
 k-point 11 :   0.3077 0.0769-0.0000  plane waves:    8988
 k-point 12 :   0.3846 0.0769 0.0000  plane waves:    8959
 k-point 13 :   0.4615 0.0769 0.0000  plane waves:    8932
 k-point 14 :   0.1538 0.1538-0.0000  plane waves:    9027
 k-point 15 :   0.2308 0.1538-0.0000  plane waves:    8988
 k-point 16 :   0.3077 0.1538 0.0000  plane waves:    8966
 k-point 17 :   0.3846 0.1538 0.0000  plane waves:    8936
 k-point 18 :   0.2308 0.2308-0.0000  plane waves:    8984
 k-point 19 :   0.3077 0.2308-0.0000  plane waves:    8967
 k-point 20 :   0.3846 0.2308 0.0000  plane waves:    8968
 k-point 21 :   0.3077 0.3077-0.0000  plane waves:    8992

 maximum and minimum number of plane-waves per node :      2315     2207

 maximum number of plane-waves:      9123
 maximum index in each direction: 
   IXMAX=    5   IYMAX=    5   IZMAX=   79
   IXMIN=   -6   IYMIN=   -5   IZMIN=  -79

 NGX is ok and might be reduce to  24
 NGY is ok and might be reduce to  22
 NGZ is ok and might be reduce to 318

 parallel 3D FFT for wavefunctions:
    minimum data exchange during FFTs selected (reduces bandwidth)
 parallel 3D FFT for charge:
    minimum data exchange during FFTs selected (reduces bandwidth)


 total amount of memory used by VASP on root node   149095. kBytes
========================================================================

   base      :      30000. kBytes
   nonl-proj :      16137. kBytes
   fftplans  :      55173. kBytes
   grid      :      22118. kBytes
   one-center:         56. kBytes
   wavefun   :      25611. kBytes
 
     INWAV:  cpu time    0.00: real time    0.00
 Broyden mixing: mesh for mixing (old mesh)
   NGX = 11   NGY = 11   NGZ =159
  (NGX  = 48   NGY  = 48   NGZ  =640)
  gives a total of  19239 points

 initial charge density was supplied:
 charge density of overlapping atoms calculated
 number of electron      99.0000000 magnetization 
 keeping initial charge density in first step


--------------------------------------------------------------------------------------------------------


 Maximum index for augmentation-charges        22612 (set IRDMAX)


--------------------------------------------------------------------------------------------------------


 First call to EWALD:  gamma=   0.255
 Maximum number of real-space cells 7x 7x 1
 Maximum number of reciprocal cells 1x 1x14

 FEWALD executed in parallel
    FEWALD:  cpu time    0.00: real time    0.00


----------------------------------------- Iteration    1(   1)  ---------------------------------------


    POTLOK:  cpu time    0.11: real time    0.11
    SETDIJ:  cpu time    0.11: real time    0.11
     EDDAV:  cpu time    4.23: real time    4.27
       DOS:  cpu time    0.00: real time    0.00
    --------------------------------------------
      LOOP:  cpu time    4.45: real time    4.49

 eigenvalue-minimisations  :  2696
 total energy-change (2. order) : 0.5050798E+03  (-0.4386673E+04)
 number of electron      99.0000000 magnetization 
 augmentation part       99.0000000 magnetization 

 Free energy of the ion-electron system (eV)
  ---------------------------------------------------
  alpha Z        PSCENC =       126.32722166
  Ewald energy   TEWEN  =     14891.01443378
  -Hartree energ DENC   =    -20005.08595245
  -exchange      EXHF   =         0.00000000
  -V(xc)+E(xc)   XCENC  =      -344.35173855
  PAW double counting   =      4516.65612620    -3844.19644948
  entropy T*S    EENTRO =        -0.00660038
  eigenvalues    EBANDS =       259.04190477
  atomic energy  EATOM  =      4905.68083858
  ---------------------------------------------------
  free energy    TOTEN  =       505.07978413 eV

  energy without entropy =      505.08638451  energy(sigma->0) =      505.08308432


--------------------------------------------------------------------------------------------------------




----------------------------------------- Iteration    1(   2)  ---------------------------------------


     EDDAV:  cpu time    4.75: real time    4.75
       DOS:  cpu time    0.00: real time    0.00
    --------------------------------------------
      LOOP:  cpu time    4.75: real time    4.75

 eigenvalue-minimisations  :  3496
 total energy-change (2. order) :-0.6047720E+03  (-0.5735144E+03)
 number of electron      99.0000000 magnetization 
 augmentation part       99.0000000 magnetization 

 Free energy of the ion-electron system (eV)
  ---------------------------------------------------
  alpha Z        PSCENC =       126.32722166
  Ewald energy   TEWEN  =     14891.01443378
  -Hartree energ DENC   =    -20005.08595245
  -exchange      EXHF   =         0.00000000
  -V(xc)+E(xc)   XCENC  =      -344.35173855
  PAW double counting   =      4516.65612620    -3844.19644948
  entropy T*S    EENTRO =        -0.00331234
  eigenvalues    EBANDS =      -345.73341380
  atomic energy  EATOM  =      4905.68083858
  ---------------------------------------------------
  free energy    TOTEN  =       -99.69224640 eV

  energy without entropy =      -99.68893406  energy(sigma->0) =      -99.69059023


--------------------------------------------------------------------------------------------------------




----------------------------------------- Iteration    1(   3)  ---------------------------------------


     EDDAV:  cpu time    4.38: real time    4.38
       DOS:  cpu time    0.00: real time    0.00
    --------------------------------------------
      LOOP:  cpu time    4.38: real time    4.38

 eigenvalue-minimisations  :  3144
 total energy-change (2. order) :-0.5720133E+02  (-0.5691764E+02)
 number of electron      99.0000000 magnetization 
 augmentation part       99.0000000 magnetization 

 Free energy of the ion-electron system (eV)
  ---------------------------------------------------
  alpha Z        PSCENC =       126.32722166
  Ewald energy   TEWEN  =     14891.01443378
  -Hartree energ DENC   =    -20005.08595245
  -exchange      EXHF   =         0.00000000
  -V(xc)+E(xc)   XCENC  =      -344.35173855
  PAW double counting   =      4516.65612620    -3844.19644948
  entropy T*S    EENTRO =        -0.00270638
  eigenvalues    EBANDS =      -402.93535271
  atomic energy  EATOM  =      4905.68083858
  ---------------------------------------------------
  free energy    TOTEN  =      -156.89357935 eV

  energy without entropy =     -156.89087297  energy(sigma->0) =     -156.89222616


--------------------------------------------------------------------------------------------------------




----------------------------------------- Iteration    1(   4)  ---------------------------------------


     EDDAV:  cpu time    4.38: real time    4.39
       DOS:  cpu time    0.00: real time    0.00
    --------------------------------------------
      LOOP:  cpu time    4.38: real time    4.39

 eigenvalue-minimisations  :  3152
 total energy-change (2. order) :-0.7334757E+00  (-0.7322361E+00)
 number of electron      99.0000000 magnetization 
 augmentation part       99.0000000 magnetization 

 Free energy of the ion-electron system (eV)
  ---------------------------------------------------
  alpha Z        PSCENC =       126.32722166
  Ewald energy   TEWEN  =     14891.01443378
  -Hartree energ DENC   =    -20005.08595245
  -exchange      EXHF   =         0.00000000
  -V(xc)+E(xc)   XCENC  =      -344.35173855
  PAW double counting   =      4516.65612620    -3844.19644948
  entropy T*S    EENTRO =        -0.00274624
  eigenvalues    EBANDS =      -403.66878859
  atomic energy  EATOM  =      4905.68083858
  ---------------------------------------------------
  free energy    TOTEN  =      -157.62705509 eV

  energy without entropy =     -157.62430885  energy(sigma->0) =     -157.62568197


--------------------------------------------------------------------------------------------------------




----------------------------------------- Iteration    1(   5)  ---------------------------------------


     EDDAV:  cpu time    4.42: real time    4.42
       DOS:  cpu time    0.00: real time    0.00
    CHARGE:  cpu time    0.37: real time    0.37
    MIXING:  cpu time    0.00: real time    0.00
    --------------------------------------------
      LOOP:  cpu time    4.79: real time    4.79

 eigenvalue-minimisations  :  3192
 total energy-change (2. order) :-0.1116515E-01  (-0.1116105E-01)
 number of electron      99.0000001 magnetization 
 augmentation part        7.7700636 magnetization 

 Broyden mixing:
  rms(total) = 0.23656E+01    rms(broyden)= 0.23651E+01
  rms(prec ) = 0.24330E+01
  weight for this iteration     100.00

 Free energy of the ion-electron system (eV)
  ---------------------------------------------------
  alpha Z        PSCENC =       126.32722166
  Ewald energy   TEWEN  =     14891.01443378
  -Hartree energ DENC   =    -20005.08595245
  -exchange      EXHF   =         0.00000000
  -V(xc)+E(xc)   XCENC  =      -344.35173855
  PAW double counting   =      4516.65612620    -3844.19644948
  entropy T*S    EENTRO =        -0.00275070
  eigenvalues    EBANDS =      -403.67994929
  atomic energy  EATOM  =      4905.68083858
  ---------------------------------------------------
  free energy    TOTEN  =      -157.63822024 eV

  energy without entropy =     -157.63546955  energy(sigma->0) =     -157.63684490


--------------------------------------------------------------------------------------------------------




----------------------------------------- Iteration    1(   6)  ---------------------------------------


    POTLOK:  cpu time    0.10: real time    0.10
    SETDIJ:  cpu time    0.10: real time    0.10
     EDDAV:  cpu time    4.44: real time    4.44
       DOS:  cpu time    0.00: real time    0.00
    CHARGE:  cpu time    0.37: real time    0.37
    MIXING:  cpu time    0.00: real time    0.00
    --------------------------------------------
      LOOP:  cpu time    5.01: real time    5.02

 eigenvalue-minimisations  :  3208
 total energy-change (2. order) : 0.1715556E+02  (-0.9430584E+01)
 number of electron      99.0000001 magnetization 
 augmentation part        6.2469785 magnetization 

 Broyden mixing:
  rms(total) = 0.79095E+00    rms(broyden)= 0.78998E+00
  rms(prec ) = 0.79937E+00
  weight for this iteration     100.00

 eigenvalues of (default mixing * dielectric matrix)
  average eigenvalue GAMMA=   0.8431
  0.8431

 Free energy of the ion-electron system (eV)
  ---------------------------------------------------
  alpha Z        PSCENC =       126.32722166
  Ewald energy   TEWEN  =     14891.01443378
  -Hartree energ DENC   =    -20212.03287886
  -exchange      EXHF   =         0.00000000
  -V(xc)+E(xc)   XCENC  =      -330.73404911
  PAW double counting   =      5360.64538370    -4691.68887863
  entropy T*S    EENTRO =        -0.00433568
  eigenvalues    EBANDS =      -189.69039079
  atomic energy  EATOM  =      4905.68083858
  ---------------------------------------------------
  free energy    TOTEN  =      -140.48265534 eV

  energy without entropy =     -140.47831966  energy(sigma->0) =     -140.48048750


--------------------------------------------------------------------------------------------------------




----------------------------------------- Iteration    1(   7)  ---------------------------------------


    POTLOK:  cpu time    0.10: real time    0.10
    SETDIJ:  cpu time    0.10: real time    0.10
     EDDAV:  cpu time    4.21: real time    4.21
       DOS:  cpu time    0.00: real time    0.00
    CHARGE:  cpu time    0.36: real time    0.36
    MIXING:  cpu time    0.00: real time    0.00
    --------------------------------------------
      LOOP:  cpu time    4.77: real time    4.78

 eigenvalue-minimisations  :  2992
 total energy-change (2. order) :-0.4492146E-01  (-0.4132668E+00)
 number of electron      99.0000002 magnetization 
 augmentation part        6.2583715 magnetization 

 Broyden mixing:
  rms(total) = 0.50120E+00    rms(broyden)= 0.50118E+00
  rms(prec ) = 0.51072E+00
  weight for this iteration     100.00

 eigenvalues of (default mixing * dielectric matrix)
  average eigenvalue GAMMA=   1.4141
  1.0423  1.7859

 Free energy of the ion-electron system (eV)
  ---------------------------------------------------
  alpha Z        PSCENC =       126.32722166
  Ewald energy   TEWEN  =     14891.01443378
  -Hartree energ DENC   =    -20213.95573367
  -exchange      EXHF   =         0.00000000
  -V(xc)+E(xc)   XCENC  =      -330.41695252
  PAW double counting   =      5664.82315041    -4995.37894389
  entropy T*S    EENTRO =        -0.00512954
  eigenvalues    EBANDS =      -188.61646162
  atomic energy  EATOM  =      4905.68083858
  ---------------------------------------------------
  free energy    TOTEN  =      -140.52757680 eV

  energy without entropy =     -140.52244726  energy(sigma->0) =     -140.52501203


--------------------------------------------------------------------------------------------------------




----------------------------------------- Iteration    1(   8)  ---------------------------------------


    POTLOK:  cpu time    0.10: real time    0.10
    SETDIJ:  cpu time    0.10: real time    0.10
     EDDAV:  cpu time    4.30: real time    4.30
       DOS:  cpu time    0.00: real time    0.00
    CHARGE:  cpu time    0.36: real time    0.36
    MIXING:  cpu time    0.00: real time    0.00
    --------------------------------------------
      LOOP:  cpu time    4.87: real time    4.87

 eigenvalue-minimisations  :  3080
 total energy-change (2. order) : 0.1646584E+00  (-0.8856156E-01)
 number of electron      99.0000002 magnetization 
 augmentation part        6.3328219 magnetization 

 Broyden mixing:
  rms(total) = 0.14427E+00    rms(broyden)= 0.14422E+00
  rms(prec ) = 0.15388E+00
  weight for this iteration     100.00

 eigenvalues of (default mixing * dielectric matrix)
  average eigenvalue GAMMA=   1.3586
  2.3914  0.9141  0.7701

 Free energy of the ion-electron system (eV)
  ---------------------------------------------------
  alpha Z        PSCENC =       126.32722166
  Ewald energy   TEWEN  =     14891.01443378
  -Hartree energ DENC   =    -20221.02325302
  -exchange      EXHF   =         0.00000000
  -V(xc)+E(xc)   XCENC  =      -329.67397833
  PAW double counting   =      6051.46513754    -5381.64316183
  entropy T*S    EENTRO =        -0.00460992
  eigenvalues    EBANDS =      -182.50554682
  atomic energy  EATOM  =      4905.68083858
  ---------------------------------------------------
  free energy    TOTEN  =      -140.36291835 eV

  energy without entropy =     -140.35830843  energy(sigma->0) =     -140.36061339


--------------------------------------------------------------------------------------------------------




----------------------------------------- Iteration    1(   9)  ---------------------------------------


    POTLOK:  cpu time    0.10: real time    0.10
    SETDIJ:  cpu time    0.10: real time    0.10
     EDDAV:  cpu time    4.30: real time    4.31
       DOS:  cpu time    0.00: real time    0.00
    CHARGE:  cpu time    0.36: real time    0.36
    MIXING:  cpu time    0.00: real time    0.00
    --------------------------------------------
      LOOP:  cpu time    4.86: real time    4.87

 eigenvalue-minimisations  :  3080
 total energy-change (2. order) : 0.5651199E-01  (-0.1721947E-01)
 number of electron      99.0000002 magnetization 
 augmentation part        6.3020397 magnetization 

 Broyden mixing:
  rms(total) = 0.68705E-01    rms(broyden)= 0.68699E-01
  rms(prec ) = 0.78417E-01
  weight for this iteration     100.00

 eigenvalues of (default mixing * dielectric matrix)
  average eigenvalue GAMMA=   1.3320
  2.4182  1.0274  0.9411  0.9411

 Free energy of the ion-electron system (eV)
  ---------------------------------------------------
  alpha Z        PSCENC =       126.32722166
  Ewald energy   TEWEN  =     14891.01443378
  -Hartree energ DENC   =    -20231.13813409
  -exchange      EXHF   =         0.00000000
  -V(xc)+E(xc)   XCENC  =      -328.93156379
  PAW double counting   =      6179.75383756    -5509.93792171
  entropy T*S    EENTRO =        -0.00555638
  eigenvalues    EBANDS =      -173.06956197
  atomic energy  EATOM  =      4905.68083858
  ---------------------------------------------------
  free energy    TOTEN  =      -140.30640636 eV

  energy without entropy =     -140.30084998  energy(sigma->0) =     -140.30362817


--------------------------------------------------------------------------------------------------------




----------------------------------------- Iteration    1(  10)  ---------------------------------------


    POTLOK:  cpu time    0.10: real time    0.10
    SETDIJ:  cpu time    0.10: real time    0.10
     EDDAV:  cpu time    4.23: real time    4.23
       DOS:  cpu time    0.00: real time    0.00
    CHARGE:  cpu time    0.36: real time    0.36
    MIXING:  cpu time    0.01: real time    0.01
    --------------------------------------------
      LOOP:  cpu time    4.79: real time    4.80

 eigenvalue-minimisations  :  3008
 total energy-change (2. order) : 0.9459545E-02  (-0.9882119E-02)
 number of electron      99.0000002 magnetization 
 augmentation part        6.2774316 magnetization 

 Broyden mixing:
  rms(total) = 0.30928E-01    rms(broyden)= 0.30895E-01
  rms(prec ) = 0.43390E-01
  weight for this iteration     100.00

 eigenvalues of (default mixing * dielectric matrix)
  average eigenvalue GAMMA=   1.3640
  2.5399  1.7138  0.9669  0.7998  0.7998

 Free energy of the ion-electron system (eV)
  ---------------------------------------------------
  alpha Z        PSCENC =       126.32722166
  Ewald energy   TEWEN  =     14891.01443378
  -Hartree energ DENC   =    -20234.95842043
  -exchange      EXHF   =         0.00000000
  -V(xc)+E(xc)   XCENC  =      -328.76070864
  PAW double counting   =      6167.60321861    -5497.82226486
  entropy T*S    EENTRO =        -0.00583086
  eigenvalues    EBANDS =      -169.37543465
  atomic energy  EATOM  =      4905.68083858
  ---------------------------------------------------
  free energy    TOTEN  =      -140.29694681 eV

  energy without entropy =     -140.29111595  energy(sigma->0) =     -140.29403138


--------------------------------------------------------------------------------------------------------




----------------------------------------- Iteration    1(  11)  ---------------------------------------


    POTLOK:  cpu time    0.10: real time    0.10
    SETDIJ:  cpu time    0.10: real time    0.10
     EDDAV:  cpu time    4.74: real time    4.75
       DOS:  cpu time    0.00: real time    0.00
    CHARGE:  cpu time    0.36: real time    0.36
    MIXING:  cpu time    0.00: real time    0.00
    --------------------------------------------
      LOOP:  cpu time    5.31: real time    5.32

 eigenvalue-minimisations  :  3496
 total energy-change (2. order) : 0.8976264E-02  (-0.9137850E-03)
 number of electron      99.0000002 magnetization 
 augmentation part        6.2738483 magnetization 

 Broyden mixing:
  rms(total) = 0.22805E-01    rms(broyden)= 0.22802E-01
  rms(prec ) = 0.38777E-01
  weight for this iteration     100.00

 eigenvalues of (default mixing * dielectric matrix)
  average eigenvalue GAMMA=   1.4105
  2.5574  2.3079  0.9424  0.9424  0.8564  0.8564

 Free energy of the ion-electron system (eV)
  ---------------------------------------------------
  alpha Z        PSCENC =       126.32722166
  Ewald energy   TEWEN  =     14891.01443378
  -Hartree energ DENC   =    -20237.70685836
  -exchange      EXHF   =         0.00000000
  -V(xc)+E(xc)   XCENC  =      -328.68109909
  PAW double counting   =      6142.54139509    -5472.77244435
  entropy T*S    EENTRO =        -0.00602547
  eigenvalues    EBANDS =      -166.68543240
  atomic energy  EATOM  =      4905.68083858
  ---------------------------------------------------
  free energy    TOTEN  =      -140.28797055 eV

  energy without entropy =     -140.28194508  energy(sigma->0) =     -140.28495781


--------------------------------------------------------------------------------------------------------




----------------------------------------- Iteration    1(  12)  ---------------------------------------


    POTLOK:  cpu time    0.10: real time    0.10
    SETDIJ:  cpu time    0.10: real time    0.10
     EDDAV:  cpu time    4.72: real time    4.72
       DOS:  cpu time    0.00: real time    0.00
    CHARGE:  cpu time    0.36: real time    0.36
    MIXING:  cpu time    0.00: real time    0.00
    --------------------------------------------
      LOOP:  cpu time    5.28: real time    5.28

 eigenvalue-minimisations  :  3480
 total energy-change (2. order) : 0.6005988E-02  (-0.6771333E-03)
 number of electron      99.0000002 magnetization 
 augmentation part        6.2735201 magnetization 

 Broyden mixing:
  rms(total) = 0.15345E-01    rms(broyden)= 0.15344E-01
  rms(prec ) = 0.31467E-01
  weight for this iteration     100.00

 eigenvalues of (default mixing * dielectric matrix)
  average eigenvalue GAMMA=   1.3742
  2.6246  2.6246  0.9841  0.9841  0.8931  0.8931  0.6161

 Free energy of the ion-electron system (eV)
  ---------------------------------------------------
  alpha Z        PSCENC =       126.32722166
  Ewald energy   TEWEN  =     14891.01443378
  -Hartree energ DENC   =    -20239.19194731
  -exchange      EXHF   =         0.00000000
  -V(xc)+E(xc)   XCENC  =      -328.67518177
  PAW double counting   =      6129.91675243    -5460.14863640
  entropy T*S    EENTRO =        -0.00596364
  eigenvalues    EBANDS =      -165.19948189
  atomic energy  EATOM  =      4905.68083858
  ---------------------------------------------------
  free energy    TOTEN  =      -140.28196456 eV

  energy without entropy =     -140.27600092  energy(sigma->0) =     -140.27898274


--------------------------------------------------------------------------------------------------------




----------------------------------------- Iteration    1(  13)  ---------------------------------------


    POTLOK:  cpu time    0.10: real time    0.10
    SETDIJ:  cpu time    0.10: real time    0.10
     EDDAV:  cpu time    5.53: real time    5.54
       DOS:  cpu time    0.00: real time    0.00
    CHARGE:  cpu time    0.36: real time    0.36
    MIXING:  cpu time    0.00: real time    0.00
    --------------------------------------------
      LOOP:  cpu time    6.09: real time    6.10

 eigenvalue-minimisations  :  4264
 total energy-change (2. order) : 0.1169758E-01  (-0.8646292E-03)
 number of electron      99.0000002 magnetization 
 augmentation part        6.2771446 magnetization 

 Broyden mixing:
  rms(total) = 0.91722E-02    rms(broyden)= 0.91687E-02
  rms(prec ) = 0.24124E-01
  weight for this iteration     100.00

 eigenvalues of (default mixing * dielectric matrix)
  average eigenvalue GAMMA=   1.3843
  2.7922  2.5125  1.3006  0.8474  0.9387  0.9387  0.8723  0.8723

 Free energy of the ion-electron system (eV)
  ---------------------------------------------------
  alpha Z        PSCENC =       126.32722166
  Ewald energy   TEWEN  =     14891.01443378
  -Hartree energ DENC   =    -20242.00577707
  -exchange      EXHF   =         0.00000000
  -V(xc)+E(xc)   XCENC  =      -328.73922541
  PAW double counting   =      6106.74669759    -5436.96790189
  entropy T*S    EENTRO =        -0.00588820
  eigenvalues    EBANDS =      -162.32066603
  atomic energy  EATOM  =      4905.68083858
  ---------------------------------------------------
  free energy    TOTEN  =      -140.27026699 eV

  energy without entropy =     -140.26437878  energy(sigma->0) =     -140.26732288


--------------------------------------------------------------------------------------------------------




----------------------------------------- Iteration    1(  14)  ---------------------------------------


    POTLOK:  cpu time    0.10: real time    0.10
    SETDIJ:  cpu time    0.10: real time    0.10
     EDDAV:  cpu time    4.70: real time    4.70
       DOS:  cpu time    0.00: real time    0.00
    CHARGE:  cpu time    0.36: real time    0.36
    MIXING:  cpu time    0.00: real time    0.00
    --------------------------------------------
      LOOP:  cpu time    5.26: real time    5.27

 eigenvalue-minimisations  :  3472
 total energy-change (2. order) : 0.5215911E-02  (-0.1127667E-02)
 number of electron      99.0000002 magnetization 
 augmentation part        6.2807116 magnetization 

 Broyden mixing:
  rms(total) = 0.14203E-01    rms(broyden)= 0.14199E-01
  rms(prec ) = 0.23982E-01
  weight for this iteration     100.00

 eigenvalues of (default mixing * dielectric matrix)
  average eigenvalue GAMMA=   1.4107
  3.1859  2.5071  1.3412  1.3412  1.1114  0.8778  0.8778  0.7924  0.6615

 Free energy of the ion-electron system (eV)
  ---------------------------------------------------
  alpha Z        PSCENC =       126.32722166
  Ewald energy   TEWEN  =     14891.01443378
  -Hartree energ DENC   =    -20244.15289728
  -exchange      EXHF   =         0.00000000
  -V(xc)+E(xc)   XCENC  =      -328.76233892
  PAW double counting   =      6106.62338788    -5436.83722233
  entropy T*S    EENTRO =        -0.00586119
  eigenvalues    EBANDS =      -160.15261327
  atomic energy  EATOM  =      4905.68083858
  ---------------------------------------------------
  free energy    TOTEN  =      -140.26505107 eV

  energy without entropy =     -140.25918988  energy(sigma->0) =     -140.26212048


--------------------------------------------------------------------------------------------------------




----------------------------------------- Iteration    1(  15)  ---------------------------------------


    POTLOK:  cpu time    0.10: real time    0.10
    SETDIJ:  cpu time    0.11: real time    0.11
     EDDAV:  cpu time    5.52: real time    5.52
       DOS:  cpu time    0.00: real time    0.00
    CHARGE:  cpu time    0.36: real time    0.36
    MIXING:  cpu time    0.01: real time    0.01
    --------------------------------------------
      LOOP:  cpu time    6.09: real time    6.10

 eigenvalue-minimisations  :  4248
 total energy-change (2. order) : 0.1037919E-01  (-0.1280671E-02)
 number of electron      99.0000002 magnetization 
 augmentation part        6.2733047 magnetization 

 Broyden mixing:
  rms(total) = 0.11796E-01    rms(broyden)= 0.11792E-01
  rms(prec ) = 0.16738E-01
  weight for this iteration     100.00

 eigenvalues of (default mixing * dielectric matrix)
  average eigenvalue GAMMA=   1.5894
  4.4641  2.8101  2.2921  1.0581  1.0581  0.8269  0.8269  0.9491  0.8041  0.8041

 Free energy of the ion-electron system (eV)
  ---------------------------------------------------
  alpha Z        PSCENC =       126.32722166
  Ewald energy   TEWEN  =     14891.01443378
  -Hartree energ DENC   =    -20250.83741650
  -exchange      EXHF   =         0.00000000
  -V(xc)+E(xc)   XCENC  =      -328.72876856
  PAW double counting   =      6108.20284052    -5438.42567989
  entropy T*S    EENTRO =        -0.00575218
  eigenvalues    EBANDS =      -153.48238930
  atomic energy  EATOM  =      4905.68083858
  ---------------------------------------------------
  free energy    TOTEN  =      -140.25467188 eV

  energy without entropy =     -140.24891970  energy(sigma->0) =     -140.25179579


--------------------------------------------------------------------------------------------------------




----------------------------------------- Iteration    1(  16)  ---------------------------------------


    POTLOK:  cpu time    0.10: real time    0.10
    SETDIJ:  cpu time    0.10: real time    0.10
     EDDAV:  cpu time    4.30: real time    4.30
       DOS:  cpu time    0.00: real time    0.00
    CHARGE:  cpu time    0.36: real time    0.36
    MIXING:  cpu time    0.01: real time    0.01
    --------------------------------------------
      LOOP:  cpu time    4.87: real time    4.87

 eigenvalue-minimisations  :  3072
 total energy-change (2. order) : 0.2615650E-02  (-0.1018403E-02)
 number of electron      99.0000002 magnetization 
 augmentation part        6.2730819 magnetization 

 Broyden mixing:
  rms(total) = 0.85529E-02    rms(broyden)= 0.85509E-02
  rms(prec ) = 0.12372E-01
  weight for this iteration     100.00

 eigenvalues of (default mixing * dielectric matrix)
  average eigenvalue GAMMA=   1.6749
  5.2013  3.0181  2.4387  1.3749  1.3749  0.8462  0.8462  0.9506  0.9506  0.7353
  0.6867

 Free energy of the ion-electron system (eV)
  ---------------------------------------------------
  alpha Z        PSCENC =       126.32722166
  Ewald energy   TEWEN  =     14891.01443378
  -Hartree energ DENC   =    -20252.97393529
  -exchange      EXHF   =         0.00000000
  -V(xc)+E(xc)   XCENC  =      -328.76992457
  PAW double counting   =      6113.22672899    -5443.44232505
  entropy T*S    EENTRO =        -0.00571808
  eigenvalues    EBANDS =      -151.30937626
  atomic energy  EATOM  =      4905.68083858
  ---------------------------------------------------
  free energy    TOTEN  =      -140.25205623 eV

  energy without entropy =     -140.24633815  energy(sigma->0) =     -140.24919719


--------------------------------------------------------------------------------------------------------




----------------------------------------- Iteration    1(  17)  ---------------------------------------


    POTLOK:  cpu time    0.10: real time    0.10
    SETDIJ:  cpu time    0.10: real time    0.10
     EDDAV:  cpu time    4.71: real time    4.72
       DOS:  cpu time    0.00: real time    0.00
    CHARGE:  cpu time    0.37: real time    0.37
    MIXING:  cpu time    0.01: real time    0.01
    --------------------------------------------
      LOOP:  cpu time    5.28: real time    5.29

 eigenvalue-minimisations  :  3456
 total energy-change (2. order) : 0.2457160E-02  (-0.8572054E-03)
 number of electron      99.0000002 magnetization 
 augmentation part        6.2750093 magnetization 

 Broyden mixing:
  rms(total) = 0.13048E-01    rms(broyden)= 0.13044E-01
  rms(prec ) = 0.14700E-01
  weight for this iteration     100.00

 eigenvalues of (default mixing * dielectric matrix)
  average eigenvalue GAMMA=   1.8232
  6.5771  3.5776  2.3079  2.3079  0.9965  0.9965  0.9473  0.9473  0.8546  0.8546
  0.7556  0.7556

 Free energy of the ion-electron system (eV)
  ---------------------------------------------------
  alpha Z        PSCENC =       126.32722166
  Ewald energy   TEWEN  =     14891.01443378
  -Hartree energ DENC   =    -20254.68708444
  -exchange      EXHF   =         0.00000000
  -V(xc)+E(xc)   XCENC  =      -328.80816100
  PAW double counting   =      6120.75291514    -5450.95824416
  entropy T*S    EENTRO =        -0.00568589
  eigenvalues    EBANDS =      -149.56583274
  atomic energy  EATOM  =      4905.68083858
  ---------------------------------------------------
  free energy    TOTEN  =      -140.24959907 eV

  energy without entropy =     -140.24391318  energy(sigma->0) =     -140.24675613


--------------------------------------------------------------------------------------------------------




----------------------------------------- Iteration    1(  18)  ---------------------------------------


    POTLOK:  cpu time    0.10: real time    0.10
    SETDIJ:  cpu time    0.10: real time    0.10
     EDDAV:  cpu time    5.13: real time    5.13
       DOS:  cpu time    0.00: real time    0.00
    CHARGE:  cpu time    0.36: real time    0.36
    MIXING:  cpu time    0.01: real time    0.01
    --------------------------------------------
      LOOP:  cpu time    5.69: real time    5.70

 eigenvalue-minimisations  :  3864
 total energy-change (2. order) : 0.1686998E-02  (-0.4712961E-03)
 number of electron      99.0000002 magnetization 
 augmentation part        6.2745104 magnetization 

 Broyden mixing:
  rms(total) = 0.10261E-01    rms(broyden)= 0.10260E-01
  rms(prec ) = 0.11160E-01
  weight for this iteration     100.00

 eigenvalues of (default mixing * dielectric matrix)
  average eigenvalue GAMMA=   1.6830
  6.5117  3.5688  2.3389  2.2589  0.9953  0.9953  0.9558  0.9558  0.8555  0.8555
  0.7541  0.7541  0.0790

 Free energy of the ion-electron system (eV)
  ---------------------------------------------------
  alpha Z        PSCENC =       126.32722166
  Ewald energy   TEWEN  =     14891.01443378
  -Hartree energ DENC   =    -20256.71098035
  -exchange      EXHF   =         0.00000000
  -V(xc)+E(xc)   XCENC  =      -328.79665963
  PAW double counting   =      6121.00977888    -5451.21815799
  entropy T*S    EENTRO =        -0.00568756
  eigenvalues    EBANDS =      -147.54869945
  atomic energy  EATOM  =      4905.68083858
  ---------------------------------------------------
  free energy    TOTEN  =      -140.24791207 eV

  energy without entropy =     -140.24222451  energy(sigma->0) =     -140.24506829


--------------------------------------------------------------------------------------------------------




----------------------------------------- Iteration    1(  19)  ---------------------------------------


    POTLOK:  cpu time    0.10: real time    0.10
    SETDIJ:  cpu time    0.10: real time    0.10
     EDDAV:  cpu time    4.72: real time    4.73
       DOS:  cpu time    0.00: real time    0.00
    CHARGE:  cpu time    0.36: real time    0.36
    MIXING:  cpu time    0.01: real time    0.01
    --------------------------------------------
      LOOP:  cpu time    5.29: real time    5.30

 eigenvalue-minimisations  :  3480
 total energy-change (2. order) : 0.6035149E-03  (-0.7479273E-03)
 number of electron      99.0000002 magnetization 
 augmentation part        6.2722726 magnetization 

 Broyden mixing:
  rms(total) = 0.66641E-02    rms(broyden)= 0.66587E-02
  rms(prec ) = 0.70159E-02
  weight for this iteration     100.00

 eigenvalues of (default mixing * dielectric matrix)
  average eigenvalue GAMMA=   1.9150
  6.1917  6.1917  2.5473  2.4969  1.0484  1.0484  0.8584  0.8584  1.0124  1.0124
  1.0371  1.0371  0.7348  0.7348

 Free energy of the ion-electron system (eV)
  ---------------------------------------------------
  alpha Z        PSCENC =       126.32722166
  Ewald energy   TEWEN  =     14891.01443378
  -Hartree energ DENC   =    -20257.72454511
  -exchange      EXHF   =         0.00000000
  -V(xc)+E(xc)   XCENC  =      -328.76632222
  PAW double counting   =      6116.82525296    -5447.04215866
  entropy T*S    EENTRO =        -0.00566098
  eigenvalues    EBANDS =      -146.55636858
  atomic energy  EATOM  =      4905.68083858
  ---------------------------------------------------
  free energy    TOTEN  =      -140.24730856 eV

  energy without entropy =     -140.24164758  energy(sigma->0) =     -140.24447807


--------------------------------------------------------------------------------------------------------




----------------------------------------- Iteration    1(  20)  ---------------------------------------


    POTLOK:  cpu time    0.10: real time    0.10
    SETDIJ:  cpu time    0.10: real time    0.10
     EDDAV:  cpu time    4.37: real time    4.38
       DOS:  cpu time    0.00: real time    0.00
    CHARGE:  cpu time    0.36: real time    0.36
    MIXING:  cpu time    0.01: real time    0.01
    --------------------------------------------
      LOOP:  cpu time    4.94: real time    4.94

 eigenvalue-minimisations  :  3144
 total energy-change (2. order) :-0.3823694E-04  (-0.2927499E-03)
 number of electron      99.0000002 magnetization 
 augmentation part        6.2717301 magnetization 

 Broyden mixing:
  rms(total) = 0.86859E-02    rms(broyden)= 0.86846E-02
  rms(prec ) = 0.88499E-02
  weight for this iteration     100.00

 eigenvalues of (default mixing * dielectric matrix)
  average eigenvalue GAMMA=   2.1323
  9.9148  5.9567  2.7303  2.4753  1.8048  1.1000  1.1000  0.8475  0.8475  1.1017
  1.0048  1.0048  0.7347  0.7347  0.6271

 Free energy of the ion-electron system (eV)
  ---------------------------------------------------
  alpha Z        PSCENC =       126.32722166
  Ewald energy   TEWEN  =     14891.01443378
  -Hartree energ DENC   =    -20258.30524002
  -exchange      EXHF   =         0.00000000
  -V(xc)+E(xc)   XCENC  =      -328.76328888
  PAW double counting   =      6114.57508475    -5444.79232353
  entropy T*S    EENTRO =        -0.00566461
  eigenvalues    EBANDS =      -145.97840853
  atomic energy  EATOM  =      4905.68083858
  ---------------------------------------------------
  free energy    TOTEN  =      -140.24734680 eV

  energy without entropy =     -140.24168218  energy(sigma->0) =     -140.24451449


--------------------------------------------------------------------------------------------------------




----------------------------------------- Iteration    1(  21)  ---------------------------------------


    POTLOK:  cpu time    0.10: real time    0.10
    SETDIJ:  cpu time    0.10: real time    0.10
     EDDAV:  cpu time    4.22: real time    4.22
       DOS:  cpu time    0.00: real time    0.00
    CHARGE:  cpu time    0.36: real time    0.36
    MIXING:  cpu time    0.01: real time    0.01
    --------------------------------------------
      LOOP:  cpu time    4.79: real time    4.79

 eigenvalue-minimisations  :  2992
 total energy-change (2. order) : 0.1085011E-03  (-0.1447680E-03)
 number of electron      99.0000002 magnetization 
 augmentation part        6.2728951 magnetization 

 Broyden mixing:
  rms(total) = 0.26780E-02    rms(broyden)= 0.26754E-02
  rms(prec ) = 0.27410E-02
  weight for this iteration     100.00

 eigenvalues of (default mixing * dielectric matrix)
  average eigenvalue GAMMA=   2.3996
 14.6945  6.2246  2.8507  2.6105  2.0861  1.0752  1.0752  1.1025  0.9687  0.9687
  0.8276  0.8276  0.7360  0.7360  0.8050  0.8050

 Free energy of the ion-electron system (eV)
  ---------------------------------------------------
  alpha Z        PSCENC =       126.32722166
  Ewald energy   TEWEN  =     14891.01443378
  -Hartree energ DENC   =    -20258.43816006
  -exchange      EXHF   =         0.00000000
  -V(xc)+E(xc)   XCENC  =      -328.77171869
  PAW double counting   =      6113.07703682    -5443.29096826
  entropy T*S    EENTRO =        -0.00566664
  eigenvalues    EBANDS =      -145.84025548
  atomic energy  EATOM  =      4905.68083858
  ---------------------------------------------------
  free energy    TOTEN  =      -140.24723829 eV

  energy without entropy =     -140.24157165  energy(sigma->0) =     -140.24440497


--------------------------------------------------------------------------------------------------------




----------------------------------------- Iteration    1(  22)  ---------------------------------------


    POTLOK:  cpu time    0.10: real time    0.10
    SETDIJ:  cpu time    0.10: real time    0.10
     EDDAV:  cpu time    4.21: real time    4.21
       DOS:  cpu time    0.00: real time    0.00
    CHARGE:  cpu time    0.36: real time    0.36
    MIXING:  cpu time    0.01: real time    0.01
    --------------------------------------------
      LOOP:  cpu time    4.77: real time    4.78

 eigenvalue-minimisations  :  2984
 total energy-change (2. order) :-0.1495895E-05  (-0.3665079E-04)
 number of electron      99.0000002 magnetization 
 augmentation part        6.2728490 magnetization 

 Broyden mixing:
  rms(total) = 0.22759E-02    rms(broyden)= 0.22748E-02
  rms(prec ) = 0.23178E-02
  weight for this iteration     100.00

 eigenvalues of (default mixing * dielectric matrix)
  average eigenvalue GAMMA=   2.7072
 20.9116  6.1517  2.9003  2.6992  2.1961  0.9979  0.9979  1.2171  1.0690  1.0690
  0.8558  0.8558  0.9449  0.9449  0.7291  0.7291  0.7524

 Free energy of the ion-electron system (eV)
  ---------------------------------------------------
  alpha Z        PSCENC =       126.32722166
  Ewald energy   TEWEN  =     14891.01443378
  -Hartree energ DENC   =    -20258.30974105
  -exchange      EXHF   =         0.00000000
  -V(xc)+E(xc)   XCENC  =      -328.77506188
  PAW double counting   =      6111.83631097    -5442.04993021
  entropy T*S    EENTRO =        -0.00567292
  eigenvalues    EBANDS =      -145.96563872
  atomic energy  EATOM  =      4905.68083858
  ---------------------------------------------------
  free energy    TOTEN  =      -140.24723979 eV

  energy without entropy =     -140.24156687  energy(sigma->0) =     -140.24440333


--------------------------------------------------------------------------------------------------------




----------------------------------------- Iteration    1(  23)  ---------------------------------------


    POTLOK:  cpu time    0.10: real time    0.10
    SETDIJ:  cpu time    0.10: real time    0.10
     EDDAV:  cpu time    4.28: real time    4.28
       DOS:  cpu time    0.00: real time    0.00
    CHARGE:  cpu time    0.37: real time    0.37
    MIXING:  cpu time    0.01: real time    0.01
    --------------------------------------------
      LOOP:  cpu time    4.85: real time    4.85

 eigenvalue-minimisations  :  3040
 total energy-change (2. order) : 0.1250481E-04  (-0.6486180E-05)
 number of electron      99.0000002 magnetization 
 augmentation part        6.2727133 magnetization 

 Broyden mixing:
  rms(total) = 0.11629E-02    rms(broyden)= 0.11628E-02
  rms(prec ) = 0.11813E-02
  weight for this iteration     100.00

 eigenvalues of (default mixing * dielectric matrix)
  average eigenvalue GAMMA=   2.6965
 22.3214  5.9753  2.9017  2.5418  2.2856  1.3744  1.3744  1.0533  1.0533  0.8481
  0.8481  0.9911  0.9688  0.9688  0.7418  0.7418  0.7740  0.7740

 Free energy of the ion-electron system (eV)
  ---------------------------------------------------
  alpha Z        PSCENC =       126.32722166
  Ewald energy   TEWEN  =     14891.01443378
  -Hartree energ DENC   =    -20258.38294335
  -exchange      EXHF   =         0.00000000
  -V(xc)+E(xc)   XCENC  =      -328.77334279
  PAW double counting   =      6111.49165959    -5441.70559026
  entropy T*S    EENTRO =        -0.00567636
  eigenvalues    EBANDS =      -145.89382813
  atomic energy  EATOM  =      4905.68083858
  ---------------------------------------------------
  free energy    TOTEN  =      -140.24722729 eV

  energy without entropy =     -140.24155092  energy(sigma->0) =     -140.24438910


--------------------------------------------------------------------------------------------------------




----------------------------------------- Iteration    1(  24)  ---------------------------------------


    POTLOK:  cpu time    0.10: real time    0.10
    SETDIJ:  cpu time    0.10: real time    0.10
     EDDAV:  cpu time    3.94: real time    3.94
       DOS:  cpu time    0.00: real time    0.00
    --------------------------------------------
      LOOP:  cpu time    4.14: real time    4.19

 eigenvalue-minimisations  :  2712
 total energy-change (2. order) :-0.4116007E-05  (-0.7208924E-05)
 number of electron      99.0000002 magnetization 
 augmentation part        6.2727133 magnetization 

 Free energy of the ion-electron system (eV)
  ---------------------------------------------------
  alpha Z        PSCENC =       126.32722166
  Ewald energy   TEWEN  =     14891.01443378
  -Hartree energ DENC   =    -20258.42400374
  -exchange      EXHF   =         0.00000000
  -V(xc)+E(xc)   XCENC  =      -328.77234243
  PAW double counting   =      6111.43027484    -5441.64419654
  entropy T*S    EENTRO =        -0.00567550
  eigenvalues    EBANDS =      -145.85378206
  atomic energy  EATOM  =      4905.68083858
  ---------------------------------------------------
  free energy    TOTEN  =      -140.24723140 eV

  energy without entropy =     -140.24155590  energy(sigma->0) =     -140.24439365


--------------------------------------------------------------------------------------------------------




 average (electrostatic) potential at core
  the test charge radii are     0.7215  1.0714  1.0406
  (the norm of the test charge is              1.0000)
       1 -69.9178       2 -69.2505       3 -69.2832       4 -69.2946       5 -69.2823
       6 -69.2702       7 -69.9173       8 -69.2719       9 -69.2942      10 -69.2493
      11 -34.9708      12 -35.0005      13 -34.9696      14 -34.9506      15 -35.0007
      16 -34.9902      17 -34.9913      18 -35.0001      19 -34.9498      20 -76.3067
      21 -75.8731      22 -76.3937      23 -76.3584      24 -75.8732      25 -76.3583
      26 -76.3937
 
 
 
 E-fermi :   4.5899     XC(G=0): -10.1301     alpha+bet :-11.9914


 k-point     1 :       0.0000    0.0000    0.0000
  band No.  band energies     occupation 
      1     -13.8178      2.00000
      2     -13.8172      2.00000
      3     -13.4472      2.00000
      4     -13.3387      2.00000
      5     -13.1975      2.00000
      6     -13.0270      2.00000
      7     -12.8487      2.00000
      8     -12.6829      2.00000
      9     -12.5451      2.00000
     10     -12.4677      2.00000
     11      -4.7323      2.00000
     12      -4.5220      2.00000
     13      -4.2807      2.00000
     14      -3.5086      2.00000
     15      -2.5497      2.00000
     16      -2.0201      2.00000
     17      -1.4112      2.00000
     18      -0.9109      2.00000
     19      -0.6782      2.00000
     20      -0.2280      2.00000
     21      -0.0933      2.00000
     22       0.4911      2.00000
     23       0.7588      2.00000
[...]
 k-point    19 :       0.3077    0.2308   -0.0000
  band No.  band energies     occupation 
      1     -13.0980      2.00000
      2     -13.0977      2.00000
      3     -12.3155      2.00000
      4     -12.2978      2.00000
      5     -12.2603      2.00000
      6     -12.2230      2.00000
      7     -12.1823      2.00000
      8     -12.1441      2.00000
      9     -12.1187      2.00000
     10     -12.0967      2.00000
     11      -0.6141      2.00000
     12      -0.6130      2.00000
     13      -0.3197      2.00000
     14      -0.3132      2.00000
     15      -0.1992      2.00000
     16      -0.0635      2.00000
     17      -0.0052      2.00000
     18       0.0739      2.00000
     19       0.0872      2.00000
     20       0.2090      2.00000
     21       0.2705      2.00000
     22       0.4330      2.00000
     23       0.5718      2.00000
     24       0.5993      2.00000
     25       0.8629      2.00000
     26       0.9591      2.00000
     27       1.1232      2.00000
     28       1.1587      2.00000
     29       1.1742      2.00000
     30       1.3293      2.00000
     31       1.4223      2.00000
     32       1.4830      2.00000
     33       1.5405      2.00000
     34       1.6579      2.00000
     35       1.7289      2.00000
     36       1.8391      2.00000
     37       1.9184      2.00000
     38       2.0772      2.00000
     39       2.2200      2.00000
     40       2.3004      2.00000
     41       2.3828      2.00000
     42       2.4713      2.00000
     43       2.5641      2.00000
     44       2.5843      2.00000
     45       2.6689      2.00000
     46       3.3856      2.00000
     47       3.5519      2.00000
     48       3.6290      2.00000
     49       3.9079      2.00000
     50       4.3276      2.00000
     51       4.6470      0.18513
     52       4.9575      0.00000
     53       5.1380      0.00000
     54       5.4526      0.00000
     55       5.6350      0.00000
     56       6.1462      0.00000
     57       6.3745      0.00000
     58       6.8209      0.00000
     59       7.0889      0.00000
     60       7.3525      0.00000
     61       7.8531      0.00000
     62       8.2427      0.00000
     63       8.7042      0.00000
     64       8.9378      0.00000

 k-point    20 :       0.3846    0.2308    0.0000
  band No.  band energies     occupation 
      1     -13.0627      2.00000
      2     -13.0625      2.00000
      3     -12.2266      2.00000
      4     -12.2193      2.00000
      5     -12.1979      2.00000
      6     -12.1796      2.00000
      7     -12.1578      2.00000
      8     -12.1367      2.00000
      9     -12.1244      2.00000
     10     -12.1106      2.00000
     11      -0.4793      2.00000
     12      -0.4745      2.00000
     13      -0.2946      2.00000
     14      -0.2727      2.00000
     15      -0.2421      2.00000
     16      -0.0874      2.00000
     17       0.1061      2.00000
     18       0.1088      2.00000
     19       0.1581      2.00000
     20       0.2014      2.00000
     21       0.4400      2.00000
     22       0.4436      2.00000
     23       0.9916      2.00000
     24       1.0197      2.00000
     25       1.1104      2.00000
     26       1.1415      2.00000
     27       1.1603      2.00000
     28       1.2061      2.00000
     29       1.2798      2.00000
     30       1.4265      2.00000
     31       1.5679      2.00000
     32       1.6839      2.00000
     33       1.6973      2.00000
     34       1.7153      2.00000
     35       1.8774      2.00000
     36       1.9403      2.00000
     37       2.0634      2.00000
     38       2.1179      2.00000
     39       2.1912      2.00000
     40       2.2053      2.00000
     41       2.2252      2.00000
     42       2.2714      2.00000
     43       2.4002      2.00000
     44       2.4723      2.00000
     45       2.5371      2.00000
     46       2.5425      2.00000
     47       2.8332      2.00000
     48       2.9501      2.00000
     49       3.8172      2.00000
     50       4.1728      2.00000
     51       4.7903      0.00000
     52       4.8855      0.00000
     53       4.9567      0.00000
     54       5.2610      0.00000
     55       5.2916      0.00000
     56       5.5161      0.00000
     57       5.9359      0.00000
     58       6.1832      0.00000
     59       7.1689      0.00000
     60       7.6302      0.00000
     61       7.7252      0.00000
     62       8.2194      0.00000
     63       8.5532      0.00000
     64       8.7670      0.00000

 k-point    21 :       0.3077    0.3077   -0.0000
  band No.  band energies     occupation 
      1     -13.0475      2.00000
      2     -13.0473      2.00000
      3     -12.1941      2.00000
      4     -12.1889      2.00000
      5     -12.1714      2.00000
      6     -12.1589      2.00000
      7     -12.1434      2.00000
      8     -12.1293      2.00000
      9     -12.1229      2.00000
     10     -12.1132      2.00000
     11      -0.3399      2.00000
     12      -0.3388      2.00000
     13      -0.0711      2.00000
     14      -0.0661      2.00000
     15       0.0562      2.00000
     16       0.0690      2.00000
     17       0.1735      2.00000
     18       0.1903      2.00000
     19       0.2782      2.00000
     20       0.3752      2.00000
     21       0.4273      2.00000
     22       0.5676      2.00000
     23       0.6543      2.00000
     24       0.6941      2.00000
     25       0.8404      2.00000
     26       0.8661      2.00000
     27       0.8757      2.00000
     28       1.0608      2.00000
     29       1.1112      2.00000
     30       1.2354      2.00000
     31       1.3126      2.00000
     32       1.3632      2.00000
     33       1.5683      2.00000
     34       1.8129      2.00000
     35       2.0534      2.00000
     36       2.1150      2.00000
     37       2.2033      2.00000
     38       2.2989      2.00000
     39       2.3158      2.00000
     40       2.3596      2.00000
     41       2.3621      2.00000
     42       2.4011      2.00000
     43       2.5018      2.00000
     44       2.7673      2.00000
     45       3.1279      2.00000
     46       3.1706      2.00000
     47       3.3117      2.00000
     48       3.3501      2.00000
     49       3.5847      2.00000
     50       3.6580      2.00000
     51       3.7888      2.00000
     52       4.2089      2.00000
     53       4.4749      1.99960
     54       5.0544      0.00000
     55       5.2950      0.00000
     56       5.4044      0.00000
     57       5.7940      0.00000
     58       6.2893      0.00000
     59       6.7840      0.00000
     60       6.8517      0.00000
     61       7.2810      0.00000
     62       7.6689      0.00000
     63       8.7792      0.00000
     64       9.0573      0.00000


--------------------------------------------------------------------------------------------------------


 soft charge-density along one line, spin component           1
         0         1         2         3         4         5         6         7         8         9
 total charge-density along one line
 
 pseudopotential strength for first ion, spin component:           1
 12.148   0.000 -14.779   0.000  -0.000   0.000   0.022   0.000   0.000   0.000   0.000   0.000  -0.028   0.000  -0.000   0.000
-14.779   0.000  17.997   0.000   0.000   0.000  -0.028   0.000  -0.000   0.000  -0.000   0.000   0.035   0.000   0.000   0.000
 -0.000   0.000   0.000   0.000  -8.258   0.000  -0.000   0.000   0.000   0.000   9.875   0.000   0.000   0.000  -0.000   0.000
  0.022   0.000  -0.028   0.000  -0.000   0.000  -8.320   0.000   0.000   0.000   0.000   0.000   9.958   0.000  -0.000   0.000
  0.000   0.000  -0.000   0.000   0.000   0.000   0.000   0.000  -8.258   0.000  -0.000   0.000  -0.000   0.000   9.875   0.000
  0.000   0.000  -0.000   0.000   9.875   0.000   0.000   0.000  -0.000   0.000 -11.645   0.000  -0.000   0.000   0.000   0.000
 -0.028   0.000   0.035   0.000   0.000   0.000   9.958   0.000  -0.000   0.000  -0.000   0.000 -11.756   0.000   0.000   0.000
 -0.000   0.000   0.000   0.000  -0.000   0.000  -0.000   0.000   9.875   0.000   0.000   0.000   0.000   0.000 -11.645   0.000
 total augmentation occupancy for first ion, spin component:           1
  2.636   0.376   0.000  -0.076  -0.000   0.000  -0.032  -0.000
  0.376   0.076   0.000  -0.071  -0.000   0.000  -0.016  -0.000
  0.000   0.000   2.120  -0.000   0.000   0.231  -0.000   0.000
 -0.076  -0.071  -0.000   2.235   0.000  -0.000   0.313   0.000
 -0.000  -0.000   0.000   0.000   2.120   0.000   0.000   0.231
  0.000   0.000   0.231  -0.000   0.000   0.028  -0.000   0.000
 -0.032  -0.016  -0.000   0.313   0.000  -0.000   0.048   0.000
 -0.000  -0.000   0.000   0.000   0.231   0.000   0.000   0.028


------------------------ aborting loop because EDIFF is reached ----------------------------------------


    CHARGE:  cpu time    0.36: real time    0.36
    FORLOC:  cpu time    0.03: real time    0.03
    FORNL :  cpu time    3.04: real time    3.05
    STRESS:  cpu time    4.04: real time    4.04
    FORCOR:  cpu time    0.13: real time    0.13
    FORHAR:  cpu time    0.05: real time    0.05
    MIXING:  cpu time    0.00: real time    0.00
    OFIELD:  cpu time    0.00: real time    0.00

  FORCE on cell =-STRESS in cart. coord.  units (eV):
  Direction    XX          YY          ZZ          XY          YZ          ZX
  --------------------------------------------------------------------------------------
  Alpha Z   126.32722   126.32722   126.32722
  Ewald   18541.36516 18541.36550-21119.60162    -0.00003    -0.00000    -0.00015
  Hartree 20365.88739 20365.88730-19404.76736    -0.00000    -0.00000     0.00004
  E(xc)    -412.43995  -412.43997  -412.27384    -0.00000     0.00000    -0.00000
  Local  -40127.10328-40127.10276 39315.88082    -0.00019    -0.00000     0.00005
  n-local   -58.73450   -73.33656   -61.37514     2.97433    -1.23363     4.76781
  augment    60.31008    60.30983    58.57856     0.00018     0.00000     0.00000
  Kinetic  1516.28415  1491.89859  1476.41823     0.03117    -0.50657     1.75924
  Fock        0.00000     0.00000     0.00000     0.00000     0.00000     0.00000
  -------------------------------------------------------------------------------------
  Total      -7.59729    -7.59729   -20.81313     0.00000     0.00000    -0.00000
  in kB     -36.43652   -36.43650   -99.81953     0.00000     0.00000    -0.00000
  external pressure =      -57.56 kB  Pullay stress =        0.00 kB


 VOLUME and BASIS-vectors are now :
 -----------------------------------------------------------------------------
  energy-cutoff  :      520.00
  volume of cell :      334.07
      direct lattice vectors                 reciprocal lattice vectors
     2.600457673 -1.501374484  0.000000000     0.384547693  0.000000000 -0.000000000
     0.000000000  3.002748968  0.000000000     0.192273847  0.333028172 -0.000000000
     0.000000000 -0.000000000 42.782248776     0.000000000  0.000000000  0.023374180

  length of vectors
     3.002749648  3.002748968 42.782248776     0.384547693  0.384547781  0.023374180


 FORCES acting on ions
    electron-ion (+dipol)            ewald-force                    non-local-force                 convergence-correction
 -----------------------------------------------------------------------------------------------
   0.217E-05 -.426E-06 0.134E+04   0.233E-04 -.259E-04 -.133E+04   -.149E-15 0.382E-16 -.897E+01   0.164E-08 -.232E-08 0.392E-01
   0.106E-02 -.184E-02 0.105E+04   0.557E-04 -.954E-04 -.105E+04   0.823E-18 -.132E-17 0.433E-01   0.225E-07 -.392E-07 0.552E-01
   -.129E-07 0.383E-08 0.447E+03   -.393E-07 0.495E-07 -.447E+03   0.159E-18 0.237E-19 0.869E-02   -.332E-09 0.742E-09 0.510E-01
   0.107E-02 -.185E-02 0.149E+03   0.543E-04 -.940E-04 -.149E+03   0.335E-18 -.615E-19 0.187E-01   0.846E-09 -.124E-08 0.273E-01
   0.132E-07 -.380E-08 -.447E+03   0.372E-07 -.473E-07 0.447E+03   -.217E-18 -.223E-19 -.124E-01   0.439E-09 -.856E-09 -.194E-01
   0.107E-02 -.185E-02 -.747E+03   0.546E-04 -.945E-04 0.747E+03   0.664E-19 -.153E-19 0.449E-02   -.821E-08 0.142E-07 -.386E-01
   -.217E-05 0.426E-06 -.134E+04   -.233E-04 0.259E-04 0.133E+04   0.155E-15 -.174E-16 0.898E+01   -.772E-10 -.192E-09 -.562E-01
   -.107E-02 0.185E-02 0.747E+03   -.546E-04 0.945E-04 -.747E+03   -.129E-18 0.300E-19 -.753E-02   0.391E-08 -.663E-08 0.643E-01
   -.107E-02 0.185E-02 -.149E+03   -.543E-04 0.940E-04 0.149E+03   -.326E-18 0.620E-19 -.200E-01   -.190E-08 0.309E-08 0.302E-02
   -.106E-02 0.184E-02 -.105E+04   -.557E-04 0.954E-04 0.105E+04   -.216E-18 -.418E-18 -.393E-01   -.616E-08 0.107E-07 -.522E-01
   -.558E-07 0.554E-07 0.299E+03   0.921E-07 -.103E-06 -.299E+03   0.441E-19 -.213E-18 -.867E-02   -.111E-08 0.207E-08 0.200E-01
   0.211E-07 -.384E-07 -.623E-02   0.398E-08 -.445E-08 0.162E-02   -.493E-20 0.700E-20 -.567E-03   -.577E-11 0.317E-11 0.502E-02
   0.106E-07 0.253E-07 -.299E+03   -.967E-07 0.108E-06 0.299E+03   0.664E-19 -.112E-18 0.944E-02   0.182E-08 -.322E-08 -.147E-01
   0.464E-04 -.779E-04 0.402E+03   -.517E-04 0.858E-04 -.402E+03   -.542E-17 0.344E-17 0.816E-01   0.370E-08 -.660E-08 0.162E-01
   0.419E-04 -.726E-04 0.993E+02   -.469E-04 0.812E-04 -.993E+02   0.133E-18 -.210E-20 0.538E-02   0.108E-09 -.233E-09 0.131E-01
   0.420E-04 -.727E-04 -.199E+03   -.470E-04 0.815E-04 0.199E+03   0.136E-18 0.523E-19 0.501E-02   -.796E-09 0.142E-08 -.101E-01
   -.420E-04 0.727E-04 0.199E+03   0.470E-04 -.815E-04 -.199E+03   -.957E-19 0.206E-20 -.529E-02   0.478E-09 -.839E-09 0.200E-01
   -.419E-04 0.725E-04 -.993E+02   0.469E-04 -.812E-04 0.993E+02   -.917E-19 -.247E-19 -.630E-02   -.186E-09 0.367E-09 -.276E-02
   -.464E-04 0.779E-04 -.402E+03   0.517E-04 -.858E-04 0.402E+03   0.213E-21 -.691E-17 -.794E-01   -.113E-08 0.204E-08 -.189E-01
   0.197E-09 -.191E-09 0.286E-01   0.669E-10 -.616E-10 -.239E-01   0.536E-20 0.335E-20 0.102E-03   -.202E-12 0.485E-12 -.476E-02
   -.359E-06 -.300E-07 0.746E+03   0.156E-05 -.140E-05 -.741E+03   -.987E-16 0.220E-17 -.565E+01   0.228E-10 -.324E-10 0.121E-01
   0.149E-04 -.254E-04 0.516E+03   -.151E-05 0.196E-05 -.516E+03   -.109E-16 0.715E-19 -.184E+00   0.135E-10 -.363E-10 0.748E-02
   -.141E-04 0.243E-04 0.243E+03   0.944E-06 -.144E-05 -.244E+03   0.376E-18 0.689E-17 0.138E+00   -.127E-10 0.133E-10 0.912E-03
   0.359E-06 0.301E-07 -.746E+03   -.156E-05 0.140E-05 0.741E+03   0.779E-16 -.220E-17 0.566E+01   0.411E-11 -.186E-11 -.241E-01
   0.141E-04 -.243E-04 -.243E+03   -.944E-06 0.143E-05 0.243E+03   -.378E-18 0.352E-17 -.138E+00   0.138E-10 -.142E-10 -.109E-01
   -.149E-04 0.254E-04 -.516E+03   0.151E-05 -.196E-05 0.516E+03   -.123E-17 0.687E-17 0.184E+00   -.756E-11 0.263E-10 -.179E-01
 -----------------------------------------------------------------------------------------------
   -.550E-07 0.100E-06 -.793E-01   0.125E-12 0.207E-13 0.136E-11   -.324E-16 0.327E-16 0.147E-01   0.156E-07 -.268E-07 0.642E-01
 
 
 POSITION                                       TOTAL-FORCE (eV/Angst)
 -----------------------------------------------------------------------------------
      0.00000     -0.00000     11.22246         0.000000     -0.000000      0.008302
      0.86682      1.50138     13.65436         0.000000      0.000000      0.014088
      0.00000     -0.00000     18.70905         0.000000     -0.000000      0.009387
      0.86682      1.50138     21.23832         0.000000      0.000000      0.013320
      0.00000     -0.00000     26.30104        -0.000000      0.000000     -0.010408
      0.86682      1.50138     28.82731        -0.000000      0.000000      0.000897
      0.00000     -0.00000     33.78776        -0.000000      0.000000     -0.011935
      1.73364     -0.00000     16.18278        -0.000000     -0.000000     -0.002083
      1.73364     -0.00000     23.77173        -0.000000     -0.000000     -0.013088
      1.73364     -0.00000     31.35573        -0.000000      0.000000     -0.013420
      0.00000     -0.00000     14.91961        -0.000000      0.000000     -0.011831
      0.00000     -0.00000     22.50507        -0.000000      0.000000     -0.000143
      0.00000     -0.00000     30.09043         0.000000     -0.000000      0.012384
      1.73364     -0.00000     12.38875        -0.000000      0.000000     -0.015462
      1.73364     -0.00000     19.97335         0.000000     -0.000000      0.017657
      1.73364     -0.00000     27.56371         0.000000     -0.000000      0.003550
      0.86682      1.50138     17.44638        -0.000000      0.000000     -0.002477
      0.86682      1.50138     25.03678        -0.000000      0.000000     -0.017406
      0.86682      1.50138     32.62127         0.000000     -0.000000      0.014685
      0.00000     -0.00000      1.11408        -0.000000      0.000000      0.000024
      0.00000     -0.00000      9.48136         0.000000     -0.000000      0.016120
      1.73364     -0.00000      6.91652         0.000000     -0.000000      0.008396
      0.86682      1.50138      3.92345        -0.000000      0.000000     -0.001819
      0.00000     -0.00000     35.52861        -0.000000      0.000000     -0.012004
      1.73364     -0.00000     41.08700         0.000000     -0.000000      0.001906
      0.86682      1.50138     38.09338        -0.000000      0.000000     -0.008639
 -----------------------------------------------------------------------------------
    total drift:                               -0.000000      0.000000     -0.000367


--------------------------------------------------------------------------------------------------------



  FREE ENERGIE OF THE ION-ELECTRON SYSTEM (eV)
  ---------------------------------------------------
  free  energy   TOTEN  =      -140.27504133 eV

  energy  without entropy=     -140.27046110  energy(sigma->0) =     -140.27275121
 
 d Force = 0.1272554E-03[ 0.754E-04, 0.179E-03]  d Energy = 0.1180375E-03 0.922E-05
 d Force =-0.9490116E+01[-0.949E+01,-0.949E+01]  d Ewald  =-0.9490116E+01 0.998E-07


--------------------------------------------------------------------------------------------------------


    POTLOK:  cpu time    0.20: real time    0.20


--------------------------------------------------------------------------------------------------------


 Conjugate gradient step on ions:
 trial-energy change:   -0.000118  1 .order   -0.000127   -0.000179   -0.000075
  (g-gl).g = 0.276E-03      g.g   = 0.281E-03  gl.gl    = 0.586E-03
 g(Force)  = 0.281E-03   g(Stress)= 0.000E+00 ortho     = 0.117E-04
 gamma     =   0.47060
 trial     =   0.62402
 opt step  =   1.07787  (harmonic =   1.07787) maximal distance =0.00392896
 next E    =  -140.275078   (d E  =  -0.00015)


--------------------------------------------------------------------------------------------------------


  
 reached required accuracy - stopping structural energy minimisation
     LOOP+:  cpu time   31.43: real time   31.46
    4ORBIT:  cpu time    0.00: real time    0.00

 total amount of memory used by VASP on root node   149095. kBytes
========================================================================

   base      :      30000. kBytes
   nonl-proj :      16137. kBytes
   fftplans  :      55173. kBytes
   grid      :      22118. kBytes
   one-center:         56. kBytes
   wavefun   :      25611. kBytes
 
  
  
 General timing and accounting informations for this job:
 ========================================================
  
                  Total CPU time used (sec):     1737.094
                            User time (sec):     1716.423
                          System time (sec):       20.671
                         Elapsed time (sec):     1738.918
  
                   Maximum memory used (kb):      253576.
                   Average memory used (kb):           0.
  
                          Minor page faults:       386408
                          Major page faults:            0
                 Voluntary context switches:          131
