       N       E                     dE             d eps       ncg     rms          rms(c)
DAV:   1     0.520729384588E+03    0.52073E+03   -0.45790E+04  2780   0.135E+03
DAV:   2    -0.103100953346E+03   -0.62383E+03   -0.59590E+03  3562   0.258E+02
DAV:   3    -0.161209930726E+03   -0.58109E+02   -0.57769E+02  3232   0.853E+01
DAV:   4    -0.161972386585E+03   -0.76246E+00   -0.76134E+00  3216   0.106E+01
DAV:   5    -0.161984194770E+03   -0.11808E-01   -0.11802E-01  3352   0.129E+00    0.231E+01
DAV:   6    -0.146010350535E+03    0.15974E+02   -0.92084E+01  3132   0.303E+01    0.775E+00
DAV:   7    -0.145875647449E+03    0.13470E+00   -0.16427E+00  3054   0.510E+00    0.475E+00
DAV:   8    -0.145765309593E+03    0.11034E+00   -0.49742E-01  3266   0.399E+00    0.767E-01
DAV:   9    -0.145753311423E+03    0.11998E-01   -0.10492E-01  3166   0.120E+00    0.499E-01
DAV:  10    -0.145751849844E+03    0.14616E-02   -0.28919E-02  3200   0.705E-01    0.247E-01
DAV:  11    -0.145752616608E+03   -0.76676E-03   -0.40114E-03  3134   0.276E-01    0.159E-01
DAV:  12    -0.145752373067E+03    0.24354E-03   -0.14519E-03  3536   0.224E-01    0.645E-02
DAV:  13    -0.145752277555E+03    0.95512E-04   -0.16303E-03  3184   0.164E-01    0.515E-02
DAV:  14    -0.145752190528E+03    0.87027E-04   -0.13308E-04  3526   0.738E-02    0.374E-02
DAV:  15    -0.145752067487E+03    0.12304E-03   -0.16981E-04  4164   0.106E-01    0.198E-02
DAV:  16    -0.145751984157E+03    0.83330E-04   -0.27292E-04  3978   0.132E-01    0.256E-02
DAV:  17    -0.145751930570E+03    0.53587E-04   -0.11366E-04  3320   0.624E-02    0.128E-02
DAV:  18    -0.145751870599E+03    0.59971E-04   -0.99724E-05  3236   0.923E-02    0.218E-02
DAV:  19    -0.145751827762E+03    0.42837E-04   -0.55126E-05  4294   0.980E-02    0.151E-02
DAV:  20    -0.145751787976E+03    0.39785E-04   -0.11008E-04  4452   0.148E-01    0.702E-03
DAV:  21    -0.145751773509E+03    0.14467E-04   -0.10007E-04  3934   0.128E-01    0.132E-02
DAV:  22    -0.145751770625E+03    0.28840E-05   -0.79852E-05  3174   0.557E-02    0.991E-03
DAV:  23    -0.145751768824E+03    0.18011E-05   -0.15561E-05  3046   0.190E-02    0.733E-03
DAV:  24    -0.145751765443E+03    0.33803E-05   -0.90418E-06  2918   0.212E-02    0.416E-03
DAV:  25    -0.145751764016E+03    0.14276E-05   -0.30254E-06  2468   0.304E-02    0.441E-03
DAV:  26    -0.145751763744E+03    0.27152E-06   -0.73991E-06  2718   0.196E-02
   1 F= -.14575176E+03 E0= -.14575111E+03  d E =-.145752E+03
       N       E                     dE             d eps       ncg     rms          rms(c)
DAV:   1    -0.145751927041E+03   -0.16302E-03   -0.42533E-02  2976   0.872E-01    0.288E-02
DAV:   2    -0.145751991628E+03   -0.64587E-04   -0.97278E-04  3184   0.135E-01    0.186E-02
DAV:   3    -0.145751977503E+03    0.14125E-04   -0.47229E-05  3312   0.405E-02    0.138E-02
DAV:   4    -0.145751964748E+03    0.12756E-04   -0.82850E-06  3060   0.233E-02    0.883E-03
DAV:   5    -0.145751941898E+03    0.22849E-04   -0.17473E-05  3356   0.562E-02    0.626E-03
DAV:   6    -0.145751931504E+03    0.10395E-04   -0.22899E-05  3724   0.484E-02    0.408E-03
DAV:   7    -0.145751922632E+03    0.88721E-05   -0.28305E-05  4404   0.655E-02    0.914E-03
DAV:   8    -0.145751912573E+03    0.10059E-04   -0.13121E-05  3390   0.548E-02    0.383E-03
DAV:   9    -0.145751906640E+03    0.59324E-05   -0.14400E-05  3342   0.515E-02    0.529E-03
DAV:  10    -0.145751905265E+03    0.13757E-05   -0.21365E-05  3040   0.345E-02    0.283E-03
DAV:  11    -0.145751906105E+03   -0.84081E-06   -0.11895E-05  2836   0.128E-02    0.603E-03
DAV:  12    -0.145751905461E+03    0.64411E-06   -0.48321E-07  1756   0.424E-03
   2 F= -.14575191E+03 E0= -.14575125E+03  d E =-.141717E-03
