 vasp.5.3.5 31Mar14 (build Apr 08 2024 10:12:10) complex                        
  
 executed on             LinuxIFC date 2024.07.29  17:23:13
 running on    8 total cores
 distrk:  each k-point on    8 cores,    1 groups
 distr:  one band on NCORES_PER_BAND=   4 cores,    2 groups


--------------------------------------------------------------------------------------------------------


 INCAR:
 POTCAR:    PAW_PBE O 08Apr2002                   
 POTCAR:    PAW_PBE Mg 13Apr2007                  
 POTCAR:    PAW_PBE Al 04Jan2001                  
 POTCAR:    PAW_PBE O 08Apr2002                   
   VRHFIN =O: s2p4                                                              
   LEXCH  = PE                                                                  
   EATOM  =   432.3788 eV,   31.7789 Ry                                         
                                                                                
   TITEL  = PAW_PBE O 08Apr2002                                                 
   LULTRA =        F    use ultrasoft PP ?                                      
   IUNSCR =        1    unscreen: 0-lin 1-nonlin 2-no                           
   RPACOR =    1.200    partial core radius                                     
   POMASS =   16.000; ZVAL   =    6.000    mass and valenz                      
   RCORE  =    1.520    outmost cutoff radius                                   
   RWIGS  =    1.550; RWIGS  =    0.820    wigner-seitz radius (au A)           
   ENMAX  =  400.000; ENMIN  =  300.000 eV                                      
   ICORE  =        2    local potential                                         
   LCOR   =        T    correct aug charges                                     
   LPAW   =        T    paw PP                                                  
   EAUG   =  605.392                                                            
   DEXC   =    0.000                                                            
   RMAX   =    1.553    core radius for proj-oper                               
   RAUG   =    1.300    factor for augmentation sphere                          
   RDEP   =    1.550    radius for radial grids                                 
   RDEPT  =    1.329    core radius for aug-charge                              
                                                                                
   Atomic configuration                                                         
    4 entries                                                                   
     n  l   j            E        occ.                                          
     1  0  0.50      -514.6923   2.0000                                         
     2  0  0.50       -23.9615   2.0000                                         
     2  1  0.50        -9.0305   4.0000                                         
     3  2  1.50        -9.5241   0.0000                                         
   Description                                                                  
     l       E           TYP  RCUT    TYP  RCUT                                 
     0    -23.9615318     23  1.200                                             
     0     -9.5240782     23  1.200                                             
     1     -9.0304911     23  1.520                                             
     1      8.1634956     23  1.520                                             
     2     -9.5240782      7  1.500                                             
  local pseudopotential read in
  partial core-charges read in
  partial kinetic energy density read in
  kinetic energy density of atom read in
  atomic valenz-charges read in
  non local Contribution for L=           0  read in
    real space projection operators read in
  non local Contribution for L=           0  read in
    real space projection operators read in
  non local Contribution for L=           1  read in
    real space projection operators read in
  non local Contribution for L=           1  read in
    real space projection operators read in
    PAW grid and wavefunctions read in
 
   number of l-projection  operators is LMAX  =           4
   number of lm-projection operators is LMMAX =           8
 
 POTCAR:    PAW_PBE Mg 13Apr2007                  
   VRHFIN =Mg: s2p0                                                             
   LEXCH  = PE                                                                  
   EATOM  =    23.0369 eV,    1.6932 Ry                                         
                                                                                
   TITEL  = PAW_PBE Mg 13Apr2007                                                
   LULTRA =        F    use ultrasoft PP ?                                      
   IUNSCR =        1    unscreen: 0-lin 1-nonlin 2-no                           
   RPACOR =    1.500    partial core radius                                     
   POMASS =   24.305; ZVAL   =    2.000    mass and valenz                      
   RCORE  =    2.000    outmost cutoff radius                                   
   RWIGS  =    2.880; RWIGS  =    1.524    wigner-seitz radius (au A)           
   ENMAX  =  200.000; ENMIN  =  100.000 eV                                      
   RCLOC  =    1.506    cutoff for local pot                                    
   LCOR   =        T    correct aug charges                                     
   LPAW   =        T    paw PP                                                  
   EAUG   =  454.734                                                            
   DEXC   =    0.000                                                            
   RMAX   =    2.045    core radius for proj-oper                               
   RAUG   =    1.300    factor for augmentation sphere                          
   RDEP   =    2.025    radius for radial grids                                 
   RDEPT  =    1.942    core radius for aug-charge                              
                                                                                
   Atomic configuration                                                         
    6 entries                                                                   
     n  l   j            E        occ.                                          
     1  0  0.50     -1259.6230   2.0000                                         
     2  0  0.50       -79.8442   2.0000                                         
     2  1  1.50       -46.6121   6.0000                                         
     3  0  0.50        -4.7055   2.0000                                         
     3  1  0.50        -1.3660   0.0000                                         
     3  2  1.50        -1.3606   0.0000                                         
   Description                                                                  
     l       E           TYP  RCUT    TYP  RCUT                                 
     0     -4.7054661     23  2.000                                             
     0     27.2116520     23  2.000                                             
     1      1.3605826     23  2.000                                             
     1     27.2116520     23  2.000                                             
     2     -1.3605826     23  2.000                                             
  local pseudopotential read in
  partial core-charges read in
  partial kinetic energy density read in
  atomic valenz-charges read in
  non local Contribution for L=           0  read in
    real space projection operators read in
  non local Contribution for L=           0  read in
    real space projection operators read in
  non local Contribution for L=           1  read in
    real space projection operators read in
  non local Contribution for L=           1  read in
    real space projection operators read in
  non local Contribution for L=           2  read in
    real space projection operators read in
    PAW grid and wavefunctions read in
 
   number of l-projection  operators is LMAX  =           5
   number of lm-projection operators is LMMAX =          13
 
 POTCAR:    PAW_PBE Al 04Jan2001                  
   VRHFIN =Al: s2p1                                                             
   LEXCH  = PE                                                                  
   EATOM  =    53.5387 eV,    3.9350 Ry                                         
                                                                                
   TITEL  = PAW_PBE Al 04Jan2001                                                
   LULTRA =        F    use ultrasoft PP ?                                      
   IUNSCR =        1    unscreen: 0-lin 1-nonlin 2-no                           
   RPACOR =    1.500    partial core radius                                     
   POMASS =   26.981; ZVAL   =    3.000    mass and valenz                      
   RCORE  =    1.900    outmost cutoff radius                                   
   RWIGS  =    2.650; RWIGS  =    1.402    wigner-seitz radius (au A)           
   ENMAX  =  240.300; ENMIN  =  180.225 eV                                      
   ICORE  =        2    local potential                                         
   LCOR   =        T    correct aug charges                                     
   LPAW   =        T    paw PP                                                  
   EAUG   =  291.052                                                            
   DEXC   =    0.000                                                            
   RMAX   =    1.939    core radius for proj-oper                               
   RAUG   =    1.300    factor for augmentation sphere                          
   RDEP   =    1.966    radius for radial grids                                 
   RDEPT  =    1.856    core radius for aug-charge                              
                                                                                
   Atomic configuration                                                         
    6 entries                                                                   
     n  l   j            E        occ.                                          
     1  0  0.50     -1511.1048   2.0000                                         
     2  0  0.50      -108.1629   2.0000                                         
     2  1  1.50       -69.6402   6.0000                                         
     3  0  0.50        -7.7528   2.0000                                         
     3  1  1.50        -2.7121   1.0000                                         
     3  2  2.50        -2.7212   0.0000                                         
   Description                                                                  
     l       E           TYP  RCUT    TYP  RCUT                                 
     0     -7.7528455     23  1.900                                             
     0     -3.3096929     23  1.900                                             
     1     -2.7120682     23  1.900                                             
     1     13.6058260     23  1.900                                             
     2     -2.7211652      7  1.900                                             
  local pseudopotential read in
  partial core-charges read in
  partial kinetic energy density read in
  atomic valenz-charges read in
  non local Contribution for L=           0  read in
    real space projection operators read in
  non local Contribution for L=           0  read in
    real space projection operators read in
  non local Contribution for L=           1  read in
    real space projection operators read in
  non local Contribution for L=           1  read in
    real space projection operators read in
    PAW grid and wavefunctions read in
 
   number of l-projection  operators is LMAX  =           4
   number of lm-projection operators is LMMAX =           8
 

 ----------------------------------------------------------------------------- 
|                                                                             |
|  ADVICE TO THIS USER RUNNING 'VASP/VAMP'   (HEAR YOUR MASTER'S VOICE ...):  |
|                                                                             |
|      You have a (more or less) 'large supercell' and for larger cells       |
|      it might be more efficient to use real space projection opertators     |
|      So try LREAL= Auto  in the INCAR   file.                               |
|      Mind: At the moment your POTCAR file does not contain real space       |
|       projectors, and has to be modified,  BUT if you                       |
|      want to do an extremely  accurate calculation you might also keep the  |
|      reciprocal projection scheme          (i.e. LREAL=.FALSE.)             |
|                                                                             |
 ----------------------------------------------------------------------------- 

  PAW_PBE O 08Apr2002                   :
 energy of atom  1       EATOM= -432.3788
 kinetic energy error for atom=    0.0208 (will be added to EATOM!!)
  PAW_PBE Mg 13Apr2007                  :
 energy of atom  2       EATOM=  -23.0369
 kinetic energy error for atom=    0.0000 (will be added to EATOM!!)
  PAW_PBE Al 04Jan2001                  :
 energy of atom  3       EATOM=  -53.5387
 kinetic energy error for atom=    0.0002 (will be added to EATOM!!)
 
 
 POSCAR: Layer                                   
  positions in direct lattice
  velocities in cartesian coordinates
 exchange correlation table for  LEXCH =        8
   RHO(1)=    0.500       N(1)  =     2000
   RHO(2)=  100.500       N(2)  =     4000
 


--------------------------------------------------------------------------------------------------------


 ion  position               nearest neighbor table
   1  0.000  0.000  0.269-  14 2.13  14 2.13  14 2.13  18 2.15  18 2.15  18 2.15
   2  0.333  0.667  0.325-  14 2.13  14 2.13  14 2.13  11 2.13  11 2.13  11 2.13
   3  0.000  0.000  0.439-  19 2.13  19 2.13  19 2.13  15 2.13  15 2.13  15 2.13
   4  0.333  0.667  0.496-  12 2.13  12 2.13  12 2.13  15 2.13  15 2.13  15 2.13
   5  0.000  0.000  0.610-  16 2.13  16 2.13  16 2.13  20 2.13  20 2.13  20 2.13
   6  0.333  0.667  0.666-  13 2.13  13 2.13  13 2.13  16 2.13  16 2.13  16 2.13
   7  0.000  0.000  0.780-  21 2.13  21 2.13  21 2.13  17 2.15  17 2.15  17 2.15
   8  0.667  0.333  0.382-  11 2.13  11 2.13  11 2.13  19 2.13  19 2.13  19 2.13
   9  0.667  0.333  0.553-  20 2.13  20 2.13  20 2.13  12 2.13  12 2.13  12 2.13
  10  0.667  0.333  0.723-  21 2.13  21 2.13  21 2.13  13 2.13  13 2.13  13 2.13
  11  0.000  0.000  0.354-   8 2.13   8 2.13   8 2.13   2 2.13   2 2.13   2 2.13  14 3.03  14 3.03
                            14 3.03  19 3.03  19 3.03  19 3.03
  12  0.000  0.000  0.524-   4 2.13   4 2.13   4 2.13   9 2.13   9 2.13   9 2.13  15 3.03  15 3.03
                            15 3.03  20 3.03  20 3.03  20 3.03
  13  0.000  0.000  0.695-   6 2.13   6 2.13   6 2.13  10 2.13  10 2.13  10 2.13  21 3.03  21 3.03
                            21 3.03  16 3.03  16 3.03  16 3.03
  14  0.667  0.333  0.297-   1 2.13   1 2.13   1 2.13   2 2.13   2 2.13   2 2.13  11 3.03  11 3.03
                            11 3.03  18 3.06  18 3.06  18 3.06
  15  0.667  0.333  0.467-   4 2.13   4 2.13   4 2.13   3 2.13   3 2.13   3 2.13  12 3.03  12 3.03
                            12 3.03  19 3.03  19 3.03  19 3.03
  16  0.667  0.333  0.638-   5 2.13   5 2.13   5 2.13   6 2.13   6 2.13   6 2.13  13 3.03  13 3.03
                            13 3.03  20 3.03  20 3.03  20 3.03
  17  0.667  0.333  0.809-   7 2.15   7 2.15   7 2.15  26 3.02  26 3.02  26 3.02  21 3.06  21 3.06
                            21 3.06
  18  0.333  0.667  0.239-   1 2.15   1 2.15   1 2.15  23 3.02  23 3.02  23 3.02  14 3.06  14 3.06
                            14 3.06
  19  0.333  0.667  0.411-   3 2.13   3 2.13   3 2.13   8 2.13   8 2.13   8 2.13  11 3.03  11 3.03
                            11 3.03  15 3.03  15 3.03  15 3.03
  20  0.333  0.667  0.581-   9 2.13   9 2.13   9 2.13   5 2.13   5 2.13   5 2.13  12 3.03  12 3.03
                            12 3.03  16 3.03  16 3.03  16 3.03
  21  0.333  0.667  0.752-   7 2.13   7 2.13   7 2.13  10 2.13  10 2.13  10 2.13  13 3.03  13 3.03
                            13 3.03  17 3.06  17 3.06  17 3.06
  22  0.000  0.000  0.024-  25 2.88  25 2.88  25 2.88  27 2.88  27 2.88  27 2.88
  23  0.000  0.000  0.182-  24 2.87  24 2.87  24 2.87  18 3.02  18 3.02  18 3.02
  24  0.667  0.333  0.130-  23 2.87  23 2.87  23 2.87  25 2.89  25 2.89  25 2.89
  25  0.333  0.667  0.077-  22 2.88  22 2.88  22 2.88  24 2.89  24 2.89  24 2.89
  26  0.000  0.000  0.866-  28 2.87  28 2.87  28 2.87  17 3.02  17 3.02  17 3.02
  27  0.667  0.333  0.972-  22 2.88  22 2.88  22 2.88  28 2.89  28 2.89  28 2.89
  28  0.333  0.667  0.919-  26 2.87  26 2.87  26 2.87  27 2.89  27 2.89  27 2.89
 
  LATTYP: Found a hexagonal cell.
 ALAT       =     2.9932160299
 C/A-ratio  =    14.5999159653
  
  Lattice vectors:
  
 A1 = (   2.5922013181,  -1.4966076735,   0.0000000000)
 A2 = (   0.0000000000,   2.9932153469,   0.0000000000)
 A3 = (  -0.0000000000,   0.0000000000,  43.7007025033)


Analysis of symmetry for initial positions (statically):
=====================================================================
 Subroutine PRICEL returns:
 Original cell was already a primitive cell.
 

 Routine SETGRP: Setting up the symmetry group for a 
 hexagonal supercell.


 Subroutine GETGRP returns: Found  6 space group operations
 (whereof  6 operations were pure point group operations)
 out of a pool of 24 trial point group operations.


The static configuration has the point symmetry C_3v.


Analysis of symmetry for dynamics (positions and initial velocities):
=====================================================================
 Subroutine PRICEL returns:
 Original cell was already a primitive cell.
 

 Routine SETGRP: Setting up the symmetry group for a 
 hexagonal supercell.


 Subroutine GETGRP returns: Found  6 space group operations
 (whereof  6 operations were pure point group operations)
 out of a pool of 24 trial point group operations.


The dynamic configuration has the point symmetry C_3v.


Analysis of constrained symmetry for selective dynamics:
=====================================================================
 Subroutine PRICEL returns:
 Original cell was already a primitive cell.
 

 Routine SETGRP: Setting up the symmetry group for a 
 hexagonal supercell.


 Subroutine GETGRP returns: Found  6 space group operations
 (whereof  6 operations were pure point group operations)
 out of a pool of 24 trial point group operations.


The constrained configuration has the point symmetry C_3v.
 
 
 KPOINTS: K-Spacing Value to Generate K-Mesh: 0.02

Automatic generation of k-mesh.
Space group operators:
 irot       det(A)        alpha          n_x          n_y          n_z        tau_x        tau_y        tau_z
    1     1.000000     0.000000     1.000000     0.000000     0.000000     0.000000     0.000000     0.000000
    2     1.000000   120.000000     0.000000     0.000000    -1.000000     0.000000     0.000000     0.000000
    3     1.000000   120.000000    -0.000000     0.000000     1.000000     0.000000     0.000000     0.000000
    4    -1.000000   180.000000    -0.866025     0.500000    -0.000000     0.000000     0.000000     0.000000
    5    -1.000000   180.000000     0.000000     1.000000     0.000000     0.000000     0.000000     0.000000
    6    -1.000000   180.000000    -0.866025    -0.500000    -0.000000     0.000000     0.000000     0.000000
 
 Subroutine IBZKPT returns following result:
 ===========================================
 
 Found     21 irreducible k-points:
 
 Following reciprocal coordinates:
            Coordinates               Weight
  0.000000  0.000000  0.000000      1.000000
  0.076923  0.000000  0.000000      6.000000
  0.153846  0.000000  0.000000      6.000000
  0.230769  0.000000  0.000000      6.000000
  0.307692  0.000000 -0.000000      6.000000
  0.384615  0.000000  0.000000      6.000000
  0.461538  0.000000  0.000000      6.000000
  0.076923  0.076923 -0.000000      6.000000
  0.153846  0.076923  0.000000     12.000000
  0.230769  0.076923  0.000000     12.000000
  0.307692  0.076923  0.000000     12.000000
  0.384615  0.076923 -0.000000     12.000000
  0.461538  0.076923 -0.000000      6.000000
  0.153846  0.153846  0.000000      6.000000
  0.230769  0.153846  0.000000     12.000000
  0.307692  0.153846  0.000000     12.000000
  0.384615  0.153846  0.000000     12.000000
  0.230769  0.230769  0.000000      6.000000
  0.307692  0.230769  0.000000     12.000000
  0.384615  0.230769 -0.000000      6.000000
  0.307692  0.307692 -0.000000      6.000000
 
 Following cartesian coordinates:
            Coordinates               Weight
  0.000000  0.000000  0.000000      1.000000
  0.029675  0.000000  0.000000      6.000000
  0.059350  0.000000  0.000000      6.000000
  0.089024  0.000000  0.000000      6.000000
  0.118699  0.000000  0.000000      6.000000
  0.148374  0.000000  0.000000      6.000000
  0.178049  0.000000  0.000000      6.000000
  0.044512  0.025699  0.000000      6.000000
  0.074187  0.025699  0.000000     12.000000
  0.103862  0.025699  0.000000     12.000000
  0.133537  0.025699  0.000000     12.000000
  0.163211  0.025699  0.000000     12.000000
  0.192886  0.025699  0.000000      6.000000
  0.089024  0.051398  0.000000      6.000000
  0.118699  0.051398  0.000000     12.000000
  0.148374  0.051398  0.000000     12.000000
  0.178049  0.051398  0.000000     12.000000
  0.133537  0.077097  0.000000      6.000000
  0.163211  0.077097  0.000000     12.000000
  0.192886  0.077097  0.000000      6.000000
  0.178049  0.102797  0.000000      6.000000
 


--------------------------------------------------------------------------------------------------------




 Dimension of arrays:
   k-points           NKPTS =     21   k-points in BZ     NKDIM =     21   number of bands    NBANDS=     66
   number of dos      NEDOS =    301   number of ions     NIONS =     28
   non local maximal  LDIM  =      5   non local SUM 2l+1 LMDIM =     13
   total plane-waves  NPLWV = 193536
   max r-space proj   IRMAX =      1   max aug-charges    IRDMAX= 194149
   dimension x,y,z NGX =    24 NGY =   24 NGZ =  336
   dimension x,y,z NGXF=    48 NGYF=   48 NGZF=  672
   support grid    NGXF=    96 NGYF=   96 NGZF= 1344
   ions per type =              10  11   7
 NGX,Y,Z   is equivalent  to a cutoff of  13.33, 13.33, 12.78 a.u.
 NGXF,Y,Z  is equivalent  to a cutoff of  26.66, 26.66, 25.56 a.u.


 I would recommend the setting:
   dimension x,y,z NGX =    22 NGY =   22 NGZ =  325
 SYSTEM =  unknown system                          
 POSCAR =  Layer                                   

 Startparameter for this run:
   NWRITE =      2    write-flag & timer
   PREC   = accura    normal or accurate (medium, high low for compatibility)
   ISTART =      0    job   : 0-new  1-cont  2-samecut
   ICHARG =      2    charge: 1-file 2-atom 10-const
   ISPIN  =      1    spin polarized calculation?
   LNONCOLLINEAR =      F non collinear calculations
   LSORBIT =      F    spin-orbit coupling
   INIWAV =      1    electr: 0-lowe 1-rand  2-diag
   LASPH  =      F    aspherical Exc in radial PAW
   METAGGA=      F    non-selfconsistent MetaGGA calc.

 Electronic Relaxation 1
   ENCUT  =  520.0 eV  38.22 Ry    6.18 a.u.   5.57  5.57 81.25*2*pi/ulx,y,z
   ENINI  =  520.0     initial cutoff
   ENAUG  =  605.4 eV  augmentation charge cutoff
   NELM   =    100;   NELMIN=  6; NELMDL=  0     # of ELM steps 
   EDIFF  = 0.1E-05   stopping-criterion for ELM
   LREAL  =      F    real-space projection
   NLSPLINE    = F    spline interpolate recip. space projectors
   LCOMPAT=      F    compatible to vasp.4.4
   GGA_COMPAT  = T    GGA compatible to vasp.4.4-vasp.4.6
   LMAXPAW     = -100 max onsite density
   LMAXMIX     =    2 max onsite mixed and CHGCAR
   VOSKOWN=      0    Vosko Wilk Nusair interpolation
   ROPT   =    0.00000   0.00000   0.00000
 Ionic relaxation
   EDIFFG = -.2E-01   stopping-criterion for IOM
   NSW    =    500    number of steps for IOM
   NBLOCK =      1;   KBLOCK =    500    inner block; outer block 
   IBRION =      2    ionic relax: 0-MD 1-quasi-New 2-CG
   NFREE  =      1    steps in history (QN), initial steepest desc. (CG)
   ISIF   =      2    stress and relaxation
   IWAVPR =     11    prediction:  0-non 1-charg 2-wave 3-comb
   ISYM   =      2    0-nonsym 1-usesym 2-fastsym
   LCORR  =      T    Harris-Foulkes like correction to forces

   POTIM  = 0.5000    time-step for ionic-motion
   TEIN   =    0.0    initial temperature
   TEBEG  =    0.0;   TEEND  =   0.0 temperature during run
   SMASS  =  -3.00    Nose mass-parameter (am)
   estimated Nose-frequenzy (Omega)   =  0.10E-29 period in steps =****** mass=  -0.205E-27a.u.
   SCALEE = 1.0000    scale energy and forces
   NPACO  =    256;   APACO  = 16.0  distance and # of slots for P.C.
   PSTRESS=    0.0 pullay stress

  Mass of Ions in am
   POMASS =  16.00 24.30 26.98
  Ionic Valenz
   ZVAL   =   6.00  2.00  3.00
  Atomic Wigner-Seitz radii
   RWIGS  =  -1.00 -1.00 -1.00
  virtual crystal weights 
   VCA    =   1.00  1.00  1.00
   NELECT =     103.0000    total number of electrons
   NUPDOWN=      -1.0000    fix difference up-down

 DOS related values:
   EMIN   =  10.00;   EMAX   =-10.00  energy-range for DOS
   EFERMI =   0.00
   ISMEAR =     0;   SIGMA  =   0.05  broadening in eV -4-tet -1-fermi 0-gaus

 Electronic relaxation 2 (details)
   IALGO  =     38    algorithm
   LDIAG  =      T    sub-space diagonalisation (order eigenvalues)
   LSUBROT=      F    optimize rotation matrix (better conditioning)
   TURBO    =      0    0=normal 1=particle mesh
   IRESTART =      0    0=no restart 2=restart with 2 vectors
   NREBOOT  =      0    no. of reboots
   NMIN     =      0    reboot dimension
   EREF     =   0.00    reference energy to select bands
   IMIX   =      4    mixing-type and parameters
     AMIX     =   0.40;   BMIX     =  1.00
     AMIX_MAG =   1.60;   BMIX_MAG =  1.00
     AMIN     =   0.01
     WC   =   100.;   INIMIX=   1;  MIXPRE=   1;  MAXMIX= -45

 Intra band minimization:
   WEIMIN = 0.0010     energy-eigenvalue tresh-hold
   EBREAK =  0.38E-08  absolut break condition
   DEPER  =   0.30     relativ break condition  

   TIME   =   0.40     timestep for ELM

  volume/ion in A,a.u.               =      12.11        81.72
  Fermi-wavevector in a.u.,A,eV,Ry     =   1.100497  2.079638 16.477930  1.211094
  Thomas-Fermi vector in A             =   2.236909
 
 Write flags
   LWAVE  =      F    write WAVECAR
   LCHARG =      T    write CHGCAR
   LVTOT  =      F    write LOCPOT, total local potential
   LVHAR  =      F    write LOCPOT, Hartree potential only
   LELF   =      F    write electronic localiz. function (ELF)
   LORBIT =      0    0 simple, 1 ext, 2 COOP (PROOUT)


 Dipole corrections
   LMONO  =      F    monopole corrections only (constant potential shift)
   LDIPOL =      F    correct potential (dipole corrections)
   IDIPOL =      0    1-x, 2-y, 3-z, 4-all directions 
   EPSILON=  1.0000000 bulk dielectric constant

 Exchange correlation treatment:
   GGA     =    --    GGA type
   LEXCH   =     8    internal setting for exchange type
   VOSKOWN=      0    Vosko Wilk Nusair interpolation
   LHFCALC =     F    Hartree Fock is set to
   LHFONE  =     F    Hartree Fock one center treatment
   AEXX    =    0.0000 exact exchange contribution

 Linear response parameters
   LEPSILON=     F    determine dielectric tensor
   LRPA    =     F    only Hartree local field effects (RPA)
   LNABLA  =     F    use nabla operator in PAW spheres
   LVEL    =     F    velocity operator in full k-point grid
   LINTERFAST=   F  fast interpolation
   KINTER  =     0    interpolate to denser k-point grid
   CSHIFT  =0.1000    complex shift for real part using Kramers Kronig
   OMEGAMAX=  -1.0    maximum frequency
   DEG_THRESHOLD= 0.2000000E-02 threshold for treating states as degnerate
   RTIME   =    0.100 relaxation time in fs

 Orbital magnetization related:
   ORBITALMAG=     F  switch on orbital magnetization
   LCHIMAG   =     F  perturbation theory with respect to B field
   DQ        =  0.001000  dq finite difference perturbation B field



--------------------------------------------------------------------------------------------------------


 conjugate gradient relaxation of ions
   using selective dynamics as specified on POSCAR
 charge density and potential will be updated during run
 non-spin polarized calculation
 Variant of blocked Davidson
 Davidson routine will perform the subspace rotation
 perform sub-space diagonalisation
    after iterative eigenvector-optimisation
 modified Broyden-mixing scheme, WC =      100.0
 initial mixing is a Kerker type mixing with AMIX =  0.4000 and BMIX =      1.0000
 Hartree-type preconditioning will be used
 using additional bands           14
 reciprocal scheme for non local part
 use partial core corrections
 calculate Harris-corrections to forces 
   (improved forces if not selfconsistent)
 use gradient corrections 
 use of overlap-Matrix (Vanderbilt PP)
 Gauss-broadening in eV      SIGMA  =   0.05


--------------------------------------------------------------------------------------------------------


  energy-cutoff  :      520.00
  volume of cell :      339.07
      direct lattice vectors                 reciprocal lattice vectors
     2.592201318 -1.496607673  0.000000000     0.385772507  0.000000000  0.000000000
     0.000000000  2.993215347  0.000000000     0.192886253  0.334088892  0.000000000
    -0.000000000  0.000000000 43.700702503     0.000000000  0.000000000  0.022882927

  length of vectors
     2.993216030  2.993215347 43.700702503     0.385772507  0.385772595  0.022882927


 
 k-points in units of 2pi/SCALE and weight: K-Spacing Value to Generate K-Mesh: 0.02
   0.00000000  0.00000000  0.00000000       0.006
   0.02967481  0.00000000  0.00000000       0.036
   0.05934962  0.00000000  0.00000000       0.036
   0.08902442  0.00000000  0.00000000       0.036
   0.11869923  0.00000000  0.00000000       0.036
   0.14837404  0.00000000  0.00000000       0.036
   0.17804885  0.00000000  0.00000000       0.036
   0.04451221  0.02569915  0.00000000       0.036
   0.07418702  0.02569915  0.00000000       0.071
   0.10386183  0.02569915  0.00000000       0.071
   0.13353664  0.02569915  0.00000000       0.071
   0.16321145  0.02569915  0.00000000       0.071
   0.19288625  0.02569915  0.00000000       0.036
   0.08902442  0.05139829  0.00000000       0.036
   0.11869923  0.05139829  0.00000000       0.071
   0.14837404  0.05139829  0.00000000       0.071
   0.17804885  0.05139829  0.00000000       0.071
   0.13353664  0.07709744  0.00000000       0.036
   0.16321145  0.07709744  0.00000000       0.071
   0.19288625  0.07709744  0.00000000       0.036
   0.17804885  0.10279658  0.00000000       0.036
 
 k-points in reciprocal lattice and weights: K-Spacing Value to Generate K-Mesh: 0.02
   0.00000000  0.00000000  0.00000000       0.006
   0.07692308  0.00000000  0.00000000       0.036
   0.15384615  0.00000000  0.00000000       0.036
   0.23076923  0.00000000  0.00000000       0.036
   0.30769231  0.00000000 -0.00000000       0.036
   0.38461538  0.00000000  0.00000000       0.036
   0.46153846  0.00000000  0.00000000       0.036
   0.07692308  0.07692308 -0.00000000       0.036
   0.15384615  0.07692308  0.00000000       0.071
   0.23076923  0.07692308  0.00000000       0.071
   0.30769231  0.07692308  0.00000000       0.071
   0.38461538  0.07692308 -0.00000000       0.071
   0.46153846  0.07692308 -0.00000000       0.036
   0.15384615  0.15384615  0.00000000       0.036
   0.23076923  0.15384615  0.00000000       0.071
   0.30769231  0.15384615  0.00000000       0.071
   0.38461538  0.15384615  0.00000000       0.071
   0.23076923  0.23076923  0.00000000       0.036
   0.30769231  0.23076923  0.00000000       0.071
   0.38461538  0.23076923 -0.00000000       0.036
   0.30769231  0.30769231 -0.00000000       0.036
 
 position of ions in fractional coordinates (direct lattice) 
   0.00000000  0.00000000  0.26858464
   0.33333300  0.66666700  0.32532735
   0.00000000  0.00000000  0.43905132
   0.33333300  0.66666700  0.49590180
   0.00000000  0.00000000  0.60958515
   0.33333300  0.66666700  0.66647588
   0.00000000  0.00000000  0.78005854
   0.66666700  0.33333300  0.38215997
   0.66666700  0.33333300  0.55274527
   0.66666700  0.33333300  0.72330547
   0.00000000  0.00000000  0.35377524
   0.00000000  0.00000000  0.52430688
   0.00000000  0.00000000  0.69487100
   0.66666700  0.33333300  0.29695348
   0.66666700  0.33333300  0.46748673
   0.66666700  0.33333300  0.63800604
   0.66666700  0.33333300  0.80946218
   0.33333300  0.66666700  0.23918682
   0.33333300  0.66666700  0.41061887
   0.33333300  0.66666700  0.58112931
   0.33333300  0.66666700  0.75171348
   0.00000000  0.00000000  0.02432282
   0.00000000  0.00000000  0.18239616
   0.66666700  0.33333300  0.12999684
   0.33333300  0.66666700  0.07709216
   0.00000000  0.00000000  0.86624873
   0.66666700  0.33333300  0.97155135
   0.33333300  0.66666700  0.91865752
 
 position of ions in cartesian coordinates  (Angst):
  -0.00000000  0.00000000 11.73733727
   0.86406624  1.49660917 14.21703368
  -0.00000000  0.00000000 19.18685123
   0.86406624  1.49660917 21.67125720
  -0.00000000  0.00000000 26.63929933
   0.86406624  1.49660917 29.12546401
  -0.00000000  0.00000000 34.08910639
   1.72813508 -0.00000150 16.70065907
   1.72813508 -0.00000150 24.15535661
   1.72813508 -0.00000150 31.60895733
  -0.00000000  0.00000000 15.46022661
  -0.00000000  0.00000000 22.91257886
  -0.00000000  0.00000000 30.36635069
   1.72813508 -0.00000150 12.97707558
   1.72813508 -0.00000150 20.42949842
   1.72813508 -0.00000150 27.88131221
   1.72813508 -0.00000150 35.37406573
   0.86406624  1.49660917 10.45263222
   0.86406624  1.49660917 17.94433313
   0.86406624  1.49660917 25.39575924
   0.86406624  1.49660917 32.85040710
  -0.00000000  0.00000000  1.06292423
  -0.00000000  0.00000000  7.97084044
   1.72813508 -0.00000150  5.68095313
   0.86406624  1.49660917  3.36898164
  -0.00000000  0.00000000 37.85567805
   1.72813508 -0.00000150 42.45747670
   0.86406624  1.49660917 40.14597877
 


--------------------------------------------------------------------------------------------------------


 k-point  1 :   0.0000 0.0000 0.0000  plane waves:    9235
 k-point  2 :   0.0769 0.0000 0.0000  plane waves:    9257
 k-point  3 :   0.1538 0.0000 0.0000  plane waves:    9221
 k-point  4 :   0.2308 0.0000 0.0000  plane waves:    9172
 k-point  5 :   0.3077 0.0000-0.0000  plane waves:    9136
 k-point  6 :   0.3846 0.0000 0.0000  plane waves:    9070
 k-point  7 :   0.4615 0.0000 0.0000  plane waves:    9074
 k-point  8 :   0.0769 0.0769-0.0000  plane waves:    9239
 k-point  9 :   0.1538 0.0769 0.0000  plane waves:    9200
 k-point 10 :   0.2308 0.0769 0.0000  plane waves:    9149
 k-point 11 :   0.3077 0.0769 0.0000  plane waves:    9126
 k-point 12 :   0.3846 0.0769-0.0000  plane waves:    9084
 k-point 13 :   0.4615 0.0769-0.0000  plane waves:    9054
 k-point 14 :   0.1538 0.1538 0.0000  plane waves:    9145
 k-point 15 :   0.2308 0.1538 0.0000  plane waves:    9132
 k-point 16 :   0.3077 0.1538 0.0000  plane waves:    9114
 k-point 17 :   0.3846 0.1538 0.0000  plane waves:    9070
 k-point 18 :   0.2308 0.2308 0.0000  plane waves:    9118
 k-point 19 :   0.3077 0.2308 0.0000  plane waves:    9081
 k-point 20 :   0.3846 0.2308-0.0000  plane waves:    9106
 k-point 21 :   0.3077 0.3077-0.0000  plane waves:    9124

 maximum and minimum number of plane-waves per node :      2328     2249

 maximum number of plane-waves:      9257
 maximum index in each direction: 
   IXMAX=    5   IYMAX=    5   IZMAX=   81
   IXMIN=   -6   IYMIN=   -5   IZMIN=  -81

 NGX is ok and might be reduce to  24
 NGY is ok and might be reduce to  22
 NGZ is ok and might be reduce to 326

 parallel 3D FFT for wavefunctions:
    minimum data exchange during FFTs selected (reduces bandwidth)
 parallel 3D FFT for charge:
    minimum data exchange during FFTs selected (reduces bandwidth)


 total amount of memory used by VASP on root node   153975. kBytes
========================================================================

   base      :      30000. kBytes
   nonl-proj :      16240. kBytes
   fftplans  :      57933. kBytes
   grid      :      23224. kBytes
   one-center:         56. kBytes
   wavefun   :      26522. kBytes
 
     INWAV:  cpu time    0.00: real time    0.00
 Broyden mixing: mesh for mixing (old mesh)
   NGX = 11   NGY = 11   NGZ =163
  (NGX  = 48   NGY  = 48   NGZ  =672)
  gives a total of  19723 points

 initial charge density was supplied:
 charge density of overlapping atoms calculated
 number of electron     103.0000000 magnetization 
 keeping initial charge density in first step


--------------------------------------------------------------------------------------------------------


 Maximum index for augmentation-charges        23374 (set IRDMAX)


--------------------------------------------------------------------------------------------------------


 First call to EWALD:  gamma=   0.254
 Maximum number of real-space cells 7x 7x 1
 Maximum number of reciprocal cells 1x 1x15

 FEWALD executed in parallel
    FEWALD:  cpu time    0.00: real time    0.00


----------------------------------------- Iteration    1(   1)  ---------------------------------------


    POTLOK:  cpu time    0.11: real time    0.11
    SETDIJ:  cpu time    0.11: real time    0.11
     EDDAV:  cpu time    4.97: real time    5.00
       DOS:  cpu time    0.00: real time    0.00
    --------------------------------------------
      LOOP:  cpu time    5.19: real time    5.22

 eigenvalue-minimisations  :  2780
 total energy-change (2. order) : 0.5207294E+03  (-0.4578966E+04)
 number of electron     103.0000000 magnetization 
 augmentation part      103.0000000 magnetization 

 Free energy of the ion-electron system (eV)
  ---------------------------------------------------
  alpha Z        PSCENC =       143.16131523
  Ewald energy   TEWEN  =     14799.50845524
  -Hartree energ DENC   =    -20056.05615096
  -exchange      EXHF   =         0.00000000
  -V(xc)+E(xc)   XCENC  =      -438.96336404
  PAW double counting   =      4647.26951674    -3871.08436696
  entropy T*S    EENTRO =        -0.00660491
  eigenvalues    EBANDS =       345.14601814
  atomic energy  EATOM  =      4951.75456612
  ---------------------------------------------------
  free energy    TOTEN  =       520.72938459 eV

  energy without entropy =      520.73598950  energy(sigma->0) =      520.73268705


--------------------------------------------------------------------------------------------------------




----------------------------------------- Iteration    1(   2)  ---------------------------------------


     EDDAV:  cpu time    5.64: real time    5.65
       DOS:  cpu time    0.00: real time    0.00
    --------------------------------------------
      LOOP:  cpu time    5.64: real time    5.65

 eigenvalue-minimisations  :  3562
 total energy-change (2. order) :-0.6238303E+03  (-0.5958991E+03)
 number of electron     103.0000000 magnetization 
 augmentation part      103.0000000 magnetization 

 Free energy of the ion-electron system (eV)
  ---------------------------------------------------
  alpha Z        PSCENC =       143.16131523
  Ewald energy   TEWEN  =     14799.50845524
  -Hartree energ DENC   =    -20056.05615096
  -exchange      EXHF   =         0.00000000
  -V(xc)+E(xc)   XCENC  =      -438.96336404
  PAW double counting   =      4647.26951674    -3871.08436696
  entropy T*S    EENTRO =        -0.00365895
  eigenvalues    EBANDS =      -278.68726576
  atomic energy  EATOM  =      4951.75456612
  ---------------------------------------------------
  free energy    TOTEN  =      -103.10095335 eV

  energy without entropy =     -103.09729439  energy(sigma->0) =     -103.09912387


--------------------------------------------------------------------------------------------------------




----------------------------------------- Iteration    1(   3)  ---------------------------------------


     EDDAV:  cpu time    5.28: real time    5.29
       DOS:  cpu time    0.00: real time    0.00
    --------------------------------------------
      LOOP:  cpu time    5.28: real time    5.29

 eigenvalue-minimisations  :  3232
 total energy-change (2. order) :-0.5810898E+02  (-0.5776880E+02)
 number of electron     103.0000000 magnetization 
 augmentation part      103.0000000 magnetization 

 Free energy of the ion-electron system (eV)
  ---------------------------------------------------
  alpha Z        PSCENC =       143.16131523
  Ewald energy   TEWEN  =     14799.50845524
  -Hartree energ DENC   =    -20056.05615096
  -exchange      EXHF   =         0.00000000
  -V(xc)+E(xc)   XCENC  =      -438.96336404
  PAW double counting   =      4647.26951674    -3871.08436696
  entropy T*S    EENTRO =        -0.00332859
  eigenvalues    EBANDS =      -336.79657350
  atomic energy  EATOM  =      4951.75456612
  ---------------------------------------------------
  free energy    TOTEN  =      -161.20993073 eV

  energy without entropy =     -161.20660213  energy(sigma->0) =     -161.20826643


--------------------------------------------------------------------------------------------------------




----------------------------------------- Iteration    1(   4)  ---------------------------------------


     EDDAV:  cpu time    5.53: real time    5.54
       DOS:  cpu time    0.00: real time    0.00
    --------------------------------------------
      LOOP:  cpu time    5.53: real time    5.54

 eigenvalue-minimisations  :  3216
 total energy-change (2. order) :-0.7624559E+00  (-0.7613371E+00)
 number of electron     103.0000000 magnetization 
 augmentation part      103.0000000 magnetization 

 Free energy of the ion-electron system (eV)
  ---------------------------------------------------
  alpha Z        PSCENC =       143.16131523
  Ewald energy   TEWEN  =     14799.50845524
  -Hartree energ DENC   =    -20056.05615096
  -exchange      EXHF   =         0.00000000
  -V(xc)+E(xc)   XCENC  =      -438.96336404
  PAW double counting   =      4647.26951674    -3871.08436696
  entropy T*S    EENTRO =        -0.00332099
  eigenvalues    EBANDS =      -337.55903696
  atomic energy  EATOM  =      4951.75456612
  ---------------------------------------------------
  free energy    TOTEN  =      -161.97238658 eV

  energy without entropy =     -161.96906559  energy(sigma->0) =     -161.97072609


--------------------------------------------------------------------------------------------------------




----------------------------------------- Iteration    1(   5)  ---------------------------------------


     EDDAV:  cpu time    5.52: real time    5.53
       DOS:  cpu time    0.00: real time    0.00
    CHARGE:  cpu time    0.41: real time    0.41
    MIXING:  cpu time    0.01: real time    0.01
    --------------------------------------------
      LOOP:  cpu time    5.94: real time    5.94

 eigenvalue-minimisations  :  3352
 total energy-change (2. order) :-0.1180819E-01  (-0.1180216E-01)
 number of electron     103.0000001 magnetization 
 augmentation part        7.7479236 magnetization 

 Broyden mixing:
  rms(total) = 0.23088E+01    rms(broyden)= 0.23083E+01
  rms(prec ) = 0.23634E+01
  weight for this iteration     100.00

 Free energy of the ion-electron system (eV)
  ---------------------------------------------------
  alpha Z        PSCENC =       143.16131523
  Ewald energy   TEWEN  =     14799.50845524
  -Hartree energ DENC   =    -20056.05615096
  -exchange      EXHF   =         0.00000000
  -V(xc)+E(xc)   XCENC  =      -438.96336404
  PAW double counting   =      4647.26951674    -3871.08436696
  entropy T*S    EENTRO =        -0.00333504
  eigenvalues    EBANDS =      -337.57083109
  atomic energy  EATOM  =      4951.75456612
  ---------------------------------------------------
  free energy    TOTEN  =      -161.98419477 eV

  energy without entropy =     -161.98085973  energy(sigma->0) =     -161.98252725


--------------------------------------------------------------------------------------------------------




----------------------------------------- Iteration    1(   6)  ---------------------------------------


    POTLOK:  cpu time    0.11: real time    0.11
    SETDIJ:  cpu time    0.11: real time    0.11
     EDDAV:  cpu time    5.24: real time    5.25
       DOS:  cpu time    0.00: real time    0.00
    CHARGE:  cpu time    0.42: real time    0.42
    MIXING:  cpu time    0.01: real time    0.01
    --------------------------------------------
      LOOP:  cpu time    5.88: real time    5.89

 eigenvalue-minimisations  :  3132
 total energy-change (2. order) : 0.1597384E+02  (-0.9208391E+01)
 number of electron     103.0000001 magnetization 
 augmentation part        6.2854219 magnetization 

 Broyden mixing:
  rms(total) = 0.77465E+00    rms(broyden)= 0.77363E+00
  rms(prec ) = 0.78109E+00
  weight for this iteration     100.00

 eigenvalues of (default mixing * dielectric matrix)
  average eigenvalue GAMMA=   0.8456
  0.8456

 Free energy of the ion-electron system (eV)
  ---------------------------------------------------
  alpha Z        PSCENC =       143.16131523
  Ewald energy   TEWEN  =     14799.50845524
  -Hartree energ DENC   =    -20244.95538706
  -exchange      EXHF   =         0.00000000
  -V(xc)+E(xc)   XCENC  =      -425.49292922
  PAW double counting   =      5519.86934844    -4747.19164411
  entropy T*S    EENTRO =        -0.00160788
  eigenvalues    EBANDS =      -142.66246729
  atomic energy  EATOM  =      4951.75456612
  ---------------------------------------------------
  free energy    TOTEN  =      -146.01035053 eV

  energy without entropy =     -146.00874265  energy(sigma->0) =     -146.00954659


--------------------------------------------------------------------------------------------------------




----------------------------------------- Iteration    1(   7)  ---------------------------------------


    POTLOK:  cpu time    0.11: real time    0.11
    SETDIJ:  cpu time    0.12: real time    0.12
     EDDAV:  cpu time    5.13: real time    5.14
       DOS:  cpu time    0.00: real time    0.00
    CHARGE:  cpu time    0.40: real time    0.40
    MIXING:  cpu time    0.01: real time    0.01
    --------------------------------------------
      LOOP:  cpu time    5.77: real time    5.78

 eigenvalue-minimisations  :  3054
 total energy-change (2. order) : 0.1347031E+00  (-0.1642684E+00)
 number of electron     103.0000001 magnetization 
 augmentation part        6.3254232 magnetization 

 Broyden mixing:
  rms(total) = 0.47461E+00    rms(broyden)= 0.47459E+00
  rms(prec ) = 0.47970E+00
  weight for this iteration     100.00

 eigenvalues of (default mixing * dielectric matrix)
  average eigenvalue GAMMA=   1.6413
  0.9773  2.3053

 Free energy of the ion-electron system (eV)
  ---------------------------------------------------
  alpha Z        PSCENC =       143.16131523
  Ewald energy   TEWEN  =     14799.50845524
  -Hartree energ DENC   =    -20243.29690120
  -exchange      EXHF   =         0.00000000
  -V(xc)+E(xc)   XCENC  =      -425.03520079
  PAW double counting   =      5833.46718525    -5060.34906034
  entropy T*S    EENTRO =        -0.00143636
  eigenvalues    EBANDS =      -145.08457058
  atomic energy  EATOM  =      4951.75456612
  ---------------------------------------------------
  free energy    TOTEN  =      -145.87564745 eV

  energy without entropy =     -145.87421108  energy(sigma->0) =     -145.87492927


--------------------------------------------------------------------------------------------------------




----------------------------------------- Iteration    1(   8)  ---------------------------------------


    POTLOK:  cpu time    0.11: real time    0.11
    SETDIJ:  cpu time    0.11: real time    0.11
     EDDAV:  cpu time    5.41: real time    5.42
       DOS:  cpu time    0.00: real time    0.00
    CHARGE:  cpu time    0.40: real time    0.40
    MIXING:  cpu time    0.01: real time    0.01
    --------------------------------------------
      LOOP:  cpu time    6.04: real time    6.04

 eigenvalue-minimisations  :  3266
 total energy-change (2. order) : 0.1103379E+00  (-0.4974215E-01)
 number of electron     103.0000001 magnetization 
 augmentation part        6.3731692 magnetization 

 Broyden mixing:
  rms(total) = 0.76692E-01    rms(broyden)= 0.76647E-01
  rms(prec ) = 0.84684E-01
  weight for this iteration     100.00

 eigenvalues of (default mixing * dielectric matrix)
  average eigenvalue GAMMA=   1.4004
  2.4436  0.8788  0.8788

 Free energy of the ion-electron system (eV)
  ---------------------------------------------------
  alpha Z        PSCENC =       143.16131523
  Ewald energy   TEWEN  =     14799.50845524
  -Hartree energ DENC   =    -20248.80910604
  -exchange      EXHF   =         0.00000000
  -V(xc)+E(xc)   XCENC  =      -423.39364299
  PAW double counting   =      6377.28835162    -5603.85974544
  entropy T*S    EENTRO =        -0.00123892
  eigenvalues    EBANDS =      -141.41426441
  atomic energy  EATOM  =      4951.75456612
  ---------------------------------------------------
  free energy    TOTEN  =      -145.76530959 eV

  energy without entropy =     -145.76407067  energy(sigma->0) =     -145.76469013


--------------------------------------------------------------------------------------------------------




----------------------------------------- Iteration    1(   9)  ---------------------------------------


    POTLOK:  cpu time    0.11: real time    0.11
    SETDIJ:  cpu time    0.11: real time    0.11
     EDDAV:  cpu time    5.29: real time    5.30
       DOS:  cpu time    0.00: real time    0.00
    CHARGE:  cpu time    0.41: real time    0.41
    MIXING:  cpu time    0.01: real time    0.01
    --------------------------------------------
      LOOP:  cpu time    5.92: real time    5.93

 eigenvalue-minimisations  :  3166
 total energy-change (2. order) : 0.1199817E-01  (-0.1049243E-01)
 number of electron     103.0000001 magnetization 
 augmentation part        6.3528405 magnetization 

 Broyden mixing:
  rms(total) = 0.49896E-01    rms(broyden)= 0.49895E-01
  rms(prec ) = 0.51150E-01
  weight for this iteration     100.00

 eigenvalues of (default mixing * dielectric matrix)
  average eigenvalue GAMMA=   1.4049
  2.4364  1.0509  1.0509  1.0815

 Free energy of the ion-electron system (eV)
  ---------------------------------------------------
  alpha Z        PSCENC =       143.16131523
  Ewald energy   TEWEN  =     14799.50845524
  -Hartree energ DENC   =    -20252.66801239
  -exchange      EXHF   =         0.00000000
  -V(xc)+E(xc)   XCENC  =      -422.99836450
  PAW double counting   =      6401.86325834    -5628.48408712
  entropy T*S    EENTRO =        -0.00133101
  eigenvalues    EBANDS =      -137.88911132
  atomic energy  EATOM  =      4951.75456612
  ---------------------------------------------------
  free energy    TOTEN  =      -145.75331142 eV

  energy without entropy =     -145.75198041  energy(sigma->0) =     -145.75264592


--------------------------------------------------------------------------------------------------------




----------------------------------------- Iteration    1(  10)  ---------------------------------------


    POTLOK:  cpu time    0.11: real time    0.11
    SETDIJ:  cpu time    0.11: real time    0.11
     EDDAV:  cpu time    5.34: real time    5.34
       DOS:  cpu time    0.00: real time    0.00
    CHARGE:  cpu time    0.40: real time    0.40
    MIXING:  cpu time    0.01: real time    0.01
    --------------------------------------------
      LOOP:  cpu time    5.96: real time    5.97

 eigenvalue-minimisations  :  3200
 total energy-change (2. order) : 0.1461579E-02  (-0.2891911E-02)
 number of electron     103.0000001 magnetization 
 augmentation part        6.3383100 magnetization 

 Broyden mixing:
  rms(total) = 0.24678E-01    rms(broyden)= 0.24663E-01
  rms(prec ) = 0.25335E-01
  weight for this iteration     100.00

 eigenvalues of (default mixing * dielectric matrix)
  average eigenvalue GAMMA=   1.3557
  2.4795  2.0275  0.9333  0.9333  0.4051

 Free energy of the ion-electron system (eV)
  ---------------------------------------------------
  alpha Z        PSCENC =       143.16131523
  Ewald energy   TEWEN  =     14799.50845524
  -Hartree energ DENC   =    -20253.74616101
  -exchange      EXHF   =         0.00000000
  -V(xc)+E(xc)   XCENC  =      -422.86827712
  PAW double counting   =      6387.34285795    -5613.98806546
  entropy T*S    EENTRO =        -0.00133528
  eigenvalues    EBANDS =      -136.91520551
  atomic energy  EATOM  =      4951.75456612
  ---------------------------------------------------
  free energy    TOTEN  =      -145.75184984 eV

  energy without entropy =     -145.75051456  energy(sigma->0) =     -145.75118220


--------------------------------------------------------------------------------------------------------




----------------------------------------- Iteration    1(  11)  ---------------------------------------


    POTLOK:  cpu time    0.10: real time    0.11
    SETDIJ:  cpu time    0.11: real time    0.11
     EDDAV:  cpu time    5.23: real time    5.24
       DOS:  cpu time    0.00: real time    0.00
    CHARGE:  cpu time    0.40: real time    0.41
    MIXING:  cpu time    0.00: real time    0.00
    --------------------------------------------
      LOOP:  cpu time    5.86: real time    5.86

 eigenvalue-minimisations  :  3134
 total energy-change (2. order) :-0.7667639E-03  (-0.4011423E-03)
 number of electron     103.0000001 magnetization 
 augmentation part        6.3388432 magnetization 

 Broyden mixing:
  rms(total) = 0.15876E-01    rms(broyden)= 0.15874E-01
  rms(prec ) = 0.16677E-01
  weight for this iteration     100.00

 eigenvalues of (default mixing * dielectric matrix)
  average eigenvalue GAMMA=   1.4224
  2.7721  2.2592  0.8822  0.8822  1.0017  0.7372

 Free energy of the ion-electron system (eV)
  ---------------------------------------------------
  alpha Z        PSCENC =       143.16131523
  Ewald energy   TEWEN  =     14799.50845524
  -Hartree energ DENC   =    -20253.64903744
  -exchange      EXHF   =         0.00000000
  -V(xc)+E(xc)   XCENC  =      -422.80469760
  PAW double counting   =      6362.84326447    -5589.49395658
  entropy T*S    EENTRO =        -0.00133802
  eigenvalues    EBANDS =      -137.07118803
  atomic energy  EATOM  =      4951.75456612
  ---------------------------------------------------
  free energy    TOTEN  =      -145.75261661 eV

  energy without entropy =     -145.75127859  energy(sigma->0) =     -145.75194760


--------------------------------------------------------------------------------------------------------




----------------------------------------- Iteration    1(  12)  ---------------------------------------


    POTLOK:  cpu time    0.11: real time    0.11
    SETDIJ:  cpu time    0.11: real time    0.11
     EDDAV:  cpu time    5.73: real time    5.74
       DOS:  cpu time    0.00: real time    0.00
    CHARGE:  cpu time    0.40: real time    0.40
    MIXING:  cpu time    0.00: real time    0.00
    --------------------------------------------
      LOOP:  cpu time    6.35: real time    6.36

 eigenvalue-minimisations  :  3536
 total energy-change (2. order) : 0.2435417E-03  (-0.1451946E-03)
 number of electron     103.0000001 magnetization 
 augmentation part        6.3367187 magnetization 

 Broyden mixing:
  rms(total) = 0.64550E-02    rms(broyden)= 0.64541E-02
  rms(prec ) = 0.77066E-02
  weight for this iteration     100.00

 eigenvalues of (default mixing * dielectric matrix)
  average eigenvalue GAMMA=   1.4166
  2.8286  2.4950  1.0571  1.0571  0.8870  0.8870  0.7046

 Free energy of the ion-electron system (eV)
  ---------------------------------------------------
  alpha Z        PSCENC =       143.16131523
  Ewald energy   TEWEN  =     14799.50845524
  -Hartree energ DENC   =    -20253.54928713
  -exchange      EXHF   =         0.00000000
  -V(xc)+E(xc)   XCENC  =      -422.74378633
  PAW double counting   =      6341.94705924    -5568.61334627
  entropy T*S    EENTRO =        -0.00133469
  eigenvalues    EBANDS =      -137.21601446
  atomic energy  EATOM  =      4951.75456612
  ---------------------------------------------------
  free energy    TOTEN  =      -145.75237307 eV

  energy without entropy =     -145.75103837  energy(sigma->0) =     -145.75170572


--------------------------------------------------------------------------------------------------------




----------------------------------------- Iteration    1(  13)  ---------------------------------------


    POTLOK:  cpu time    0.10: real time    0.10
    SETDIJ:  cpu time    0.11: real time    0.11
     EDDAV:  cpu time    5.33: real time    5.34
       DOS:  cpu time    0.00: real time    0.00
    CHARGE:  cpu time    0.41: real time    0.41
    MIXING:  cpu time    0.01: real time    0.01
    --------------------------------------------
      LOOP:  cpu time    5.96: real time    5.97

 eigenvalue-minimisations  :  3184
 total energy-change (2. order) : 0.9551174E-04  (-0.1630333E-03)
 number of electron     103.0000001 magnetization 
 augmentation part        6.3408137 magnetization 

 Broyden mixing:
  rms(total) = 0.51480E-02    rms(broyden)= 0.51438E-02
  rms(prec ) = 0.61377E-02
  weight for this iteration     100.00

 eigenvalues of (default mixing * dielectric matrix)
  average eigenvalue GAMMA=   1.2745
  2.8531  2.5041  1.0442  1.0442  0.8872  0.8872  0.6981  0.2776

 Free energy of the ion-electron system (eV)
  ---------------------------------------------------
  alpha Z        PSCENC =       143.16131523
  Ewald energy   TEWEN  =     14799.50845524
  -Hartree energ DENC   =    -20252.80793868
  -exchange      EXHF   =         0.00000000
  -V(xc)+E(xc)   XCENC  =      -422.77366379
  PAW double counting   =      6334.13015800    -5560.79000181
  entropy T*S    EENTRO =        -0.00132702
  eigenvalues    EBANDS =      -137.93384084
  atomic energy  EATOM  =      4951.75456612
  ---------------------------------------------------
  free energy    TOTEN  =      -145.75227755 eV

  energy without entropy =     -145.75095053  energy(sigma->0) =     -145.75161404


--------------------------------------------------------------------------------------------------------




----------------------------------------- Iteration    1(  14)  ---------------------------------------


    POTLOK:  cpu time    0.10: real time    0.10
    SETDIJ:  cpu time    0.11: real time    0.11
     EDDAV:  cpu time    5.66: real time    5.67
       DOS:  cpu time    0.00: real time    0.00
    CHARGE:  cpu time    0.40: real time    0.40
    MIXING:  cpu time    0.01: real time    0.01
    --------------------------------------------
      LOOP:  cpu time    6.28: real time    6.29

 eigenvalue-minimisations  :  3526
 total energy-change (2. order) : 0.8702734E-04  (-0.1330803E-04)
 number of electron     103.0000001 magnetization 
 augmentation part        6.3409785 magnetization 

 Broyden mixing:
  rms(total) = 0.37428E-02    rms(broyden)= 0.37426E-02
  rms(prec ) = 0.48326E-02
  weight for this iteration     100.00

 eigenvalues of (default mixing * dielectric matrix)
  average eigenvalue GAMMA=   1.3619
  2.8688  2.5651  1.0323  1.0323  1.1609  1.1609  0.7006  0.8679  0.8679

 Free energy of the ion-electron system (eV)
  ---------------------------------------------------
  alpha Z        PSCENC =       143.16131523
  Ewald energy   TEWEN  =     14799.50845524
  -Hartree energ DENC   =    -20252.66465335
  -exchange      EXHF   =         0.00000000
  -V(xc)+E(xc)   XCENC  =      -422.77388310
  PAW double counting   =      6332.68834263    -5559.34802801
  entropy T*S    EENTRO =        -0.00132522
  eigenvalues    EBANDS =      -138.07698007
  atomic energy  EATOM  =      4951.75456612
  ---------------------------------------------------
  free energy    TOTEN  =      -145.75219053 eV

  energy without entropy =     -145.75086530  energy(sigma->0) =     -145.75152792


--------------------------------------------------------------------------------------------------------




----------------------------------------- Iteration    1(  15)  ---------------------------------------


    POTLOK:  cpu time    0.10: real time    0.10
    SETDIJ:  cpu time    0.11: real time    0.11
     EDDAV:  cpu time    6.49: real time    6.50
       DOS:  cpu time    0.00: real time    0.00
    CHARGE:  cpu time    0.41: real time    0.41
    MIXING:  cpu time    0.01: real time    0.01
    --------------------------------------------
      LOOP:  cpu time    7.12: real time    7.13

 eigenvalue-minimisations  :  4164
 total energy-change (2. order) : 0.1230405E-03  (-0.1698105E-04)
 number of electron     103.0000001 magnetization 
 augmentation part        6.3410605 magnetization 

 Broyden mixing:
  rms(total) = 0.19824E-02    rms(broyden)= 0.19818E-02
  rms(prec ) = 0.32059E-02
  weight for this iteration     100.00

 eigenvalues of (default mixing * dielectric matrix)
  average eigenvalue GAMMA=   1.4043
  3.0044  2.4097  2.4097  0.9843  0.9843  1.0152  1.0152  0.7136  0.7534  0.7534

 Free energy of the ion-electron system (eV)
  ---------------------------------------------------
  alpha Z        PSCENC =       143.16131523
  Ewald energy   TEWEN  =     14799.50845524
  -Hartree energ DENC   =    -20252.33394927
  -exchange      EXHF   =         0.00000000
  -V(xc)+E(xc)   XCENC  =      -422.77594080
  PAW double counting   =      6331.78748582    -5558.44597537
  entropy T*S    EENTRO =        -0.00132114
  eigenvalues    EBANDS =      -138.40670331
  atomic energy  EATOM  =      4951.75456612
  ---------------------------------------------------
  free energy    TOTEN  =      -145.75206749 eV

  energy without entropy =     -145.75074635  energy(sigma->0) =     -145.75140692


--------------------------------------------------------------------------------------------------------




----------------------------------------- Iteration    1(  16)  ---------------------------------------


    POTLOK:  cpu time    0.11: real time    0.11
    SETDIJ:  cpu time    0.12: real time    0.12
     EDDAV:  cpu time    6.38: real time    6.39
       DOS:  cpu time    0.00: real time    0.00
    CHARGE:  cpu time    0.40: real time    0.40
    MIXING:  cpu time    0.01: real time    0.01
    --------------------------------------------
      LOOP:  cpu time    7.03: real time    7.04

 eigenvalue-minimisations  :  3978
 total energy-change (2. order) : 0.8332961E-04  (-0.2729238E-04)
 number of electron     103.0000001 magnetization 
 augmentation part        6.3400819 magnetization 

 Broyden mixing:
  rms(total) = 0.25631E-02    rms(broyden)= 0.25621E-02
  rms(prec ) = 0.32836E-02
  weight for this iteration     100.00

 eigenvalues of (default mixing * dielectric matrix)
  average eigenvalue GAMMA=   1.3839
  2.6663  2.6663  2.5041  1.0432  1.0432  1.1191  0.9280  0.9280  0.7056  0.8097
  0.8097

 Free energy of the ion-electron system (eV)
  ---------------------------------------------------
  alpha Z        PSCENC =       143.16131523
  Ewald energy   TEWEN  =     14799.50845524
  -Hartree energ DENC   =    -20252.08196371
  -exchange      EXHF   =         0.00000000
  -V(xc)+E(xc)   XCENC  =      -422.76874441
  PAW double counting   =      6332.62048402    -5559.27982355
  entropy T*S    EENTRO =        -0.00131736
  eigenvalues    EBANDS =      -138.66495573
  atomic energy  EATOM  =      4951.75456612
  ---------------------------------------------------
  free energy    TOTEN  =      -145.75198416 eV

  energy without entropy =     -145.75066679  energy(sigma->0) =     -145.75132547


--------------------------------------------------------------------------------------------------------




----------------------------------------- Iteration    1(  17)  ---------------------------------------


    POTLOK:  cpu time    0.10: real time    0.11
    SETDIJ:  cpu time    0.11: real time    0.11
     EDDAV:  cpu time    5.46: real time    5.47
       DOS:  cpu time    0.00: real time    0.00
    CHARGE:  cpu time    0.41: real time    0.41
    MIXING:  cpu time    0.01: real time    0.01
    --------------------------------------------
      LOOP:  cpu time    6.09: real time    6.10

 eigenvalue-minimisations  :  3320
 total energy-change (2. order) : 0.5358725E-04  (-0.1136598E-04)
 number of electron     103.0000001 magnetization 
 augmentation part        6.3405334 magnetization 

 Broyden mixing:
  rms(total) = 0.12791E-02    rms(broyden)= 0.12789E-02
  rms(prec ) = 0.21289E-02
  weight for this iteration     100.00

 eigenvalues of (default mixing * dielectric matrix)
  average eigenvalue GAMMA=   1.4958
  3.7496  2.8823  2.4193  1.2899  1.2899  1.2531  0.8397  0.8397  0.9460  0.9460
  0.7293  0.7649

 Free energy of the ion-electron system (eV)
  ---------------------------------------------------
  alpha Z        PSCENC =       143.16131523
  Ewald energy   TEWEN  =     14799.50845524
  -Hartree energ DENC   =    -20251.82405670
  -exchange      EXHF   =         0.00000000
  -V(xc)+E(xc)   XCENC  =      -422.77095773
  PAW double counting   =      6333.24132081    -5559.89996934
  entropy T*S    EENTRO =        -0.00131465
  eigenvalues    EBANDS =      -138.92128953
  atomic energy  EATOM  =      4951.75456612
  ---------------------------------------------------
  free energy    TOTEN  =      -145.75193057 eV

  energy without entropy =     -145.75061592  energy(sigma->0) =     -145.75127324


--------------------------------------------------------------------------------------------------------




----------------------------------------- Iteration    1(  18)  ---------------------------------------


    POTLOK:  cpu time    0.11: real time    0.11
    SETDIJ:  cpu time    0.11: real time    0.11
     EDDAV:  cpu time    5.37: real time    5.38
       DOS:  cpu time    0.00: real time    0.00
    CHARGE:  cpu time    0.41: real time    0.41
    MIXING:  cpu time    0.01: real time    0.01
    --------------------------------------------
      LOOP:  cpu time    6.00: real time    6.01

 eigenvalue-minimisations  :  3236
 total energy-change (2. order) : 0.5997139E-04  (-0.9972441E-05)
 number of electron     103.0000001 magnetization 
 augmentation part        6.3408360 magnetization 

 Broyden mixing:
  rms(total) = 0.21812E-02    rms(broyden)= 0.21808E-02
  rms(prec ) = 0.25562E-02
  weight for this iteration     100.00

 eigenvalues of (default mixing * dielectric matrix)
  average eigenvalue GAMMA=   1.5983
  5.5343  2.8428  2.4059  1.7174  1.0721  1.0721  1.1448  0.8537  0.8537  0.9162
  0.9162  0.7242  0.7242

 Free energy of the ion-electron system (eV)
  ---------------------------------------------------
  alpha Z        PSCENC =       143.16131523
  Ewald energy   TEWEN  =     14799.50845524
  -Hartree energ DENC   =    -20251.39553817
  -exchange      EXHF   =         0.00000000
  -V(xc)+E(xc)   XCENC  =      -422.77185228
  PAW double counting   =      6333.32716082    -5559.98556237
  entropy T*S    EENTRO =        -0.00131109
  eigenvalues    EBANDS =      -139.34910410
  atomic energy  EATOM  =      4951.75456612
  ---------------------------------------------------
  free energy    TOTEN  =      -145.75187060 eV

  energy without entropy =     -145.75055951  energy(sigma->0) =     -145.75121505


--------------------------------------------------------------------------------------------------------




----------------------------------------- Iteration    1(  19)  ---------------------------------------


    POTLOK:  cpu time    0.11: real time    0.11
    SETDIJ:  cpu time    0.11: real time    0.11
     EDDAV:  cpu time    6.67: real time    6.68
       DOS:  cpu time    0.00: real time    0.00
    CHARGE:  cpu time    0.41: real time    0.41
    MIXING:  cpu time    0.01: real time    0.01
    --------------------------------------------
      LOOP:  cpu time    7.30: real time    7.31

 eigenvalue-minimisations  :  4294
 total energy-change (2. order) : 0.4283708E-04  (-0.5512614E-05)
 number of electron     103.0000001 magnetization 
 augmentation part        6.3407973 magnetization 

 Broyden mixing:
  rms(total) = 0.15070E-02    rms(broyden)= 0.15069E-02
  rms(prec ) = 0.18378E-02
  weight for this iteration     100.00

 eigenvalues of (default mixing * dielectric matrix)
  average eigenvalue GAMMA=   1.5980
  5.7852  2.9100  2.3989  2.0915  1.1408  1.1408  1.2420  0.9980  0.8247  0.8247
  0.8042  0.8042  0.7362  0.6712

 Free energy of the ion-electron system (eV)
  ---------------------------------------------------
  alpha Z        PSCENC =       143.16131523
  Ewald energy   TEWEN  =     14799.50845524
  -Hartree energ DENC   =    -20251.14313299
  -exchange      EXHF   =         0.00000000
  -V(xc)+E(xc)   XCENC  =      -422.76892249
  PAW double counting   =      6333.16466663    -5559.82346986
  entropy T*S    EENTRO =        -0.00130978
  eigenvalues    EBANDS =      -139.60399586
  atomic energy  EATOM  =      4951.75456612
  ---------------------------------------------------
  free energy    TOTEN  =      -145.75182776 eV

  energy without entropy =     -145.75051798  energy(sigma->0) =     -145.75117287


--------------------------------------------------------------------------------------------------------




----------------------------------------- Iteration    1(  20)  ---------------------------------------


    POTLOK:  cpu time    0.10: real time    0.11
    SETDIJ:  cpu time    0.11: real time    0.11
     EDDAV:  cpu time    7.02: real time    7.03
       DOS:  cpu time    0.00: real time    0.00
    CHARGE:  cpu time    0.40: real time    0.40
    MIXING:  cpu time    0.01: real time    0.01
    --------------------------------------------
      LOOP:  cpu time    7.64: real time    7.66

 eigenvalue-minimisations  :  4452
 total energy-change (2. order) : 0.3978545E-04  (-0.1100836E-04)
 number of electron     103.0000001 magnetization 
 augmentation part        6.3405445 magnetization 

 Broyden mixing:
  rms(total) = 0.70202E-03    rms(broyden)= 0.70134E-03
  rms(prec ) = 0.10035E-02
  weight for this iteration     100.00

 eigenvalues of (default mixing * dielectric matrix)
  average eigenvalue GAMMA=   1.6893
  6.8562  3.1058  2.5439  2.4678  1.2125  1.2125  1.3524  1.0384  0.8323  0.8323
  0.8690  0.8690  0.7330  0.7330  0.6817

 Free energy of the ion-electron system (eV)
  ---------------------------------------------------
  alpha Z        PSCENC =       143.16131523
  Ewald energy   TEWEN  =     14799.50845524
  -Hartree energ DENC   =    -20250.87716656
  -exchange      EXHF   =         0.00000000
  -V(xc)+E(xc)   XCENC  =      -422.76537911
  PAW double counting   =      6333.76251642    -5560.42235100
  entropy T*S    EENTRO =        -0.00130917
  eigenvalues    EBANDS =      -139.87243513
  atomic energy  EATOM  =      4951.75456612
  ---------------------------------------------------
  free energy    TOTEN  =      -145.75178798 eV

  energy without entropy =     -145.75047880  energy(sigma->0) =     -145.75113339


--------------------------------------------------------------------------------------------------------




----------------------------------------- Iteration    1(  21)  ---------------------------------------


    POTLOK:  cpu time    0.11: real time    0.11
    SETDIJ:  cpu time    0.11: real time    0.11
     EDDAV:  cpu time    6.25: real time    6.26
       DOS:  cpu time    0.00: real time    0.00
    CHARGE:  cpu time    0.40: real time    0.40
    MIXING:  cpu time    0.01: real time    0.01
    --------------------------------------------
      LOOP:  cpu time    6.88: real time    6.89

 eigenvalue-minimisations  :  3934
 total energy-change (2. order) : 0.1446730E-04  (-0.1000691E-04)
 number of electron     103.0000001 magnetization 
 augmentation part        6.3401971 magnetization 

 Broyden mixing:
  rms(total) = 0.13190E-02    rms(broyden)= 0.13187E-02
  rms(prec ) = 0.13949E-02
  weight for this iteration     100.00

 eigenvalues of (default mixing * dielectric matrix)
  average eigenvalue GAMMA=   1.6942
  7.5508  3.2031  2.6874  2.4597  1.2605  1.2605  1.2420  1.1408  0.8682  0.8682
  0.8766  0.8766  0.7778  0.7778  0.7101  0.5463

 Free energy of the ion-electron system (eV)
  ---------------------------------------------------
  alpha Z        PSCENC =       143.16131523
  Ewald energy   TEWEN  =     14799.50845524
  -Hartree energ DENC   =    -20250.65719805
  -exchange      EXHF   =         0.00000000
  -V(xc)+E(xc)   XCENC  =      -422.76223558
  PAW double counting   =      6334.15799771    -5560.81917630
  entropy T*S    EENTRO =        -0.00130811
  eigenvalues    EBANDS =      -140.09418977
  atomic energy  EATOM  =      4951.75456612
  ---------------------------------------------------
  free energy    TOTEN  =      -145.75177351 eV

  energy without entropy =     -145.75046540  energy(sigma->0) =     -145.75111945


--------------------------------------------------------------------------------------------------------




----------------------------------------- Iteration    1(  22)  ---------------------------------------


    POTLOK:  cpu time    0.10: real time    0.10
    SETDIJ:  cpu time    0.11: real time    0.11
     EDDAV:  cpu time    5.30: real time    5.31
       DOS:  cpu time    0.00: real time    0.00
    CHARGE:  cpu time    0.42: real time    0.42
    MIXING:  cpu time    0.01: real time    0.01
    --------------------------------------------
      LOOP:  cpu time    5.94: real time    5.95

 eigenvalue-minimisations  :  3174
 total energy-change (2. order) : 0.2884029E-05  (-0.7985188E-05)
 number of electron     103.0000001 magnetization 
 augmentation part        6.3402305 magnetization 

 Broyden mixing:
  rms(total) = 0.99056E-03    rms(broyden)= 0.99044E-03
  rms(prec ) = 0.10349E-02
  weight for this iteration     100.00

 eigenvalues of (default mixing * dielectric matrix)
  average eigenvalue GAMMA=   1.7049
  8.2244  2.9751  2.8789  2.3951  1.3416  1.3416  1.1700  1.1700  1.0493  0.8343
  0.8343  0.8586  0.8586  0.8396  0.8396  0.7172  0.6557

 Free energy of the ion-electron system (eV)
  ---------------------------------------------------
  alpha Z        PSCENC =       143.16131523
  Ewald energy   TEWEN  =     14799.50845524
  -Hartree energ DENC   =    -20250.56533285
  -exchange      EXHF   =         0.00000000
  -V(xc)+E(xc)   XCENC  =      -422.76364090
  PAW double counting   =      6333.91088898    -5560.57172601
  entropy T*S    EENTRO =        -0.00130750
  eigenvalues    EBANDS =      -140.18498893
  atomic energy  EATOM  =      4951.75456612
  ---------------------------------------------------
  free energy    TOTEN  =      -145.75177062 eV

  energy without entropy =     -145.75046312  energy(sigma->0) =     -145.75111687


--------------------------------------------------------------------------------------------------------




----------------------------------------- Iteration    1(  23)  ---------------------------------------


    POTLOK:  cpu time    0.11: real time    0.11
    SETDIJ:  cpu time    0.11: real time    0.11
     EDDAV:  cpu time    5.13: real time    5.14
       DOS:  cpu time    0.00: real time    0.00
    CHARGE:  cpu time    0.40: real time    0.40
    MIXING:  cpu time    0.01: real time    0.01
    --------------------------------------------
      LOOP:  cpu time    5.76: real time    5.77

 eigenvalue-minimisations  :  3046
 total energy-change (2. order) : 0.1801102E-05  (-0.1556059E-05)
 number of electron     103.0000001 magnetization 
 augmentation part        6.3403711 magnetization 

 Broyden mixing:
  rms(total) = 0.73253E-03    rms(broyden)= 0.73247E-03
  rms(prec ) = 0.77079E-03
  weight for this iteration     100.00

 eigenvalues of (default mixing * dielectric matrix)
  average eigenvalue GAMMA=   1.7908
  9.5420  3.2911  2.7958  2.3933  1.5327  1.5327  1.1763  1.1763  1.1771  1.1771
  0.8536  0.8536  0.9688  0.8629  0.8629  0.7473  0.6973  0.5934

 Free energy of the ion-electron system (eV)
  ---------------------------------------------------
  alpha Z        PSCENC =       143.16131523
  Ewald energy   TEWEN  =     14799.50845524
  -Hartree energ DENC   =    -20250.54862573
  -exchange      EXHF   =         0.00000000
  -V(xc)+E(xc)   XCENC  =      -422.76434586
  PAW double counting   =      6333.87027683    -5560.53084322
  entropy T*S    EENTRO =        -0.00130752
  eigenvalues    EBANDS =      -140.20125991
  atomic energy  EATOM  =      4951.75456612
  ---------------------------------------------------
  free energy    TOTEN  =      -145.75176882 eV

  energy without entropy =     -145.75046130  energy(sigma->0) =     -145.75111506


--------------------------------------------------------------------------------------------------------




----------------------------------------- Iteration    1(  24)  ---------------------------------------


    POTLOK:  cpu time    0.10: real time    0.10
    SETDIJ:  cpu time    0.11: real time    0.11
     EDDAV:  cpu time    4.95: real time    4.96
       DOS:  cpu time    0.00: real time    0.00
    CHARGE:  cpu time    0.41: real time    0.41
    MIXING:  cpu time    0.01: real time    0.01
    --------------------------------------------
      LOOP:  cpu time    5.59: real time    5.59

 eigenvalue-minimisations  :  2918
 total energy-change (2. order) : 0.3380263E-05  (-0.9041847E-06)
 number of electron     103.0000001 magnetization 
 augmentation part        6.3404416 magnetization 

 Broyden mixing:
  rms(total) = 0.41585E-03    rms(broyden)= 0.41565E-03
  rms(prec ) = 0.44529E-03
  weight for this iteration     100.00

 eigenvalues of (default mixing * dielectric matrix)
  average eigenvalue GAMMA=   2.1752
 15.3275  4.9892  2.6622  2.5788  1.8283  1.8283  1.2202  1.2202  1.3484  0.8898
  0.8898  1.0735  0.8308  0.8308  0.8403  0.8403  0.8013  0.7120  0.6171

 Free energy of the ion-electron system (eV)
  ---------------------------------------------------
  alpha Z        PSCENC =       143.16131523
  Ewald energy   TEWEN  =     14799.50845524
  -Hartree energ DENC   =    -20250.50138745
  -exchange      EXHF   =         0.00000000
  -V(xc)+E(xc)   XCENC  =      -422.76535557
  PAW double counting   =      6333.97854540    -5560.63916452
  entropy T*S    EENTRO =        -0.00130752
  eigenvalues    EBANDS =      -140.24743238
  atomic energy  EATOM  =      4951.75456612
  ---------------------------------------------------
  free energy    TOTEN  =      -145.75176544 eV

  energy without entropy =     -145.75045793  energy(sigma->0) =     -145.75111169


--------------------------------------------------------------------------------------------------------




----------------------------------------- Iteration    1(  25)  ---------------------------------------


    POTLOK:  cpu time    0.11: real time    0.11
    SETDIJ:  cpu time    0.11: real time    0.11
     EDDAV:  cpu time    4.42: real time    4.43
       DOS:  cpu time    0.00: real time    0.00
    CHARGE:  cpu time    0.40: real time    0.40
    MIXING:  cpu time    0.01: real time    0.01
    --------------------------------------------
      LOOP:  cpu time    5.05: real time    5.05

[...]
     17      -0.5258      2.00000
     18      -0.4437      2.00000
     19      -0.3069      2.00000
     20      -0.1636      2.00000
     21       0.2301      2.00000
     22       0.3619      2.00000
     23       0.4986      2.00000
     24       0.6452      2.00000
     25       0.8232      2.00000
     26       0.8324      2.00000
     27       0.9166      2.00000
     28       0.9619      2.00000
     29       0.9818      2.00000
     30       1.0507      2.00000
     31       1.1728      2.00000
     32       1.2510      2.00000
     33       1.2719      2.00000
     34       1.3620      2.00000
     35       1.4460      2.00000
     36       1.6098      2.00000
     37       1.7383      2.00000
     38       1.7956      2.00000
     39       1.8544      2.00000
     40       1.8965      2.00000
     41       1.9685      2.00000
     42       2.0534      2.00000
     43       2.1550      2.00000
     44       2.6025      2.00000
     45       3.5181      2.00000
     46       4.2104      2.00000
     47       4.5242      2.00000
     48       4.5352      2.00000
     49       5.0309      2.00000
     50       5.5906      2.00000
     51       5.7964      2.00000
     52       5.8913      2.00000
     53       6.0923      2.00000
     54       6.5477      1.99991
     55       6.7670      0.02291
     56       6.9759      0.00000
     57       7.4180      0.00000
     58       7.8489      0.00000
     59       8.3256      0.00000
     60       8.6793      0.00000
     61       8.9136      0.00000
     62       9.4937      0.00000
     63       9.7863      0.00000
     64      10.1201      0.00000
     65      10.7135      0.00000
     66      11.0673      0.00000

 k-point    20 :       0.3846    0.2308   -0.0000
  band No.  band energies     occupation 
      1     -12.8439      2.00000
      2     -12.8381      2.00000
      3     -12.8190      2.00000
      4     -12.8055      2.00000
      5     -12.7897      2.00000
      6     -12.7704      2.00000
      7     -12.7503      2.00000
      8     -12.7308      2.00000
      9     -12.7131      2.00000
     10     -12.6938      2.00000
     11      -0.9733      2.00000
     12      -0.8917      2.00000
     13      -0.7535      2.00000
     14      -0.5879      2.00000
     15      -0.5204      2.00000
     16      -0.5032      2.00000
     17      -0.4655      2.00000
     18      -0.4475      2.00000
     19      -0.4088      2.00000
     20      -0.3848      2.00000
     21       0.4130      2.00000
     22       0.4478      2.00000
     23       0.4904      2.00000
     24       0.5056      2.00000
     25       0.5743      2.00000
     26       0.5903      2.00000
     27       0.6360      2.00000
     28       0.7914      2.00000
     29       0.9528      2.00000
     30       1.1181      2.00000
     31       1.3688      2.00000
     32       1.3792      2.00000
     33       1.5773      2.00000
     34       1.5905      2.00000
     35       1.7032      2.00000
     36       1.7132      2.00000
     37       1.8589      2.00000
     38       1.9605      2.00000
     39       2.0218      2.00000
     40       2.0279      2.00000
     41       2.4728      2.00000
     42       2.4743      2.00000
     43       2.7931      2.00000
     44       2.8027      2.00000
     45       3.3037      2.00000
     46       3.3468      2.00000
     47       4.0426      2.00000
     48       4.0511      2.00000
     49       4.8147      2.00000
     50       5.1314      2.00000
     51       5.6803      2.00000
     52       5.8481      2.00000
     53       5.9854      2.00000
     54       6.1618      2.00000
     55       6.5559      1.99978
     56       7.0028      0.00000
     57       7.1319      0.00000
     58       7.5952      0.00000
     59       8.1426      0.00000
     60       8.3982      0.00000
     61       8.5794      0.00000
     62       9.2091      0.00000
     63      10.0299      0.00000
     64      10.1262      0.00000
     65      10.2724      0.00000
     66      11.2663      0.00000

 k-point    21 :       0.3077    0.3077   -0.0000
  band No.  band energies     occupation 
      1     -12.8143      2.00000
      2     -12.8102      2.00000
      3     -12.7887      2.00000
      4     -12.7770      2.00000
      5     -12.7671      2.00000
      6     -12.7533      2.00000
      7     -12.7394      2.00000
      8     -12.7259      2.00000
      9     -12.7128      2.00000
     10     -12.6977      2.00000
     11      -0.6196      2.00000
     12      -0.6166      2.00000
     13      -0.5503      2.00000
     14      -0.5412      2.00000
     15      -0.4373      2.00000
     16      -0.4269      2.00000
     17      -0.3114      2.00000
     18      -0.2229      2.00000
     19      -0.1712      2.00000
     20      -0.1182      2.00000
     21      -0.0059      2.00000
     22       0.0530      2.00000
     23       0.1848      2.00000
     24       0.2201      2.00000
     25       0.3449      2.00000
     26       0.3815      2.00000
     27       0.4814      2.00000
     28       0.5555      2.00000
     29       0.6512      2.00000
     30       0.6845      2.00000
     31       1.3718      2.00000
     32       1.3900      2.00000
     33       1.5828      2.00000
     34       1.7081      2.00000
     35       1.7731      2.00000
     36       1.7985      2.00000
     37       1.8475      2.00000
     38       1.8517      2.00000
     39       1.8861      2.00000
     40       1.9887      2.00000
     41       2.3496      2.00000
     42       2.6769      2.00000
     43       3.1997      2.00000
     44       3.9070      2.00000
     45       3.9620      2.00000
     46       3.9886      2.00000
     47       4.2787      2.00000
     48       4.2808      2.00000
     49       4.7747      2.00000
     50       4.7945      2.00000
     51       4.8003      2.00000
     52       5.4226      2.00000
     53       5.5430      2.00000
     54       5.8727      2.00000
     55       6.4143      2.00000
     56       6.5075      2.00000
     57       7.2759      0.00000
     58       7.4245      0.00000
     59       7.8171      0.00000
     60       8.1675      0.00000
     61       8.6140      0.00000
     62       8.9333      0.00000
     63       9.5696      0.00000
     64       9.7779      0.00000
     65      10.3307      0.00000
     66      10.8606      0.00000


--------------------------------------------------------------------------------------------------------


 soft charge-density along one line, spin component           1
         0         1         2         3         4         5         6         7         8         9
 total charge-density along one line
 
 pseudopotential strength for first ion, spin component:           1
 12.145   0.000 -14.774   0.000   0.000   0.000  -0.003   0.000  -0.000   0.000  -0.000   0.000   0.004   0.000   0.000   0.000
-14.774   0.000  17.992   0.000  -0.000   0.000   0.004   0.000   0.000   0.000   0.000   0.000  -0.005   0.000  -0.000   0.000
  0.000   0.000  -0.000   0.000  -8.276   0.000  -0.000   0.000   0.000   0.000   9.900   0.000   0.000   0.000  -0.000   0.000
 -0.003   0.000   0.004   0.000  -0.000   0.000  -8.280   0.000   0.000   0.000   0.000   0.000   9.907   0.000  -0.000   0.000
 -0.000   0.000   0.000   0.000   0.000   0.000   0.000   0.000  -8.276   0.000  -0.000   0.000  -0.000   0.000   9.900   0.000
 -0.000   0.000   0.000   0.000   9.900   0.000   0.000   0.000  -0.000   0.000 -11.680   0.000  -0.000   0.000   0.000   0.000
  0.004   0.000  -0.005   0.000   0.000   0.000   9.907   0.000  -0.000   0.000  -0.000   0.000 -11.689   0.000   0.000   0.000
  0.000   0.000  -0.000   0.000  -0.000   0.000  -0.000   0.000   9.900   0.000   0.000   0.000   0.000   0.000 -11.680   0.000
 total augmentation occupancy for first ion, spin component:           1
  2.586   0.356   0.000   0.011  -0.000  -0.000   0.001  -0.000
  0.356   0.076  -0.000   0.008  -0.000   0.000  -0.003   0.000
  0.000   0.000   2.141   0.000  -0.000   0.254   0.000  -0.000
  0.011   0.008   0.000   2.127  -0.000   0.000   0.255  -0.000
 -0.000  -0.000  -0.000  -0.000   2.141  -0.000  -0.000   0.254
  0.000   0.000   0.254   0.000  -0.000   0.033   0.000  -0.000
  0.001  -0.003   0.000   0.255  -0.000   0.000   0.035  -0.000
 -0.000   0.000  -0.000  -0.000   0.254  -0.000  -0.000   0.033


------------------------ aborting loop because EDIFF is reached ----------------------------------------


    CHARGE:  cpu time    0.40: real time    0.40
    FORLOC:  cpu time    0.04: real time    0.04
    FORNL :  cpu time    3.49: real time    3.49
    STRESS:  cpu time    4.64: real time    4.65
    FORCOR:  cpu time    0.15: real time    0.15
    FORHAR:  cpu time    0.06: real time    0.07
    MIXING:  cpu time    0.01: real time    0.01
    OFIELD:  cpu time    0.00: real time    0.00

  FORCE on cell =-STRESS in cart. coord.  units (eV):
  Direction    XX          YY          ZZ          XY          YZ          ZX
  --------------------------------------------------------------------------------------
  Alpha Z   143.16132   143.16132   143.16132
  Ewald   17509.75834 17509.75874-20217.07707    -0.00010     0.00006    -0.00020
  Hartree 19303.80929 19303.80920-18352.73210    -0.00000     0.00000     0.00004
  E(xc)    -425.85693  -425.85694  -426.25040    -0.00000     0.00000     0.00000
  Local  -38065.41259-38065.41213 37314.74839    -0.00012    -0.00005     0.00009
  n-local   -43.79309   -57.99085   -45.36184     3.03029    -1.79377     5.54867
  augment    60.70014    60.69989    60.05882     0.00018    -0.00000     0.00000
  Kinetic  1541.77322  1503.57074  1515.35490    -0.47993    -0.37403     1.86311
  Fock        0.00000     0.00000     0.00000     0.00000     0.00000     0.00000
  -------------------------------------------------------------------------------------
  Total      -2.06017    -2.06017    -8.09798     0.00000     0.00000    -0.00000
  in kB      -9.73463    -9.73462   -38.26418     0.00000     0.00000    -0.00000
  external pressure =      -19.24 kB  Pullay stress =        0.00 kB


 VOLUME and BASIS-vectors are now :
 -----------------------------------------------------------------------------
  energy-cutoff  :      520.00
  volume of cell :      339.07
      direct lattice vectors                 reciprocal lattice vectors
     2.592201318 -1.496607673  0.000000000     0.385772507  0.000000000  0.000000000
     0.000000000  2.993215347  0.000000000     0.192886253  0.334088892  0.000000000
    -0.000000000  0.000000000 43.700702503     0.000000000  0.000000000  0.022882927

  length of vectors
     2.993216030  2.993215347 43.700702503     0.385772507  0.385772595  0.022882927


 FORCES acting on ions
    electron-ion (+dipol)            ewald-force                    non-local-force                 convergence-correction
 -----------------------------------------------------------------------------------------------
   0.282E-05 -.514E-06 0.135E+04   -.383E-05 0.304E-05 -.135E+04   -.477E-17 0.152E-17 0.114E+01   -.150E-09 0.155E-09 -.451E-01
   0.106E-02 -.184E-02 0.105E+04   0.573E-04 -.992E-04 -.105E+04   -.138E-18 0.434E-18 0.385E-01   0.257E-08 -.459E-08 -.494E-01
   0.352E-08 -.524E-09 0.450E+03   0.364E-07 -.423E-07 -.450E+03   0.602E-19 -.136E-19 -.123E-01   -.217E-09 0.328E-09 -.483E-02
   0.106E-02 -.184E-02 0.150E+03   0.572E-04 -.991E-04 -.150E+03   0.375E-21 0.136E-19 -.491E-03   0.158E-07 -.274E-07 -.267E-02
   -.527E-08 0.751E-09 -.450E+03   -.746E-07 0.858E-07 0.450E+03   -.124E-18 -.136E-19 0.251E-01   0.141E-09 -.199E-09 0.147E-01
   0.106E-02 -.184E-02 -.750E+03   0.572E-04 -.991E-04 0.750E+03   -.288E-19 0.271E-19 -.672E-02   -.108E-07 0.188E-07 0.338E-01
   -.282E-05 0.514E-06 -.135E+04   0.388E-05 -.309E-05 0.135E+04   0.521E-17 -.173E-17 -.115E+01   -.285E-10 -.726E-10 0.408E-01
   -.106E-02 0.184E-02 0.750E+03   -.572E-04 0.991E-04 -.750E+03   -.233E-20 0.108E-18 0.305E-02   -.859E-08 0.148E-07 -.298E-01
   -.106E-02 0.184E-02 -.150E+03   -.572E-04 0.991E-04 0.150E+03   -.153E-18 -.271E-19 0.224E-01   -.125E-07 0.217E-07 0.106E-01
   -.106E-02 0.184E-02 -.105E+04   -.573E-04 0.992E-04 0.105E+04   0.477E-18 -.867E-18 -.572E-01   0.153E-07 -.266E-07 0.422E-01
   0.503E-07 -.513E-07 0.300E+03   -.725E-07 0.814E-07 -.300E+03   0.339E-19 -.108E-18 0.880E-02   0.964E-09 -.178E-08 -.109E-01
   -.338E-07 0.400E-07 -.339E-01   0.377E-07 -.422E-07 0.298E-01   0.245E-20 -.813E-19 -.321E-02   -.561E-09 0.103E-08 0.411E-03
   -.424E-08 -.786E-08 -.300E+03   0.307E-07 -.346E-07 0.300E+03   -.232E-19 0.271E-19 -.513E-02   0.186E-09 -.264E-09 0.113E-01
   0.437E-04 -.757E-04 0.400E+03   -.491E-04 0.849E-04 -.400E+03   0.331E-19 -.867E-18 -.433E-01   0.444E-09 -.864E-09 -.153E-01
   0.435E-04 -.754E-04 0.100E+03   -.490E-04 0.848E-04 -.100E+03   0.649E-20 0.136E-19 0.374E-03   0.226E-09 -.438E-09 -.976E-03
   0.435E-04 -.754E-04 -.200E+03   -.489E-04 0.848E-04 0.200E+03   0.450E-19 -.108E-18 -.566E-02   -.913E-09 0.168E-08 0.625E-02
   0.318E-04 -.403E-04 -.480E+03   -.255E-04 0.275E-04 0.480E+03   0.184E-18 -.694E-17 -.241E+00   0.958E-09 -.173E-08 0.133E-01
   -.318E-04 0.403E-04 0.480E+03   0.255E-04 -.275E-04 -.480E+03   -.185E-18 -.139E-16 0.242E+00   -.684E-09 0.124E-08 -.152E-01
   -.435E-04 0.753E-04 0.200E+03   0.489E-04 -.848E-04 -.200E+03   -.367E-20 0.000E+00 0.481E-02   0.132E-09 -.267E-09 -.446E-02
   -.435E-04 0.754E-04 -.100E+03   0.490E-04 -.848E-04 0.100E+03   0.578E-19 -.108E-18 -.475E-02   -.974E-09 0.185E-08 0.241E-02
   -.437E-04 0.757E-04 -.400E+03   0.491E-04 -.849E-04 0.400E+03   -.374E-19 -.867E-18 0.490E-01   0.263E-09 -.519E-09 0.147E-01
   0.428E-09 -.603E-09 0.180E-01   -.144E-09 0.140E-09 -.181E-01   0.178E-20 0.339E-20 -.109E-03   0.975E-12 -.144E-11 0.176E-03
   -.322E-06 -.384E-07 0.511E+03   0.126E-05 -.120E-05 -.510E+03   0.401E-18 -.416E-16 -.526E+00   -.902E-11 0.372E-11 -.183E-01
   0.150E-04 -.259E-04 0.342E+03   -.358E-05 0.611E-05 -.342E+03   0.245E-18 -.130E-17 -.321E+00   -.831E-11 0.204E-10 -.128E-01
   -.149E-04 0.258E-04 0.170E+03   0.351E-05 -.605E-05 -.170E+03   -.521E-17 -.694E-17 0.138E-02   0.135E-10 -.193E-10 -.668E-02
   0.322E-06 0.380E-07 -.511E+03   -.126E-05 0.119E-05 0.510E+03   -.403E-18 -.139E-16 0.528E+00   0.712E-11 -.342E-11 0.160E-01
   0.149E-04 -.258E-04 -.170E+03   -.351E-05 0.606E-05 0.170E+03   -.520E-17 0.694E-17 0.614E-03   -.146E-10 0.214E-10 0.683E-02
   -.150E-04 0.259E-04 -.342E+03   0.358E-05 -.611E-05 0.341E+03   -.242E-18 0.173E-17 0.318E+00   0.877E-11 -.179E-10 0.125E-01
 -----------------------------------------------------------------------------------------------
   0.286E-07 -.410E-07 -.132E-01   0.526E-13 -.179E-13 -.108E-11   -.976E-17 -.785E-16 0.375E-02   0.167E-08 -.318E-08 0.939E-02
 
 
 POSITION                                       TOTAL-FORCE (eV/Angst)
 -----------------------------------------------------------------------------------
     -0.00000     -0.00000     11.73720        -0.000000     -0.000000      0.002585
      0.86407      1.49661     14.21833         0.000000     -0.000000     -0.001072
     -0.00000     -0.00000     19.18694         0.000000     -0.000000     -0.007353
      0.86407      1.49661     21.67112         0.000000     -0.000000     -0.001311
     -0.00000     -0.00000     26.63870        -0.000000     -0.000000      0.014589
      0.86407      1.49661     29.12416        -0.000000      0.000000      0.000897
     -0.00000     -0.00000     34.08979         0.000000     -0.000000     -0.009573
      1.72814     -0.00000     16.70201        -0.000000      0.000000     -0.002669
      1.72814     -0.00000     24.15440        -0.000000      0.000000      0.012758
      1.72814     -0.00000     31.60856        -0.000000      0.000000     -0.009753
     -0.00000     -0.00000     15.45939        -0.000000     -0.000000      0.017395
     -0.00000     -0.00000     22.91316         0.000000     -0.000000     -0.006893
     -0.00000     -0.00000     30.36671         0.000000     -0.000000     -0.010318
      1.72814     -0.00000     12.97670        -0.000000     -0.000000      0.004240
      1.72814     -0.00000     20.42892        -0.000000     -0.000000     -0.000254
      1.72814     -0.00000     27.88204         0.000000     -0.000000     -0.009285
      1.72814     -0.00000     35.37377        -0.000000     -0.000000      0.000800
      0.86407      1.49661     10.45287        -0.000000     -0.000000      0.000077
      0.86407      1.49661     17.94400        -0.000000     -0.000000      0.007697
      0.86407      1.49661     25.39723         0.000000     -0.000000     -0.008872
      0.86407      1.49661     32.84956        -0.000000     -0.000000      0.006066
     -0.00000     -0.00000      1.06292        -0.000000     -0.000000     -0.000021
     -0.00000     -0.00000      7.97173        -0.000000     -0.000000      0.012890
      1.72814     -0.00000      5.68023         0.000000     -0.000000     -0.011355
      0.86407      1.49661      3.36832         0.000000     -0.000000     -0.011895
     -0.00000     -0.00000     37.85486         0.000000     -0.000000     -0.012051
      1.72814     -0.00000     42.45820        -0.000000     -0.000000      0.012597
      0.86407      1.49661     40.14661        -0.000000     -0.000000      0.010085
 -----------------------------------------------------------------------------------
    total drift:                                0.000000     -0.000000     -0.000081


--------------------------------------------------------------------------------------------------------



  FREE ENERGIE OF THE ION-ELECTRON SYSTEM (eV)
  ---------------------------------------------------
  free  energy   TOTEN  =      -145.75190546 eV

  energy  without entropy=     -145.75060335  energy(sigma->0) =     -145.75125441
 
 d Force = 0.1494992E-03[-0.292E-04, 0.328E-03]  d Energy = 0.1417168E-03 0.778E-05
 d Force =-0.2941071E+01[-0.294E+01,-0.294E+01]  d Ewald  =-0.2941071E+01-0.280E-07


--------------------------------------------------------------------------------------------------------


    POTLOK:  cpu time    0.23: real time    0.24


--------------------------------------------------------------------------------------------------------


 Steepest descent step on ions:
 trial-energy change:   -0.000142  1 .order   -0.000149   -0.000328    0.000029
  (g-gl).g = 0.328E-03      g.g   = 0.328E-03  gl.gl    = 0.000E+00
 g(Force)  = 0.328E-03   g(Stress)= 0.000E+00 ortho     = 0.000E+00
 gamma     =   0.00000
 trial     =   1.00000
 opt step  =   0.90743  (harmonic =   0.91841) maximal distance =0.00133630
 next E    =  -145.751907   (d E  =  -0.00014)


--------------------------------------------------------------------------------------------------------


  
 reached required accuracy - stopping structural energy minimisation
     LOOP+:  cpu time   80.16: real time   80.28
    4ORBIT:  cpu time    0.00: real time    0.00

 total amount of memory used by VASP on root node   153975. kBytes
========================================================================

   base      :      30000. kBytes
   nonl-proj :      16240. kBytes
   fftplans  :      57933. kBytes
   grid      :      23224. kBytes
   one-center:         56. kBytes
   wavefun   :      26522. kBytes
 
  
  
 General timing and accounting informations for this job:
 ========================================================
  
                  Total CPU time used (sec):      253.696
                            User time (sec):      251.243
                          System time (sec):        2.453
                         Elapsed time (sec):      254.070
  
                   Maximum memory used (kb):      259832.
                   Average memory used (kb):           0.
  
                          Minor page faults:       117229
                          Major page faults:            0
                 Voluntary context switches:           71
