  21  21   0   0
  0.1471516E+02  0.3004406E-09  0.3004406E-09  0.3953087E-08  0.5000000E-15
  1.000000000000000E-004
  CAR 
 Al110                                   
     11.54552302    -20.14620308  301     -1.27788476      1.00000000
    -20.146  0.0000E+00  0.0000E+00
    -20.041  0.0000E+00  0.0000E+00
    -19.935  0.0000E+00  0.0000E+00
    -19.829  0.0000E+00  0.0000E+00
    -19.724  0.0000E+00  0.0000E+00
    -19.618  0.0000E+00  0.0000E+00
    -19.512  0.0000E+00  0.0000E+00
    -19.407  0.0000E+00  0.0000E+00
    -19.301  0.0000E+00  0.0000E+00
    -19.195  0.0000E+00  0.0000E+00
    -19.090  0.0000E+00  0.0000E+00
    -18.984  0.1971E-17  0.2082E-18
    -18.879  0.5986E-09  0.6324E-10
    -18.773  0.3396E-04  0.3587E-05
    -18.667  0.1345E-02  0.1457E-03
    -18.562  0.2807E-02  0.4422E-03
    -18.456  0.5057E-02  0.9764E-03
    -18.350  0.6076E-02  0.1618E-02
    -18.245  0.8029E-02  0.2467E-02
    -18.139  0.9136E-02  0.3432E-02
    -18.033  0.1188E-01  0.4687E-02
    -17.928  0.1463E-01  0.6232E-02
    -17.822  0.1689E-01  0.8016E-02
    -17.717  0.2201E-01  0.1034E-01
    -17.611  0.3004E-01  0.1351E-01
    -17.505  0.4252E-01  0.1801E-01
    -17.400  0.5722E-01  0.2405E-01
    -17.294  0.6654E-01  0.3108E-01
    -17.188  0.4227E-01  0.3554E-01
    -17.083  0.4307E-02  0.3600E-01
    -16.977  0.1007E-02  0.3611E-01
    -16.871  0.6991E-02  0.3684E-01
    -16.766  0.9625E-02  0.3786E-01
    -16.660  0.1444E-01  0.3939E-01
    -16.554  0.2764E-01  0.4231E-01
    -16.449  0.1580E-01  0.4398E-01
    -16.343  0.2322E-03  0.4400E-01
    -16.238  0.4957E-08  0.4400E-01
    -16.132  0.3127E-16  0.4400E-01
    -16.026  0.0000E+00  0.4400E-01
    -15.921  0.0000E+00  0.4400E-01
    -15.815  0.0000E+00  0.4400E-01
    -15.709  0.0000E+00  0.4400E-01
    -15.604  0.0000E+00  0.4400E-01
    -15.498  0.0000E+00  0.4400E-01
    -15.392  0.0000E+00  0.4400E-01
    -15.287  0.0000E+00  0.4400E-01
    -15.181  0.0000E+00  0.4400E-01
    -15.076  0.0000E+00  0.4400E-01
    -14.970  0.0000E+00  0.4400E-01
    -14.864  0.0000E+00  0.4400E-01
    -14.759  0.0000E+00  0.4400E-01
    -14.653  0.0000E+00  0.4400E-01
    -14.547  0.0000E+00  0.4400E-01
    -14.442  0.0000E+00  0.4400E-01
    -14.336  0.0000E+00  0.4400E-01
    -14.230  0.0000E+00  0.4400E-01
    -14.125  0.0000E+00  0.4400E-01
    -14.019  0.0000E+00  0.4400E-01
    -13.913  0.0000E+00  0.4400E-01
    -13.808  0.0000E+00  0.4400E-01
    -13.702  0.0000E+00  0.4400E-01
    -13.597  0.0000E+00  0.4400E-01
    -13.491  0.0000E+00  0.4400E-01
    -13.385  0.0000E+00  0.4400E-01
    -13.280  0.0000E+00  0.4400E-01
    -13.174  0.0000E+00  0.4400E-01
    -13.068  0.0000E+00  0.4400E-01
    -12.963  0.0000E+00  0.4400E-01
    -12.857  0.0000E+00  0.4400E-01
    -12.751  0.0000E+00  0.4400E-01
    -12.646  0.0000E+00  0.4400E-01
    -12.540  0.0000E+00  0.4400E-01
    -12.435  0.0000E+00  0.4400E-01
    -12.329  0.0000E+00  0.4400E-01
    -12.223  0.0000E+00  0.4400E-01
    -12.118  0.0000E+00  0.4400E-01
    -12.012  0.0000E+00  0.4400E-01
    -11.906  0.0000E+00  0.4400E-01
    -11.801  0.0000E+00  0.4400E-01
    -11.695  0.0000E+00  0.4400E-01
    -11.589  0.0000E+00  0.4400E-01
    -11.484  0.0000E+00  0.4400E-01
    -11.378  0.0000E+00  0.4400E-01
    -11.273  0.0000E+00  0.4400E-01
    -11.167  0.0000E+00  0.4400E-01
    -11.061  0.0000E+00  0.4400E-01
    -10.956  0.0000E+00  0.4400E-01
    -10.850  0.0000E+00  0.4400E-01
    -10.744  0.0000E+00  0.4400E-01
    -10.639  0.0000E+00  0.4400E-01
    -10.533  0.0000E+00  0.4400E-01
    -10.427  0.0000E+00  0.4400E-01
    -10.322  0.0000E+00  0.4400E-01
    -10.216  0.0000E+00  0.4400E-01
    -10.110  0.0000E+00  0.4400E-01
    -10.005  0.0000E+00  0.4400E-01
     -9.899  0.0000E+00  0.4400E-01
     -9.794  0.0000E+00  0.4400E-01
     -9.688  0.0000E+00  0.4400E-01
     -9.582  0.0000E+00  0.4400E-01
     -9.477  0.0000E+00  0.4400E-01
     -9.371  0.0000E+00  0.4400E-01
     -9.265  0.0000E+00  0.4400E-01
     -9.160  0.0000E+00  0.4400E-01
     -9.054  0.0000E+00  0.4400E-01
     -8.948  0.0000E+00  0.4400E-01
     -8.843  0.0000E+00  0.4400E-01
     -8.737  0.0000E+00  0.4400E-01
     -8.632  0.0000E+00  0.4400E-01
     -8.526  0.0000E+00  0.4400E-01
     -8.420  0.0000E+00  0.4400E-01
     -8.315  0.0000E+00  0.4400E-01
     -8.209  0.0000E+00  0.4400E-01
     -8.103  0.0000E+00  0.4400E-01
     -7.998  0.0000E+00  0.4400E-01
     -7.892  0.0000E+00  0.4400E-01
     -7.786  0.0000E+00  0.4400E-01
     -7.681  0.0000E+00  0.4400E-01
     -7.575  0.0000E+00  0.4400E-01
     -7.470  0.0000E+00  0.4400E-01
     -7.364  0.0000E+00  0.4400E-01
     -7.258  0.0000E+00  0.4400E-01
     -7.153  0.0000E+00  0.4400E-01
     -7.047  0.0000E+00  0.4400E-01
     -6.941  0.0000E+00  0.4400E-01
     -6.836  0.0000E+00  0.4400E-01
     -6.730  0.0000E+00  0.4400E-01
     -6.624  0.0000E+00  0.4400E-01
     -6.519  0.0000E+00  0.4400E-01
     -6.413  0.0000E+00  0.4400E-01
     -6.307  0.6568E-18  0.4400E-01
     -6.202  0.3751E-09  0.4400E-01
     -6.096  0.4545E-04  0.4400E-01
     -5.991  0.3163E-02  0.4434E-01
     -5.885  0.4554E-02  0.4482E-01
     -5.779  0.5904E-02  0.4544E-01
     -5.674  0.8778E-02  0.4637E-01
     -5.568  0.1117E-01  0.4755E-01
     -5.462  0.1557E-01  0.4920E-01
     -5.357  0.2346E-01  0.5167E-01
     -5.251  0.3098E-01  0.5495E-01
     -5.145  0.4250E-01  0.5944E-01
     -5.040  0.4101E-01  0.6377E-01
     -4.934  0.2739E-01  0.6666E-01
     -4.829  0.2789E-01  0.6961E-01
     -4.723  0.2232E-01  0.7197E-01
     -4.617  0.1120E-01  0.7315E-01
     -4.512  0.1200E-01  0.7442E-01
     -4.406  0.9876E-02  0.7546E-01
     -4.300  0.1893E-01  0.7746E-01
     -4.195  0.1237E-01  0.7877E-01
     -4.089  0.2191E-01  0.8108E-01
     -3.983  0.2639E-01  0.8387E-01
     -3.878  0.1436E-01  0.8539E-01
     -3.772  0.2384E-01  0.8791E-01
     -3.667  0.1647E-01  0.8965E-01
     -3.561  0.2327E-01  0.9210E-01
     -3.455  0.2383E-01  0.9462E-01
     -3.350  0.2221E-01  0.9697E-01
     -3.244  0.2064E-01  0.9915E-01
     -3.138  0.2479E-01  0.1018E+00
     -3.033  0.3476E-01  0.1054E+00
     -2.927  0.4017E-01  0.1097E+00
     -2.821  0.4209E-01  0.1141E+00
     -2.716  0.4416E-01  0.1188E+00
     -2.610  0.4668E-01  0.1237E+00
     -2.504  0.4459E-01  0.1284E+00
     -2.399  0.6200E-01  0.1350E+00
     -2.293  0.6715E-01  0.1421E+00
     -2.188  0.5237E-01  0.1476E+00
     -2.082  0.3813E-01  0.1516E+00
     -1.976  0.3326E-01  0.1552E+00
     -1.871  0.2837E-01  0.1581E+00
     -1.765  0.2023E-01  0.1603E+00
     -1.659  0.1635E-01  0.1620E+00
     -1.554  0.9536E-02  0.1630E+00
     -1.448  0.1514E-01  0.1646E+00
     -1.342  0.3787E-01  0.1686E+00
     -1.237  0.4562E-01  0.1734E+00
     -1.131  0.1773E-01  0.1753E+00
     -1.026  0.6028E-02  0.1760E+00
     -0.920  0.4699E-03  0.1760E+00
     -0.814  0.1068E-06  0.1760E+00
     -0.709  0.6064E-14  0.1760E+00
     -0.603  0.0000E+00  0.1760E+00
     -0.497  0.0000E+00  0.1760E+00
     -0.392  0.0000E+00  0.1760E+00
     -0.286  0.0000E+00  0.1760E+00
     -0.180  0.0000E+00  0.1760E+00
     -0.075  0.0000E+00  0.1760E+00
      0.031  0.0000E+00  0.1760E+00
      0.137  0.0000E+00  0.1760E+00
      0.242  0.0000E+00  0.1760E+00
      0.348  0.0000E+00  0.1760E+00
      0.453  0.0000E+00  0.1760E+00
      0.559  0.0000E+00  0.1760E+00
      0.665  0.0000E+00  0.1760E+00
      0.770  0.0000E+00  0.1760E+00
      0.876  0.0000E+00  0.1760E+00
      0.982  0.0000E+00  0.1760E+00
      1.087  0.0000E+00  0.1760E+00
      1.193  0.0000E+00  0.1760E+00
      1.299  0.0000E+00  0.1760E+00
      1.404  0.0000E+00  0.1760E+00
      1.510  0.0000E+00  0.1760E+00
      1.615  0.0000E+00  0.1760E+00
      1.721  0.0000E+00  0.1760E+00
      1.827  0.0000E+00  0.1760E+00
      1.932  0.0000E+00  0.1760E+00
      2.038  0.0000E+00  0.1760E+00
      2.144  0.0000E+00  0.1760E+00
      2.249  0.0000E+00  0.1760E+00
      2.355  0.0000E+00  0.1760E+00
      2.461  0.0000E+00  0.1760E+00
      2.566  0.0000E+00  0.1760E+00
      2.672  0.0000E+00  0.1760E+00
      2.777  0.0000E+00  0.1760E+00
      2.883  0.0000E+00  0.1760E+00
      2.989  0.8652E-14  0.1760E+00
      3.094  0.9907E-07  0.1760E+00
      3.200  0.2590E-03  0.1760E+00
      3.306  0.9082E-03  0.1761E+00
      3.411  0.1595E-04  0.1761E+00
      3.517  0.1408E-05  0.1761E+00
      3.623  0.5891E-03  0.1762E+00
      3.728  0.1561E-02  0.1764E+00
      3.834  0.2147E-03  0.1764E+00
      3.940  0.1027E-05  0.1764E+00
      4.045  0.5152E-03  0.1764E+00
      4.151  0.6662E-03  0.1765E+00
      4.256  0.1326E-02  0.1766E+00
      4.362  0.2208E-02  0.1769E+00
      4.468  0.1324E-03  0.1769E+00
      4.573  0.1424E-02  0.1770E+00
      4.679  0.2954E-02  0.1773E+00
      4.785  0.2654E-03  0.1774E+00
      4.890  0.1775E-02  0.1776E+00
      4.996  0.2127E-02  0.1778E+00
      5.102  0.1421E-02  0.1779E+00
      5.207  0.2785E-02  0.1782E+00
      5.313  0.2006E-02  0.1784E+00
      5.418  0.2494E-02  0.1787E+00
      5.524  0.4091E-03  0.1788E+00
      5.630  0.3279E-02  0.1791E+00
      5.735  0.6220E-02  0.1798E+00
      5.841  0.3898E-02  0.1802E+00
      5.947  0.4795E-02  0.1807E+00
      6.052  0.1564E-02  0.1808E+00
      6.158  0.5440E-02  0.1814E+00
      6.264  0.8677E-02  0.1823E+00
      6.369  0.9997E-02  0.1834E+00
      6.475  0.5174E-02  0.1839E+00
      6.580  0.4779E-02  0.1844E+00
      6.686  0.8306E-02  0.1853E+00
      6.792  0.1065E-01  0.1864E+00
      6.897  0.7705E-02  0.1873E+00
      7.003  0.4341E-02  0.1877E+00
      7.109  0.5241E-02  0.1883E+00
      7.214  0.1535E-01  0.1899E+00
      7.320  0.1464E-01  0.1914E+00
      7.426  0.6343E-02  0.1921E+00
      7.531  0.4459E-02  0.1926E+00
      7.637  0.1606E-01  0.1943E+00
      7.743  0.1158E-01  0.1955E+00
      7.848  0.1029E-01  0.1966E+00
      7.954  0.1620E-01  0.1983E+00
      8.059  0.1701E-01  0.2001E+00
      8.165  0.1813E-01  0.2020E+00
      8.271  0.1588E-01  0.2037E+00
      8.376  0.1326E-01  0.2051E+00
      8.482  0.3263E-01  0.2085E+00
      8.588  0.1410E-01  0.2100E+00
      8.693  0.1135E-01  0.2112E+00
      8.799  0.9065E-02  0.2122E+00
      8.905  0.1317E-01  0.2136E+00
      9.010  0.1245E-01  0.2149E+00
      9.116  0.7276E-02  0.2157E+00
      9.221  0.8188E-02  0.2165E+00
      9.327  0.8362E-02  0.2174E+00
      9.433  0.7738E-02  0.2182E+00
      9.538  0.6675E-02  0.2189E+00
      9.644  0.2325E-02  0.2192E+00
      9.750  0.2119E-02  0.2194E+00
      9.855  0.2346E-02  0.2196E+00
      9.961  0.1003E-02  0.2197E+00
     10.067  0.4112E-03  0.2198E+00
     10.172  0.1906E-02  0.2200E+00
     10.278  0.5150E-04  0.2200E+00
     10.383  0.7442E-09  0.2200E+00
     10.489  0.2233E-17  0.2200E+00
     10.595  0.0000E+00  0.2200E+00
     10.700  0.0000E+00  0.2200E+00
     10.806  0.0000E+00  0.2200E+00
     10.912  0.0000E+00  0.2200E+00
     11.017  0.0000E+00  0.2200E+00
     11.123  0.0000E+00  0.2200E+00
     11.229  0.0000E+00  0.2200E+00
     11.334  0.0000E+00  0.2200E+00
     11.440  0.0000E+00  0.2200E+00
     11.546  0.0000E+00  0.2200E+00
