       N       E                     dE             d eps       ncg     rms          rms(c)
DAV:   1     0.636715514906E+03    0.63672E+03   -0.40906E+04  2200   0.136E+03
DAV:   2    -0.663558378815E+02   -0.70307E+03   -0.68838E+03  2915   0.315E+02
DAV:   3    -0.133260534824E+03   -0.66905E+02   -0.66025E+02  2505   0.105E+02
DAV:   4    -0.134661692158E+03   -0.14012E+01   -0.13963E+01  2750   0.171E+01
DAV:   5    -0.134691959950E+03   -0.30268E-01   -0.30248E-01  2695   0.236E+00
DAV:   6    -0.134692949824E+03   -0.98987E-03   -0.98963E-03  2740   0.417E-01
DAV:   7    -0.134692990404E+03   -0.40580E-04   -0.40574E-04  2695   0.769E-02
DAV:   8    -0.134692992158E+03   -0.17543E-05   -0.17544E-05  2180   0.159E-02    0.223E+01
RMM:   9    -0.120247992317E+03    0.14445E+02   -0.71261E+01  2200   0.292E+01    0.795E+00
RMM:  10    -0.120369310730E+03   -0.12132E+00   -0.25076E+00  2200   0.472E+00    0.565E+00
RMM:  11    -0.119986382532E+03    0.38293E+00   -0.48910E-01  2200   0.215E+00    0.368E+00
RMM:  12    -0.120726744440E+03   -0.74036E+00   -0.12787E+00  2200   0.402E+00    0.991E+00
RMM:  13    -0.119995165177E+03    0.73158E+00   -0.92053E-01  2200   0.248E+00    0.130E+00
RMM:  14    -0.119970273642E+03    0.24892E-01   -0.18341E-02  2200   0.543E-01    0.104E+00
RMM:  15    -0.119909241233E+03    0.61032E-01   -0.14310E-01  2200   0.968E-01    0.679E-01
RMM:  16    -0.119909792032E+03   -0.55080E-03   -0.30515E-02  2200   0.513E-01    0.698E-01
RMM:  17    -0.119919937122E+03   -0.10145E-01   -0.11078E-02  2173   0.238E-01    0.578E-01
RMM:  18    -0.119911956729E+03    0.79804E-02   -0.37697E-03  2200   0.199E-01    0.422E-01
RMM:  19    -0.119910178527E+03    0.17782E-02   -0.18537E-03  2177   0.149E-01    0.377E-01
RMM:  20    -0.119903397926E+03    0.67806E-02   -0.35342E-03  2183   0.132E-01    0.236E-01
RMM:  21    -0.119901898324E+03    0.14996E-02   -0.89146E-04  2147   0.652E-02    0.201E-01
RMM:  22    -0.119900649903E+03    0.12484E-02   -0.11650E-03  2165   0.792E-02    0.942E-02
RMM:  23    -0.119900624297E+03    0.25606E-04   -0.50297E-04  2043   0.568E-02    0.526E-02
RMM:  24    -0.119900757062E+03   -0.13277E-03   -0.20767E-04  1975   0.356E-02    0.604E-02
RMM:  25    -0.119900688131E+03    0.68932E-04   -0.18097E-05  1388   0.178E-02    0.343E-02
RMM:  26    -0.119900648524E+03    0.39607E-04   -0.28959E-05  1563   0.148E-02    0.206E-02
RMM:  27    -0.119900632715E+03    0.15809E-04   -0.25551E-05  1414   0.124E-02    0.267E-03
RMM:  28    -0.119900636430E+03   -0.37150E-05   -0.22837E-06  1112   0.588E-03
   1 F= -.11990064E+03 E0= -.11988975E+03  d E =-.119901E+03
       N       E                     dE             d eps       ncg     rms          rms(c)
DAV:   1    -0.120110432203E+03   -0.20980E+00   -0.22532E+01  2360   0.176E+01
DAV:   2    -0.120149585270E+03   -0.39153E-01   -0.39147E-01  2400   0.231E+00
DAV:   3    -0.120149878373E+03   -0.29310E-03   -0.29310E-03  2830   0.192E-01
DAV:   4    -0.120149882047E+03   -0.36738E-05   -0.36739E-05  2520   0.226E-02
DAV:   5    -0.120149882166E+03   -0.11890E-06   -0.11871E-06  1905   0.393E-03
DAV:   6    -0.120149882191E+03   -0.25132E-07   -0.25330E-07  1530   0.150E-03
DAV:   7    -0.120149882200E+03   -0.91404E-08   -0.89266E-08  1340   0.813E-04
DAV:   8    -0.120149882203E+03   -0.32933E-08   -0.32943E-08  1340   0.489E-04    0.353E+00
RMM:   9    -0.120326806936E+03   -0.17692E+00   -0.79319E-01  2200   0.230E+00    0.349E+00
RMM:  10    -0.120078651746E+03    0.24816E+00   -0.21364E-01  2200   0.139E+00    0.101E+00
RMM:  11    -0.120081710359E+03   -0.30586E-02   -0.10454E-01  2200   0.783E-01    0.160E+00
RMM:  12    -0.120058695997E+03    0.23014E-01   -0.10576E-02  2195   0.366E-01    0.216E-01
RMM:  13    -0.120059703128E+03   -0.10071E-02   -0.65218E-03  2175   0.246E-01    0.994E-02
RMM:  14    -0.120059904625E+03   -0.20150E-03   -0.51120E-04  2094   0.746E-02    0.114E-01
RMM:  15    -0.120059806160E+03    0.98465E-04   -0.97372E-05  1789   0.285E-02    0.102E-01
RMM:  16    -0.120059865574E+03   -0.59414E-04   -0.52176E-04  2061   0.619E-02    0.118E-01
RMM:  17    -0.120059761711E+03    0.10386E-03   -0.61398E-05  1690   0.309E-02    0.215E-02
RMM:  18    -0.120059822248E+03   -0.60537E-04   -0.35170E-05  1421   0.179E-02    0.941E-03
RMM:  19    -0.120059877746E+03   -0.55498E-04   -0.96827E-06  1206   0.882E-03    0.738E-03
RMM:  20    -0.120059910183E+03   -0.32437E-04   -0.58060E-06  1131   0.713E-03    0.301E-03
RMM:  21    -0.120059919145E+03   -0.89620E-05   -0.12626E-06   838   0.379E-03
   2 F= -.12005992E+03 E0= -.12004595E+03  d E =-.159283E+00
       N       E                     dE             d eps       ncg     rms          rms(c)
DAV:   1    -0.120407633663E+03   -0.34772E+00   -0.77767E+01  2280   0.331E+01
DAV:   2    -0.120560249233E+03   -0.15262E+00   -0.15252E+00  2390   0.475E+00
DAV:   3    -0.120561358752E+03   -0.11095E-02   -0.11095E-02  2830   0.396E-01
DAV:   4    -0.120561374912E+03   -0.16160E-04   -0.16160E-04  2595   0.489E-02
DAV:   5    -0.120561375360E+03   -0.44830E-06   -0.44805E-06  1955   0.772E-03
DAV:   6    -0.120561375438E+03   -0.77338E-07   -0.77498E-07  1580   0.281E-03
DAV:   7    -0.120561375464E+03   -0.25875E-07   -0.25928E-07  1390   0.148E-03
DAV:   8    -0.120561375473E+03   -0.92132E-08   -0.92551E-08  1335   0.869E-04    0.640E+00
RMM:   9    -0.122329651306E+03   -0.17683E+01   -0.64002E+00  2200   0.630E+00    0.794E+00
RMM:  10    -0.120714730918E+03    0.16149E+01   -0.13122E+00  2200   0.321E+00    0.374E+00
RMM:  11    -0.120595569126E+03    0.11916E+00   -0.71215E-02  2238   0.600E-01    0.322E+00
RMM:  12    -0.120207173111E+03    0.38840E+00   -0.25160E-01  2200   0.103E+00    0.146E+00
RMM:  13    -0.120189031618E+03    0.18141E-01   -0.72024E-02  2206   0.561E-01    0.887E-01
RMM:  14    -0.120175107237E+03    0.13924E-01   -0.11683E-02  2201   0.339E-01    0.361E-01
RMM:  15    -0.120194866530E+03   -0.19759E-01   -0.97778E-03  2181   0.258E-01    0.775E-01
RMM:  16    -0.120174123741E+03    0.20743E-01   -0.95496E-03  2178   0.229E-01    0.142E-01
RMM:  17    -0.120174660469E+03   -0.53673E-03   -0.99423E-04  2146   0.963E-02    0.206E-01
RMM:  18    -0.120174387390E+03    0.27308E-03   -0.34908E-04  2020   0.501E-02    0.221E-01
RMM:  19    -0.120173267528E+03    0.11199E-02   -0.10960E-03  2103   0.912E-02    0.213E-01
RMM:  20    -0.120172441691E+03    0.82584E-03   -0.49701E-04  2010   0.477E-02    0.249E-02
RMM:  21    -0.120172508101E+03   -0.66411E-04   -0.33227E-05  1531   0.208E-02    0.208E-02
RMM:  22    -0.120172604816E+03   -0.96714E-04   -0.50050E-05  1542   0.167E-02    0.284E-02
RMM:  23    -0.120172636524E+03   -0.31708E-04   -0.72759E-06  1307   0.828E-03    0.547E-03
RMM:  24    -0.120172673363E+03   -0.36839E-04   -0.54103E-06  1150   0.608E-03    0.617E-03
RMM:  25    -0.120172688964E+03   -0.15601E-04   -0.40260E-06  1060   0.572E-03    0.123E-03
RMM:  26    -0.120172695028E+03   -0.60644E-05   -0.12384E-06   812   0.360E-03
   3 F= -.12017270E+03 E0= -.12015885E+03  d E =-.272059E+00
       N       E                     dE             d eps       ncg     rms          rms(c)
DAV:   1    -0.120191852318E+03   -0.19163E-01   -0.14834E+01  2250   0.158E+01
DAV:   2    -0.120217135848E+03   -0.25284E-01   -0.25281E-01  2525   0.198E+00
DAV:   3    -0.120217270470E+03   -0.13462E-03   -0.13462E-03  2745   0.139E-01
DAV:   4    -0.120217272059E+03   -0.15883E-05   -0.15884E-05  2210   0.160E-02
DAV:   5    -0.120217272160E+03   -0.10090E-06   -0.10087E-06  1785   0.421E-03
DAV:   6    -0.120217272185E+03   -0.25129E-07   -0.25107E-07  1445   0.191E-03
DAV:   7    -0.120217272193E+03   -0.80372E-08   -0.80481E-08  1325   0.102E-03
DAV:   8    -0.120217272196E+03   -0.27158E-08   -0.27226E-08  1300   0.579E-04    0.117E+00
RMM:   9    -0.120261518696E+03   -0.44247E-01   -0.10184E-01  2199   0.829E-01    0.199E+00
RMM:  10    -0.120202752214E+03    0.58766E-01   -0.64678E-02  2199   0.731E-01    0.442E-01
RMM:  11    -0.120200954708E+03    0.17975E-02   -0.25516E-03  2179   0.175E-01    0.942E-02
RMM:  12    -0.120200845123E+03    0.10959E-03   -0.91888E-04  2094   0.764E-02    0.134E-01
RMM:  13    -0.120200573917E+03    0.27121E-03   -0.27828E-04  2047   0.503E-02    0.262E-02
RMM:  14    -0.120200581667E+03   -0.77500E-05   -0.42438E-05  1556   0.186E-02
   4 F= -.12020058E+03 E0= -.12018689E+03  d E =-.278866E-01
       N       E                     dE             d eps       ncg     rms          rms(c)
DAV:   1    -0.120201938697E+03   -0.13648E-02   -0.34867E+00  2280   0.780E+00
DAV:   2    -0.120207835098E+03   -0.58964E-02   -0.58963E-02  2660   0.978E-01
DAV:   3    -0.120207861966E+03   -0.26868E-04   -0.26868E-04  2810   0.637E-02
DAV:   4    -0.120207862293E+03   -0.32760E-06   -0.32769E-06  1970   0.764E-03
DAV:   5    -0.120207862341E+03   -0.47690E-07   -0.47632E-07  1600   0.251E-03
DAV:   6    -0.120207862356E+03   -0.14774E-07   -0.14815E-07  1355   0.126E-03
DAV:   7    -0.120207862361E+03   -0.53105E-08   -0.51104E-08  1315   0.708E-04
DAV:   8    -0.120207862363E+03   -0.15070E-08   -0.18291E-08  1295   0.396E-04    0.569E-01
RMM:   9    -0.120216977451E+03   -0.91151E-02   -0.21949E-02  2192   0.396E-01    0.936E-01
RMM:  10    -0.120204918789E+03    0.12059E-01   -0.15494E-02  2195   0.358E-01    0.276E-01
RMM:  11    -0.120203939700E+03    0.97909E-03   -0.84585E-04  2163   0.981E-02    0.489E-02
RMM:  12    -0.120203901558E+03    0.38142E-04   -0.18744E-04  1980   0.369E-02    0.479E-02
RMM:  13    -0.120203869890E+03    0.31668E-04   -0.61477E-05  1807   0.232E-02    0.143E-02
RMM:  14    -0.120203881803E+03   -0.11913E-04   -0.11706E-05  1360   0.106E-02    0.985E-03
RMM:  15    -0.120203897190E+03   -0.15387E-04   -0.27624E-06  1138   0.574E-03    0.176E-03
RMM:  16    -0.120203912770E+03   -0.15581E-04   -0.14270E-06   869   0.383E-03    0.127E-03
RMM:  17    -0.120203931173E+03   -0.18403E-04   -0.18455E-06   751   0.361E-03    0.551E-04
RMM:  18    -0.120203936146E+03   -0.49733E-05   -0.66996E-07   628   0.298E-03
   5 F= -.12020394E+03 E0= -.12019035E+03  d E =-.312411E-01
       N       E                     dE             d eps       ncg     rms          rms(c)
DAV:   1    -0.120207646238E+03   -0.37151E-02   -0.50865E+00  2400   0.109E+01
DAV:   2    -0.120216892679E+03   -0.92464E-02   -0.92464E-02  2710   0.137E+00
DAV:   3    -0.120216937719E+03   -0.45039E-04   -0.45039E-04  2715   0.902E-02
DAV:   4    -0.120216938706E+03   -0.98770E-06   -0.98765E-06  2150   0.124E-02
DAV:   5    -0.120216938783E+03   -0.77150E-07   -0.76948E-07  1640   0.359E-03
DAV:   6    -0.120216938804E+03   -0.20903E-07   -0.21075E-07  1325   0.170E-03
DAV:   7    -0.120216938812E+03   -0.71968E-08   -0.71843E-08  1310   0.926E-04
DAV:   8    -0.120216938814E+03   -0.26466E-08   -0.25523E-08  1310   0.533E-04    0.213E-01
RMM:   9    -0.120214280302E+03    0.26585E-02   -0.43589E-03  2200   0.202E-01    0.124E-01
RMM:  10    -0.120214113435E+03    0.16687E-03   -0.16441E-03  2176   0.119E-01    0.189E-01
RMM:  11    -0.120213487934E+03    0.62550E-03   -0.11422E-03  2175   0.991E-02    0.610E-02
RMM:  12    -0.120213427362E+03    0.60572E-04   -0.99216E-05  1983   0.321E-02    0.248E-02
RMM:  13    -0.120213406173E+03    0.21189E-04   -0.60090E-05  1844   0.251E-02    0.677E-03
RMM:  14    -0.120213405011E+03    0.11623E-05   -0.70909E-06  1317   0.886E-03
   6 F= -.12021341E+03 E0= -.12019997E+03  d E =-.946886E-02
       N       E                     dE             d eps       ncg     rms          rms(c)
DAV:   1    -0.120213379631E+03    0.26542E-04   -0.29848E-01  2560   0.263E+00
DAV:   2    -0.120213920929E+03   -0.54130E-03   -0.54130E-03  2705   0.331E-01
DAV:   3    -0.120213923441E+03   -0.25126E-05   -0.25124E-05  2150   0.217E-02
DAV:   4    -0.120213923588E+03   -0.14649E-06   -0.14643E-06  1735   0.580E-03
DAV:   5    -0.120213923618E+03   -0.30158E-07   -0.30206E-07  1355   0.239E-03
DAV:   6    -0.120213923627E+03   -0.84638E-08   -0.84995E-08  1280   0.117E-03
DAV:   7    -0.120213923629E+03   -0.26366E-08   -0.26664E-08  1250   0.635E-04
DAV:   8    -0.120213923630E+03   -0.99863E-09   -0.88825E-09  1250   0.344E-04    0.514E-02
RMM:   9    -0.120213758049E+03    0.16558E-03   -0.25824E-04  2090   0.490E-02    0.287E-02
RMM:  10    -0.120213743822E+03    0.14227E-04   -0.99575E-05  1967   0.293E-02    0.446E-02
RMM:  11    -0.120213709985E+03    0.33837E-04   -0.63043E-05  1793   0.235E-02    0.140E-02
RMM:  12    -0.120213707825E+03    0.21598E-05   -0.59039E-06  1310   0.860E-03
   7 F= -.12021371E+03 E0= -.12020032E+03  d E =-.977168E-02
       N       E                     dE             d eps       ncg     rms          rms(c)
DAV:   1    -0.120216522181E+03   -0.28122E-02   -0.14509E+00  2220   0.593E+00
DAV:   2    -0.120219661221E+03   -0.31390E-02   -0.31390E-02  2750   0.812E-01
DAV:   3    -0.120219676748E+03   -0.15527E-04   -0.15527E-04  2700   0.537E-02
DAV:   4    -0.120219677059E+03   -0.31062E-06   -0.31066E-06  1950   0.748E-03
DAV:   5    -0.120219677112E+03   -0.53041E-07   -0.52781E-07  1465   0.264E-03
DAV:   6    -0.120219677128E+03   -0.16617E-07   -0.16820E-07  1325   0.133E-03
DAV:   7    -0.120219677134E+03   -0.59372E-08   -0.59642E-08  1310   0.774E-04
DAV:   8    -0.120219677136E+03   -0.22155E-08   -0.21829E-08  1265   0.434E-04    0.345E-01
RMM:   9    -0.120223985907E+03   -0.43088E-02   -0.13261E-02  2200   0.323E-01    0.670E-01
RMM:  10    -0.120217968489E+03    0.60174E-02   -0.65750E-03  2184   0.230E-01    0.134E-01
RMM:  11    -0.120217736140E+03    0.23235E-03   -0.37012E-04  2167   0.723E-02    0.306E-02
RMM:  12    -0.120217670861E+03    0.65279E-04   -0.15610E-04  1996   0.385E-02    0.170E-02
RMM:  13    -0.120217656672E+03    0.14189E-04   -0.30016E-05  1522   0.168E-02    0.772E-03
RMM:  14    -0.120217658707E+03   -0.20346E-05   -0.14782E-05  1330   0.124E-02
   8 F= -.12021766E+03 E0= -.12020442E+03  d E =-.395088E-02
       N       E                     dE             d eps       ncg     rms          rms(c)
DAV:   1    -0.120217679390E+03   -0.22718E-04   -0.55062E-03  2690   0.365E-01
DAV:   2    -0.120217691240E+03   -0.11849E-04   -0.11849E-04  2625   0.500E-02
DAV:   3    -0.120217691292E+03   -0.52352E-07   -0.52277E-07  1590   0.343E-03
DAV:   4    -0.120217691301E+03   -0.91450E-08   -0.91417E-08  1320   0.125E-03
DAV:   5    -0.120217691304E+03   -0.26321E-08   -0.26042E-08  1265   0.602E-04
DAV:   6    -0.120217691305E+03   -0.83946E-09   -0.85073E-09  1265   0.328E-04
DAV:   7    -0.120217691305E+03   -0.38926E-09   -0.29391E-09  1250   0.180E-04
DAV:   8    -0.120217691305E+03    0.93678E-10   -0.10566E-09  1235   0.105E-04    0.215E-02
RMM:   9    -0.120217710414E+03   -0.19109E-04   -0.51213E-05  1547   0.202E-02    0.402E-02
RMM:  10    -0.120217687209E+03    0.23205E-04   -0.22720E-05  1294   0.136E-02    0.681E-03
RMM:  11    -0.120217689902E+03   -0.26931E-05   -0.18758E-06  1091   0.545E-03
   9 F= -.12021769E+03 E0= -.12020445E+03  d E =-.398208E-02
       N       E                     dE             d eps       ncg     rms          rms(c)
DAV:   1    -0.120218703535E+03   -0.10163E-02   -0.61954E-01  2290   0.386E+00
DAV:   2    -0.120219896977E+03   -0.11934E-02   -0.11934E-02  2750   0.500E-01
DAV:   3    -0.120219902729E+03   -0.57517E-05   -0.57518E-05  2595   0.324E-02
DAV:   4    -0.120219902882E+03   -0.15312E-06   -0.15311E-06  1640   0.522E-03
DAV:   5    -0.120219902911E+03   -0.29155E-07   -0.29166E-07  1335   0.198E-03
DAV:   6    -0.120219902920E+03   -0.90376E-08   -0.89876E-08  1310   0.100E-03
DAV:   7    -0.120219902923E+03   -0.29786E-08   -0.30505E-08  1265   0.576E-04
DAV:   8    -0.120219902924E+03   -0.89949E-09   -0.10786E-08  1235   0.319E-04    0.168E-01
RMM:   9    -0.120221151347E+03   -0.12484E-02   -0.35923E-03  2192   0.166E-01    0.377E-01
RMM:  10    -0.120219146939E+03    0.20044E-02   -0.16866E-03  2174   0.118E-01    0.406E-02
RMM:  11    -0.120219116830E+03    0.30110E-04   -0.18403E-04  2026   0.438E-02    0.155E-02
RMM:  12    -0.120219105116E+03    0.11713E-04   -0.42053E-05  1714   0.201E-02    0.137E-02
RMM:  13    -0.120219102849E+03    0.22669E-05   -0.69146E-06  1320   0.944E-03
  10 F= -.12021910E+03 E0= -.12020600E+03  d E =-.141295E-02
       N       E                     dE             d eps       ncg     rms          rms(c)
DAV:   1    -0.120219105534E+03   -0.41795E-06   -0.21778E-03  2730   0.231E-01
DAV:   2    -0.120219110468E+03   -0.49340E-05   -0.49342E-05  2470   0.323E-02
DAV:   3    -0.120219110526E+03   -0.57496E-07   -0.57238E-07  1430   0.306E-03
DAV:   4    -0.120219110536E+03   -0.99290E-08   -0.10077E-07  1285   0.116E-03
DAV:   5    -0.120219110538E+03   -0.26994E-08   -0.26589E-08  1250   0.554E-04
DAV:   6    -0.120219110539E+03   -0.70668E-09   -0.81092E-09  1240   0.296E-04
DAV:   7    -0.120219110540E+03   -0.36562E-09   -0.26970E-09  1235   0.163E-04
DAV:   8    -0.120219110540E+03   -0.85493E-10   -0.95202E-10  1235   0.937E-05    0.804E-03
RMM:   9    -0.120219113310E+03   -0.27700E-05   -0.61081E-06  1119   0.732E-03
  11 F= -.12021911E+03 E0= -.12020606E+03  d E =-.142341E-02
       N       E                     dE             d eps       ncg     rms          rms(c)
DAV:   1    -0.120218819341E+03    0.29120E-03   -0.87043E-01  2340   0.460E+00
DAV:   2    -0.120220418053E+03   -0.15987E-02   -0.15987E-02  2690   0.581E-01
DAV:   3    -0.120220426216E+03   -0.81629E-05   -0.81627E-05  2670   0.389E-02
DAV:   4    -0.120220426375E+03   -0.15905E-06   -0.15908E-06  1720   0.530E-03
DAV:   5    -0.120220426401E+03   -0.26212E-07   -0.26376E-07  1345   0.186E-03
DAV:   6    -0.120220426410E+03   -0.86784E-08   -0.84427E-08  1235   0.931E-04
DAV:   7    -0.120220426413E+03   -0.29004E-08   -0.29779E-08  1235   0.547E-04
DAV:   8    -0.120220426414E+03   -0.10623E-08   -0.10836E-08  1220   0.303E-04    0.109E-01
RMM:   9    -0.120220207568E+03    0.21885E-03   -0.70536E-04  2196   0.844E-02    0.111E-01
RMM:  10    -0.120220082508E+03    0.12506E-03   -0.38521E-04  2114   0.570E-02    0.784E-02
RMM:  11    -0.120219961890E+03    0.12062E-03   -0.19919E-04  2087   0.456E-02    0.175E-02
RMM:  12    -0.120219957255E+03    0.46353E-05   -0.30060E-05  1577   0.178E-02
  12 F= -.12021996E+03 E0= -.12020690E+03  d E =-.843945E-03
       N       E                     dE             d eps       ncg     rms          rms(c)
DAV:   1    -0.120219709568E+03    0.25232E-03   -0.16223E-01  2580   0.199E+00
DAV:   2    -0.120220005508E+03   -0.29594E-03   -0.29594E-03  2715   0.251E-01
DAV:   3    -0.120220006854E+03   -0.13455E-05   -0.13453E-05  1990   0.165E-02
DAV:   4    -0.120220006976E+03   -0.12259E-06   -0.12272E-06  1595   0.495E-03
DAV:   5    -0.120220007005E+03   -0.28922E-07   -0.28943E-07  1275   0.216E-03
DAV:   6    -0.120220007014E+03   -0.84347E-08   -0.84110E-08  1255   0.110E-03
DAV:   7    -0.120220007016E+03   -0.27576E-08   -0.26494E-08  1240   0.589E-04
DAV:   8    -0.120220007017E+03   -0.82036E-09   -0.88561E-09  1210   0.326E-04    0.458E-02
RMM:   9    -0.120219961810E+03    0.45207E-04   -0.12340E-04  2030   0.354E-02    0.453E-02
RMM:  10    -0.120219941741E+03    0.20069E-04   -0.66504E-05  1724   0.240E-02    0.336E-02
RMM:  11    -0.120219918711E+03    0.23030E-04   -0.36014E-05  1659   0.197E-02    0.750E-03
RMM:  12    -0.120219917800E+03    0.91062E-06   -0.68169E-06  1315   0.897E-03
  13 F= -.12021992E+03 E0= -.12020688E+03  d E =-.804491E-03
       N       E                     dE             d eps       ncg     rms          rms(c)
DAV:   1    -0.120219901680E+03    0.17031E-04   -0.54623E-02  2440   0.115E+00
DAV:   2    -0.120220003836E+03   -0.10216E-03   -0.10216E-03  2690   0.147E-01
DAV:   3    -0.120220004269E+03   -0.43305E-06   -0.43283E-06  1700   0.985E-03
DAV:   4    -0.120220004342E+03   -0.72240E-07   -0.72104E-07  1350   0.344E-03
DAV:   5    -0.120220004361E+03   -0.19561E-07   -0.19731E-07  1250   0.161E-03
DAV:   6    -0.120220004367E+03   -0.59417E-08   -0.61044E-08  1235   0.858E-04
DAV:   7    -0.120220004369E+03   -0.21046E-08   -0.20070E-08  1220   0.457E-04
DAV:   8    -0.120220004370E+03   -0.51296E-09   -0.69380E-09  1215   0.264E-04    0.279E-02
RMM:   9    -0.120219991309E+03    0.13060E-04   -0.47254E-05  1786   0.219E-02    0.302E-02
RMM:  10    -0.120219981490E+03    0.98191E-05   -0.24970E-05  1425   0.150E-02
  14 F= -.12021998E+03 E0= -.12020689E+03  d E =-.868181E-03
       N       E                     dE             d eps       ncg     rms          rms(c)
DAV:   1    -0.120219967731E+03    0.23578E-04   -0.44853E-03  2470   0.332E-01
DAV:   2    -0.120219976025E+03   -0.82940E-05   -0.82940E-05  2700   0.425E-02
DAV:   3    -0.120219976061E+03   -0.35459E-07   -0.35519E-07  1355   0.282E-03
DAV:   4    -0.120219976067E+03   -0.58790E-08   -0.60870E-08  1205   0.102E-03
DAV:   5    -0.120219976068E+03   -0.19281E-08   -0.16689E-08  1205   0.485E-04
DAV:   6    -0.120219976069E+03   -0.54297E-09   -0.51994E-09  1200   0.260E-04
DAV:   7    -0.120219976069E+03   -0.61846E-10   -0.17236E-09  1175   0.139E-04
DAV:   8    -0.120219976069E+03    0.34561E-10   -0.59480E-10  1165   0.801E-05    0.858E-03
RMM:   9    -0.120219972764E+03    0.33047E-05   -0.36221E-06  1146   0.631E-03
  15 F= -.12021997E+03 E0= -.12020692E+03  d E =-.859455E-03
       N       E                     dE             d eps       ncg     rms          rms(c)
DAV:   1    -0.120220031182E+03   -0.55113E-04   -0.30537E-01  2220   0.265E+00
DAV:   2    -0.120220576087E+03   -0.54490E-03   -0.54490E-03  2740   0.331E-01
DAV:   3    -0.120220578549E+03   -0.24627E-05   -0.24627E-05  2200   0.216E-02
DAV:   4    -0.120220578685E+03   -0.13628E-06   -0.13623E-06  1435   0.548E-03
DAV:   5    -0.120220578712E+03   -0.26514E-07   -0.26610E-07  1315   0.218E-03
DAV:   6    -0.120220578719E+03   -0.72669E-08   -0.72638E-08  1250   0.104E-03
DAV:   7    -0.120220578722E+03   -0.23738E-08   -0.22346E-08  1230   0.558E-04
DAV:   8    -0.120220578722E+03   -0.52478E-09   -0.73992E-09  1220   0.300E-04    0.100E-01
RMM:   9    -0.120220702730E+03   -0.12401E-03   -0.76723E-04  2156   0.808E-02    0.157E-01
RMM:  10    -0.120220380899E+03    0.32183E-03   -0.43707E-04  2101   0.607E-02    0.431E-02
RMM:  11    -0.120220350792E+03    0.30107E-04   -0.53238E-05  1901   0.241E-02    0.124E-02
RMM:  12    -0.120220345653E+03    0.51396E-05   -0.21543E-05  1412   0.146E-02
  16 F= -.12022035E+03 E0= -.12020724E+03  d E =-.372889E-03
       N       E                     dE             d eps       ncg     rms          rms(c)
DAV:   1    -0.120220343149E+03    0.76431E-05   -0.15415E-03  2640   0.189E-01
DAV:   2    -0.120220345774E+03   -0.26244E-05   -0.26247E-05  2310   0.235E-02
DAV:   3    -0.120220345821E+03   -0.46827E-07   -0.46655E-07  1285   0.256E-03
DAV:   4    -0.120220345830E+03   -0.91404E-08   -0.92147E-08  1250   0.961E-04
DAV:   5    -0.120220345832E+03   -0.25684E-08   -0.24400E-08  1235   0.478E-04
DAV:   6    -0.120220345833E+03   -0.83583E-09   -0.72903E-09  1220   0.247E-04
DAV:   7    -0.120220345833E+03   -0.26648E-09   -0.23648E-09  1205   0.140E-04
DAV:   8    -0.120220345833E+03    0.11732E-09   -0.80502E-10  1205   0.779E-05    0.682E-03
RMM:   9    -0.120220345656E+03    0.17721E-06   -0.22397E-06   914   0.487E-03
  17 F= -.12022035E+03 E0= -.12020721E+03  d E =-.372892E-03
       N       E                     dE             d eps       ncg     rms          rms(c)
DAV:   1    -0.120220328578E+03    0.17255E-04   -0.66596E-02  2290   0.124E+00
DAV:   2    -0.120220459229E+03   -0.13065E-03   -0.13065E-03  2640   0.162E-01
DAV:   3    -0.120220459818E+03   -0.58907E-06   -0.58917E-06  1795   0.111E-02
DAV:   4    -0.120220459908E+03   -0.89726E-07   -0.89767E-07  1290   0.377E-03
DAV:   5    -0.120220459933E+03   -0.24907E-07   -0.24867E-07  1230   0.177E-03
DAV:   6    -0.120220459941E+03   -0.77825E-08   -0.77791E-08  1205   0.940E-04
DAV:   7    -0.120220459943E+03   -0.25348E-08   -0.25763E-08  1205   0.502E-04
DAV:   8    -0.120220459944E+03   -0.11205E-08   -0.89022E-09  1190   0.289E-04    0.243E-02
RMM:   9    -0.120220453487E+03    0.64575E-05   -0.36116E-05  1451   0.202E-02
  18 F= -.12022045E+03 E0= -.12020745E+03  d E =-.107831E-03
       N       E                     dE             d eps       ncg     rms          rms(c)
DAV:   1    -0.120220442986E+03    0.16959E-04   -0.48797E-05  1970   0.361E-02
DAV:   2    -0.120220443657E+03   -0.67082E-06   -0.67089E-06  1270   0.111E-02
DAV:   3    -0.120220443707E+03   -0.50325E-07   -0.50414E-07  1175   0.284E-03
DAV:   4    -0.120220443716E+03   -0.86475E-08   -0.87457E-08  1170   0.107E-03
DAV:   5    -0.120220443718E+03   -0.23128E-08   -0.21416E-08  1160   0.486E-04
DAV:   6    -0.120220443719E+03   -0.69122E-09   -0.60592E-09  1160   0.243E-04
DAV:   7    -0.120220443719E+03   -0.12096E-09   -0.19081E-09  1145   0.131E-04
DAV:   8    -0.120220443719E+03    0.54570E-10   -0.63373E-10  1145   0.716E-05    0.161E-02
RMM:   9    -0.120220455543E+03   -0.11824E-04   -0.27926E-05  1369   0.158E-02    0.311E-02
RMM:  10    -0.120220440198E+03    0.15345E-04   -0.10430E-05  1171   0.935E-03    0.585E-03
RMM:  11    -0.120220441884E+03   -0.16863E-05   -0.31449E-06  1151   0.732E-03
  19 F= -.12022044E+03 E0= -.12020736E+03  d E =-.962278E-04
