 vasp.5.4.4.18Apr17-6-g9f103f2a35 (build Nov 15 2019 10:10:58) complex          
  
 executed on             LinuxIFC date 2024.07.29  10:49:31
 running on   20 total cores
 distrk:  each k-point on   20 cores,    1 groups
 distr:  one band on NCORES_PER_BAND=   4 cores,    5 groups


--------------------------------------------------------------------------------------------------------


 INCAR:
 POTCAR:    PAW_PBE O 08Apr2002                   
 POTCAR:    PAW_PBE Mg 13Apr2007                  
 POTCAR:    PAW_PBE O 08Apr2002                   
   VRHFIN =O: s2p4                                                              
   LEXCH  = PE                                                                  
   EATOM  =   432.3788 eV,   31.7789 Ry                                         
                                                                                
   TITEL  = PAW_PBE O 08Apr2002                                                 
   LULTRA =        F    use ultrasoft PP ?                                      
   IUNSCR =        1    unscreen: 0-lin 1-nonlin 2-no                           
   RPACOR =    1.200    partial core radius                                     
   POMASS =   16.000; ZVAL   =    6.000    mass and valenz                      
   RCORE  =    1.520    outmost cutoff radius                                   
   RWIGS  =    1.550; RWIGS  =    0.820    wigner-seitz radius (au A)           
   ENMAX  =  400.000; ENMIN  =  300.000 eV                                      
   ICORE  =        2    local potential                                         
   LCOR   =        T    correct aug charges                                     
   LPAW   =        T    paw PP                                                  
   EAUG   =  605.392                                                            
   DEXC   =    0.000                                                            
   RMAX   =    1.553    core radius for proj-oper                               
   RAUG   =    1.300    factor for augmentation sphere                          
   RDEP   =    1.550    radius for radial grids                                 
   RDEPT  =    1.329    core radius for aug-charge                              
                                                                                
   Atomic configuration                                                         
    4 entries                                                                   
     n  l   j            E        occ.                                          
     1  0  0.50      -514.6923   2.0000                                         
     2  0  0.50       -23.9615   2.0000                                         
     2  1  0.50        -9.0305   4.0000                                         
     3  2  1.50        -9.5241   0.0000                                         
   Description                                                                  
     l       E           TYP  RCUT    TYP  RCUT                                 
     0    -23.9615318     23  1.200                                             
     0     -9.5240782     23  1.200                                             
     1     -9.0304911     23  1.520                                             
     1      8.1634956     23  1.520                                             
     2     -9.5240782      7  1.500                                             
  local pseudopotential read in
  partial core-charges read in
  partial kinetic energy density read in
  kinetic energy density of atom read in
  atomic valenz-charges read in
  non local Contribution for L=           0  read in
    real space projection operators read in
  non local Contribution for L=           0  read in
    real space projection operators read in
  non local Contribution for L=           1  read in
    real space projection operators read in
  non local Contribution for L=           1  read in
    real space projection operators read in
    PAW grid and wavefunctions read in
 
   number of l-projection  operators is LMAX  =           4
   number of lm-projection operators is LMMAX =           8
 
 POTCAR:    PAW_PBE Mg 13Apr2007                  
   VRHFIN =Mg: s2p0                                                             
   LEXCH  = PE                                                                  
   EATOM  =    23.0369 eV,    1.6932 Ry                                         
                                                                                
   TITEL  = PAW_PBE Mg 13Apr2007                                                
   LULTRA =        F    use ultrasoft PP ?                                      
   IUNSCR =        1    unscreen: 0-lin 1-nonlin 2-no                           
   RPACOR =    1.500    partial core radius                                     
   POMASS =   24.305; ZVAL   =    2.000    mass and valenz                      
   RCORE  =    2.000    outmost cutoff radius                                   
   RWIGS  =    2.880; RWIGS  =    1.524    wigner-seitz radius (au A)           
   ENMAX  =  200.000; ENMIN  =  100.000 eV                                      
   RCLOC  =    1.506    cutoff for local pot                                    
   LCOR   =        T    correct aug charges                                     
   LPAW   =        T    paw PP                                                  
   EAUG   =  454.734                                                            
   DEXC   =    0.000                                                            
   RMAX   =    2.045    core radius for proj-oper                               
   RAUG   =    1.300    factor for augmentation sphere                          
   RDEP   =    2.025    radius for radial grids                                 
   RDEPT  =    1.942    core radius for aug-charge                              
                                                                                
   Atomic configuration                                                         
    6 entries                                                                   
     n  l   j            E        occ.                                          
     1  0  0.50     -1259.6230   2.0000                                         
     2  0  0.50       -79.8442   2.0000                                         
     2  1  1.50       -46.6121   6.0000                                         
     3  0  0.50        -4.7055   2.0000                                         
     3  1  0.50        -1.3660   0.0000                                         
     3  2  1.50        -1.3606   0.0000                                         
   Description                                                                  
     l       E           TYP  RCUT    TYP  RCUT                                 
     0     -4.7054661     23  2.000                                             
     0     27.2116520     23  2.000                                             
     1      1.3605826     23  2.000                                             
     1     27.2116520     23  2.000                                             
     2     -1.3605826     23  2.000                                             
  local pseudopotential read in
  partial core-charges read in
  partial kinetic energy density read in
  atomic valenz-charges read in
  non local Contribution for L=           0  read in
    real space projection operators read in
  non local Contribution for L=           0  read in
    real space projection operators read in
  non local Contribution for L=           1  read in
    real space projection operators read in
  non local Contribution for L=           1  read in
    real space projection operators read in
  non local Contribution for L=           2  read in
    real space projection operators read in
    PAW grid and wavefunctions read in
 
   number of l-projection  operators is LMAX  =           5
   number of lm-projection operators is LMMAX =          13
 
 Optimization of the real space projectors (new method)

 maximal supplied QI-value         = 24.76
 optimisation between [QCUT,QGAM] = [ 11.64, 28.96] = [ 37.91,234.92] Ry 
 Optimized for a Real-space Cutoff    0.91 Angstroem

   l    n(q)    QCUT    max X(q) W(low)/X(q) W(high)/X(q)  e(spline) 
   0      8    11.635    20.381    0.20E-03    0.22E-03    0.69E-07
   0      8    11.635    15.268    0.22E-03    0.24E-03    0.73E-07
   1      7    11.635     5.964    0.40E-03    0.67E-03    0.12E-06
   1      7    11.635     5.382    0.33E-03    0.56E-03    0.11E-06
 Optimization of the real space projectors (new method)

 maximal supplied QI-value         = 18.90
 optimisation between [QCUT,QGAM] = [ 11.53, 29.10] = [ 37.21,237.16] Ry 
 Optimized for a Real-space Cutoff    1.12 Angstroem

   l    n(q)    QCUT    max X(q) W(low)/X(q) W(high)/X(q)  e(spline) 
   0     10    11.527    28.265    0.21E-03    0.84E-05    0.64E-06
   0     10    11.527    10.429    0.17E-03    0.65E-05    0.50E-06
   1      9    11.527    13.073    0.75E-04    0.28E-03    0.46E-06
   1      9    11.527     9.625    0.62E-04    0.23E-03    0.39E-06
   2      9    11.527     4.652    0.39E-03    0.81E-04    0.28E-06
  PAW_PBE O 08Apr2002                   :
 energy of atom  1       EATOM= -432.3788
 kinetic energy error for atom=    0.0208 (will be added to EATOM!!)
  PAW_PBE Mg 13Apr2007                  :
 energy of atom  2       EATOM=  -23.0369
 kinetic energy error for atom=    0.0000 (will be added to EATOM!!)
 
 
 POSCAR: MgO(1 1 1 (2)                           
  positions in direct lattice
  No initial velocities read in
 exchange correlation table for  LEXCH =        8
   RHO(1)=    0.500       N(1)  =     2000
   RHO(2)=  100.500       N(2)  =     4000

 VTST: version 3.2, (02/03/18)

 CHAIN: initializing optimizer
 
 OPT: Using VASP Conjugate-Gradient optimizer
 CHAIN: Read ICHAIN            0
 
 POSCAR: MgO(1 1 1 (2)                           
  positions in direct lattice
  No initial velocities read in
 


--------------------------------------------------------------------------------------------------------


 ion  position               nearest neighbor table
   1  0.333  0.667  0.025-  12 2.12  12 2.12  12 2.12
   2  0.000  0.000  0.149-  16 2.12  16 2.12  16 2.12  19 2.12  19 2.12  19 2.12
   3  0.333  0.667  0.211-  13 2.12  13 2.12  13 2.12  16 2.12  16 2.12  16 2.12
   4  0.000  0.000  0.336-  17 2.12  17 2.12  17 2.12  20 2.12  20 2.12  20 2.12
   5  0.333  0.667  0.398-  14 2.12  14 2.12  14 2.12  17 2.12  17 2.12  17 2.12
   6  0.000  0.000  0.522-  21 2.12  21 2.12  21 2.12  18 2.12  18 2.12  18 2.12
   7  0.333  0.667  0.584-  18 2.12  18 2.12  18 2.12  15 2.12  15 2.12  15 2.12
   8  0.667  0.333  0.087-  19 2.12  19 2.12  19 2.12  12 2.12  12 2.12  12 2.12
   9  0.667  0.333  0.274-  20 2.12  20 2.12  20 2.12  13 2.12  13 2.12  13 2.12
  10  0.667  0.333  0.460-  14 2.12  14 2.12  14 2.12  21 2.12  21 2.12  21 2.12
  11  0.667  0.333  0.646-  15 2.12  15 2.12  15 2.12
  12  0.000  0.000  0.056-   1 2.12   1 2.12   1 2.12   8 2.12   8 2.12   8 2.12  19 3.00  19 3.00
                            19 3.00
  13  0.000  0.000  0.242-   3 2.12   3 2.12   3 2.12   9 2.12   9 2.12   9 2.12  16 3.00  20 3.00
                            16 3.00  16 3.00  20 3.00  20 3.00
  14  0.000  0.000  0.429-   5 2.12  10 2.12  10 2.12   5 2.12  10 2.12   5 2.12  17 3.00  21 3.00
                            17 3.00  17 3.00  21 3.00  21 3.00
  15  0.000  0.000  0.615-  11 2.12  11 2.12  11 2.12   7 2.12   7 2.12   7 2.12  18 3.00  18 3.00
                            18 3.00
  16  0.667  0.333  0.180-   2 2.12   2 2.12   2 2.12   3 2.12   3 2.12   3 2.12  13 3.00  19 3.00
                            19 3.00  13 3.00  13 3.00  19 3.00
  17  0.667  0.333  0.367-   4 2.12   4 2.12   4 2.12   5 2.12   5 2.12   5 2.12  14 3.00  20 3.00
                            20 3.00  14 3.00  14 3.00  20 3.00
  18  0.667  0.333  0.553-   7 2.12   7 2.12   7 2.12   6 2.12   6 2.12   6 2.12  15 3.00  21 3.00
                            21 3.00  15 3.00  15 3.00  21 3.00
  19  0.333  0.667  0.118-   8 2.12   8 2.12   8 2.12   2 2.12   2 2.12   2 2.12  12 3.00  16 3.00
                            16 3.00  12 3.00  12 3.00  16 3.00
  20  0.333  0.667  0.305-   9 2.12   9 2.12   9 2.12   4 2.12   4 2.12   4 2.12  13 3.00  17 3.00
                            17 3.00  13 3.00  13 3.00  17 3.00
  21  0.333  0.667  0.491-   6 2.12   6 2.12   6 2.12  10 2.12  10 2.12  10 2.12  14 3.00  18 3.00
                            18 3.00  14 3.00  14 3.00  18 3.00
 
  LATTYP: Found a hexagonal cell.
 ALAT       =     3.0044062036
 C/A-ratio  =    13.1576307710
  
  Lattice vectors:
  
 A1 = (   2.1244360000,  -2.1244360000,   0.0000000000)
 A2 = (   0.0000000000,   2.1244360000,  -2.1244360000)
 A3 = (  22.8231570000,  22.8231570000,  22.8231570000)


Analysis of symmetry for initial positions (statically):
=====================================================================
 Subroutine PRICEL returns:
 Original cell was already a primitive cell.
 

 Routine SETGRP: Setting up the symmetry group for a 
 hexagonal supercell.


 Subroutine GETGRP returns: Found 12 space group operations
 (whereof  6 operations were pure point group operations)
 out of a pool of 24 trial point group operations.


The static configuration has the point symmetry C_3v.
 The point group associated with its full space group is D_3d.


Analysis of symmetry for dynamics (positions and initial velocities):
=====================================================================
 Subroutine PRICEL returns:
 Original cell was already a primitive cell.
 

 Routine SETGRP: Setting up the symmetry group for a 
 hexagonal supercell.


 Subroutine GETGRP returns: Found 12 space group operations
 (whereof  6 operations were pure point group operations)
 out of a pool of 24 trial point group operations.


The dynamic configuration has the point symmetry C_3v.
 The point group associated with its full space group is D_3d.


Analysis of constrained symmetry for selective dynamics:
=====================================================================
 Subroutine PRICEL returns:
 Original cell was already a primitive cell.
 

 Routine SETGRP: Setting up the symmetry group for a 
 hexagonal supercell.


 Subroutine GETGRP returns: Found 12 space group operations
 (whereof  6 operations were pure point group operations)
 out of a pool of 24 trial point group operations.


The constrained configuration has the point symmetry C_3v.
 The point group associated with its full space group is D_3d.


 Subroutine INISYM returns: Found 12 space group operations
 (whereof  6 operations are pure point group operations),
 and found     1 'primitive' translations

 
 
 KPOINTS: K-Spacing Value to Generate K-Mesh: 0.02

Automatic generation of k-mesh.
Space group operators:
 irot       det(A)        alpha          n_x          n_y          n_z        tau_x        tau_y        tau_z
    1     1.000000     0.000000     1.000000     0.000000     0.000000     0.000000     0.000000     0.000000
    2     1.000000   120.000000    -0.577350    -0.577350    -0.577350     0.000000     0.000000     0.000000
    3     1.000000   120.000000     0.577350     0.577350     0.577350     0.000000     0.000000     0.000000
    4    -1.000000   180.000000     0.707107    -0.707107     0.000000     0.000000     0.000000     0.000000
    5    -1.000000   180.000000     0.000000    -0.707107     0.707107     0.000000     0.000000     0.000000
    6    -1.000000   180.000000     0.707107     0.000000    -0.707107     0.000000     0.000000     0.000000
    7    -1.000000     0.000000     1.000000     0.000000     0.000000     0.000000     0.000000     0.671143
    8    -1.000000   120.000000    -0.577350    -0.577350    -0.577350     0.000000     0.000000     0.671143
    9    -1.000000   120.000000     0.577350     0.577350     0.577350     0.000001    -0.000000     0.671143
   10     1.000000   180.000000     0.707107    -0.707107     0.000000     0.000001    -0.000000     0.671143
   11     1.000000   180.000000     0.000000    -0.707107     0.707107     0.000000     0.000000     0.671143
   12     1.000000   180.000000     0.707107     0.000000    -0.707107     0.000000     0.000000     0.671143
 
 Subroutine IBZKPT returns following result:
 ===========================================
 
 Found     20 irreducible k-points:
 
 Following reciprocal coordinates:
            Coordinates               Weight
  0.062500  0.062500  0.000000     48.000000
  0.187500  0.062500  0.000000     96.000000
  0.312500  0.062500 -0.000000     96.000000
  0.437500  0.062500  0.000000     96.000000
 -0.437500  0.062500  0.000000     96.000000
 -0.312500  0.062500 -0.000000     96.000000
 -0.187500  0.062500  0.000000     96.000000
 -0.062500  0.062500  0.000000     48.000000
  0.187500  0.187500  0.000000     48.000000
  0.312500  0.187500  0.000000     96.000000
  0.437500  0.187500 -0.000000     96.000000
 -0.437500  0.187500  0.000000     96.000000
 -0.312500  0.187500 -0.000000     96.000000
 -0.187500  0.187500 -0.000000     48.000000
  0.312500  0.312500  0.000000     48.000000
  0.437500  0.312500  0.000000     96.000000
 -0.437500  0.312500  0.000000     96.000000
 -0.312500  0.312500  0.000000     48.000000
  0.437500  0.437500  0.000000     48.000000
 -0.437500  0.437500  0.000000     48.000000
 
 Following cartesian coordinates:
            Coordinates               Weight
  0.029420  0.000000 -0.029420     48.000000
  0.068646 -0.019613 -0.049033     96.000000
  0.107872 -0.039226 -0.068646     96.000000
  0.147098 -0.058839 -0.088259     96.000000
 -0.127485  0.078452  0.049033     96.000000
 -0.088259  0.058839  0.029420     96.000000
 -0.049033  0.039226  0.009807     96.000000
 -0.009807  0.019613 -0.009807     48.000000
  0.088259  0.000000 -0.088259     48.000000
  0.127485 -0.019613 -0.107872     96.000000
  0.166711 -0.039226 -0.127485     96.000000
 -0.107872  0.098065  0.009807     96.000000
 -0.068646  0.078452 -0.009807     96.000000
 -0.029420  0.058839 -0.029420     48.000000
  0.147098  0.000000 -0.147098     48.000000
  0.186324 -0.019613 -0.166711     96.000000
 -0.088259  0.117678 -0.029420     96.000000
 -0.049033  0.098065 -0.049033     48.000000
  0.205937  0.000000 -0.205937     48.000000
 -0.068646  0.137291 -0.068646     48.000000
 


--------------------------------------------------------------------------------------------------------




 Dimension of arrays:
   k-points           NKPTS =     20   k-points in BZ     NKDIM =     20   number of bands    NBANDS=     55
   number of dos      NEDOS =    301   number of ions     NIONS =     21
   non local maximal  LDIM  =      5   non local SUM 2l+1 LMDIM =     13
   total plane-waves  NPLWV = 169344
   max r-space proj   IRMAX =   3300   max aug-charges    IRDMAX=   7800
   dimension x,y,z NGX =    24 NGY =   24 NGZ =  294
   dimension x,y,z NGXF=    32 NGYF=   32 NGZF=  432
   support grid    NGXF=    32 NGYF=   32 NGZF=  432
   ions per type =              11  10
   NGX,Y,Z   is equivalent  to a cutoff of  13.28, 13.28, 12.36 a.u.
   NGXF,Y,Z  is equivalent  to a cutoff of  17.71, 17.71, 18.17 a.u.

 SYSTEM =  Al110                                   
 POSCAR =  MgO(1 1 1 (2)                           

 Startparameter for this run:
   NWRITE =      2    write-flag & timer
   PREC   = h         normal or accurate (medium, high low for compatibility)
   ISTART =      0    job   : 0-new  1-cont  2-samecut
   ICHARG =      2    charge: 1-file 2-atom 10-const
   ISPIN  =      1    spin polarized calculation?
   LNONCOLLINEAR =      F non collinear calculations
   LSORBIT =      F    spin-orbit coupling
   INIWAV =      1    electr: 0-lowe 1-rand  2-diag
   LASPH  =      F    aspherical Exc in radial PAW
   METAGGA=      F    non-selfconsistent MetaGGA calc.

 Electronic Relaxation 1
   ENCUT  =  520.0 eV  38.22 Ry    6.18 a.u.   5.59  5.59 73.50*2*pi/ulx,y,z
   ENINI  =  520.0     initial cutoff
   ENAUG  =  605.4 eV  augmentation charge cutoff
   NELM   =    100;   NELMIN=  6; NELMDL=  8     # of ELM steps 
   EDIFF  = 0.1E-04   stopping-criterion for ELM
   LREAL  =      T    real-space projection
   NLSPLINE    = F    spline interpolate recip. space projectors
   LCOMPAT=      F    compatible to vasp.4.4
   GGA_COMPAT  = T    GGA compatible to vasp.4.4-vasp.4.6
   LMAXPAW     = -100 max onsite density
   LMAXMIX     =    2 max onsite mixed and CHGCAR
   VOSKOWN=      0    Vosko Wilk Nusair interpolation
   ROPT   =   -0.00040  -0.00040
 Ionic relaxation
   EDIFFG = -.1E-01   stopping-criterion for IOM
   NSW    =    500    number of steps for IOM
   NBLOCK =      1;   KBLOCK =    500    inner block; outer block 
   IBRION =      2    ionic relax: 0-MD 1-quasi-New 2-CG
   NFREE  =      1    steps in history (QN), initial steepest desc. (CG)
   ISIF   =      2    stress and relaxation
   IWAVPR =     11    prediction:  0-non 1-charg 2-wave 3-comb
   ISYM   =      2    0-nonsym 1-usesym 2-fastsym
   LCORR  =      T    Harris-Foulkes like correction to forces

   POTIM  = 0.5000    time-step for ionic-motion
   TEIN   =    0.0    initial temperature
   TEBEG  =    0.0;   TEEND  =   0.0 temperature during run
   SMASS  =  -3.00    Nose mass-parameter (am)
   estimated Nose-frequenzy (Omega)   =  0.10E-29 period in steps =****** mass=  -0.206E-27a.u.
   SCALEE = 1.0000    scale energy and forces
   NPACO  =    256;   APACO  = 16.0  distance and # of slots for P.C.
   PSTRESS=    0.0 pullay stress

  Mass of Ions in am
   POMASS =  16.00 24.30
  Ionic Valenz
   ZVAL   =   6.00  2.00
  Atomic Wigner-Seitz radii
   RWIGS  =  -1.00 -1.00
  virtual crystal weights 
   VCA    =   1.00  1.00
   NELECT =      86.0000    total number of electrons
   NUPDOWN=      -1.0000    fix difference up-down

 DOS related values:
   EMIN   =  10.00;   EMAX   =-10.00  energy-range for DOS
   EFERMI =   0.00
   ISMEAR =     0;   SIGMA  =   0.05  broadening in eV -4-tet -1-fermi 0-gaus

 Electronic relaxation 2 (details)
   IALGO  =     68    algorithm
   LDIAG  =      T    sub-space diagonalisation (order eigenvalues)
   LSUBROT=      F    optimize rotation matrix (better conditioning)
   TURBO    =      0    0=normal 1=particle mesh
   IRESTART =      0    0=no restart 2=restart with 2 vectors
   NREBOOT  =      0    no. of reboots
   NMIN     =      0    reboot dimension
   EREF     =   0.00    reference energy to select bands
   IMIX   =      4    mixing-type and parameters
     AMIX     =   0.40;   BMIX     =  1.00
     AMIX_MAG =   1.60;   BMIX_MAG =  1.00
     AMIN     =   0.10
     WC   =   100.;   INIMIX=   1;  MIXPRE=   1;  MAXMIX= -45

 Intra band minimization:
   WEIMIN = 0.0010     energy-eigenvalue tresh-hold
   EBREAK =  0.45E-07  absolut break condition
   DEPER  =   0.30     relativ break condition  

   TIME   =   0.40     timestep for ELM

  volume/ion in A,a.u.               =      14.72        99.30
  Fermi-wavevector in a.u.,A,eV,Ry     =   1.068840  2.019816 15.543567  1.142420
  Thomas-Fermi vector in A             =   2.204501
 
 Write flags
   LWAVE        =      F    write WAVECAR
   LDOWNSAMPLE  =      F    k-point downsampling of WAVECAR
   LCHARG       =      F    write CHGCAR
   LVTOT        =      F    write LOCPOT, total local potential
   LVHAR        =      F    write LOCPOT, Hartree potential only
   LELF         =      F    write electronic localiz. function (ELF)
   LORBIT       =      0    0 simple, 1 ext, 2 COOP (PROOUT), +10 PAW based schemes


 Dipole corrections
   LMONO  =      F    monopole corrections only (constant potential shift)
   LDIPOL =      F    correct potential (dipole corrections)
   IDIPOL =      0    1-x, 2-y, 3-z, 4-all directions 
   EPSILON=  1.0000000 bulk dielectric constant

 Exchange correlation treatment:
   GGA     =    --    GGA type
   LEXCH   =     8    internal setting for exchange type
   VOSKOWN=      0    Vosko Wilk Nusair interpolation
   LHFCALC =     F    Hartree Fock is set to
   LHFONE  =     F    Hartree Fock one center treatment
   AEXX    =    0.0000 exact exchange contribution

 Linear response parameters
   LEPSILON=     F    determine dielectric tensor
   LRPA    =     F    only Hartree local field effects (RPA)
   LNABLA  =     F    use nabla operator in PAW spheres
   LVEL    =     F    velocity operator in full k-point grid
   LINTERFAST=   F  fast interpolation
   KINTER  =     0    interpolate to denser k-point grid
   CSHIFT  =0.1000    complex shift for real part using Kramers Kronig
   OMEGAMAX=  -1.0    maximum frequency
   DEG_THRESHOLD= 0.2000000E-02 threshold for treating states as degnerate
   RTIME   =   -0.100 relaxation time in fs
  (WPLASMAI=    0.000 imaginary part of plasma frequency in eV, 0.658/RTIME)
   DFIELD  = 0.0000000 0.0000000 0.0000000 field for delta impulse in time
 
 Orbital magnetization related:
   ORBITALMAG=     F  switch on orbital magnetization
   LCHIMAG   =     F  perturbation theory with respect to B field
   DQ        =  0.001000  dq finite difference perturbation B field
   LLRAUG    =     F  two centre corrections for induced B field



--------------------------------------------------------------------------------------------------------


 conjugate gradient relaxation of ions
   using selective dynamics as specified on POSCAR
 charge density and potential will be updated during run
 non-spin polarized calculation
 RMM-DIIS sequential band-by-band and
  variant of blocked Davidson during initial phase
 perform sub-space diagonalisation
    before iterative eigenvector-optimisation
 modified Broyden-mixing scheme, WC =      100.0
 initial mixing is a Kerker type mixing with AMIX =  0.4000 and BMIX =      1.0000
 Hartree-type preconditioning will be used
 using additional bands           12
 real space projection scheme for non local part
 use partial core corrections
 calculate Harris-corrections to forces 
   (improved forces if not selfconsistent)
 use gradient corrections 
 use of overlap-Matrix (Vanderbilt PP)
 Gauss-broadening in eV      SIGMA  =   0.05


--------------------------------------------------------------------------------------------------------


  energy-cutoff  :      520.00
  volume of cell :      309.02
      direct lattice vectors                 reciprocal lattice vectors
     2.124436000 -2.124436000  0.000000000     0.313808779 -0.156904389 -0.156904389
     0.000000000  2.124436000 -2.124436000     0.156904389  0.156904389 -0.313808779
    22.823157000 22.823157000 22.823157000     0.014605049  0.014605049  0.014605049

  length of vectors
     3.004406204  3.004406204 39.530867513     0.384335692  0.384335692  0.025296687


 
 k-points in units of 2pi/SCALE and weight: K-Spacing Value to Generate K-Mesh: 0.02
   0.02941957  0.00000000 -0.02941957       0.031
   0.06864567 -0.01961305 -0.04903262       0.062
   0.10787177 -0.03922610 -0.06864567       0.062
   0.14709787 -0.05883915 -0.08825872       0.062
  -0.12748482  0.07845219  0.04903262       0.062
  -0.08825872  0.05883915  0.02941957       0.062
  -0.04903262  0.03922610  0.00980652       0.062
  -0.00980652  0.01961305 -0.00980652       0.031
   0.08825872  0.00000000 -0.08825872       0.031
   0.12748482 -0.01961305 -0.10787177       0.062
   0.16671091 -0.03922610 -0.12748482       0.062
  -0.10787177  0.09806524  0.00980652       0.062
  -0.06864567  0.07845219 -0.00980652       0.062
  -0.02941957  0.05883915 -0.02941957       0.031
   0.14709787  0.00000000 -0.14709787       0.031
   0.18632396 -0.01961305 -0.16671091       0.062
  -0.08825872  0.11767829 -0.02941957       0.062
  -0.04903262  0.09806524 -0.04903262       0.031
   0.20593701  0.00000000 -0.20593701       0.031
  -0.06864567  0.13729134 -0.06864567       0.031
 
 k-points in reciprocal lattice and weights: K-Spacing Value to Generate K-Mesh: 0.02
   0.06250000  0.06250000  0.00000000       0.031
   0.18750000  0.06250000  0.00000000       0.062
   0.31250000  0.06250000 -0.00000000       0.062
   0.43750000  0.06250000  0.00000000       0.062
  -0.43750000  0.06250000  0.00000000       0.062
  -0.31250000  0.06250000 -0.00000000       0.062
  -0.18750000  0.06250000  0.00000000       0.062
  -0.06250000  0.06250000  0.00000000       0.031
   0.18750000  0.18750000  0.00000000       0.031
   0.31250000  0.18750000  0.00000000       0.062
   0.43750000  0.18750000 -0.00000000       0.062
  -0.43750000  0.18750000  0.00000000       0.062
  -0.31250000  0.18750000 -0.00000000       0.062
  -0.18750000  0.18750000 -0.00000000       0.031
   0.31250000  0.31250000  0.00000000       0.031
   0.43750000  0.31250000  0.00000000       0.062
  -0.43750000  0.31250000  0.00000000       0.062
  -0.31250000  0.31250000  0.00000000       0.031
   0.43750000  0.43750000  0.00000000       0.031
  -0.43750000  0.43750000  0.00000000       0.031
 
 position of ions in fractional coordinates (direct lattice) 
   0.33333300  0.66666700  0.02529700
   0.00000000  0.00000000  0.14940700
   0.33333300  0.66666700  0.21146200
   0.00000000  0.00000000  0.33557200
   0.33333300  0.66666700  0.39762700
   0.00000000  0.00000000  0.52173600
   0.33333300  0.66666700  0.58379100
   0.66666700  0.33333300  0.08735200
   0.66666700  0.33333300  0.27351700
   0.66666700  0.33333300  0.45968100
   0.66666700  0.33333300  0.64584600
   0.00000000  0.00000000  0.05632400
   0.00000000  0.00000000  0.24248900
   0.00000000  0.00000000  0.42865400
   0.00000000  0.00000000  0.61481900
   0.66666700  0.33333300  0.18043400
   0.66666700  0.33333300  0.36659900
   0.66666700  0.33333300  0.55276400
   0.33333300  0.66666700  0.11837900
   0.33333300  0.66666700  0.30454400
   0.33333300  0.66666700  0.49070900
 
 position of ions in cartesian coordinates  (Angst):
   1.28550203  1.28550415 -0.83893397
   3.40993942  3.40993942  3.40993942
   5.53437505  5.53437718  3.40993905
   7.65881244  7.65881244  7.65881244
   9.78324807  9.78325020  7.65881207
  11.90766264 11.90766264 11.90766264
  14.03209827 14.03210040 11.90766227
   3.40993979  1.28550166  1.28550379
   7.65881281  5.53437468  5.53437681
  11.90766301  9.78322488  9.78322701
  16.15653603 14.03209791 14.03210003
   1.28549149  1.28549149  1.28549149
   5.53436452  5.53436452  5.53436452
   9.78323754  9.78323754  9.78323754
  14.03211056 14.03211056 14.03211056
   5.53436488  3.40992676  3.40992888
   9.78323791  7.65879978  7.65880191
  14.03211093 11.90767281 11.90767493
   3.40992713  3.40992925  1.28549113
   7.65880015  7.65880228  5.53436415
  11.90767317 11.90767530  9.78323717
 


--------------------------------------------------------------------------------------------------------


 k-point  1 :   0.0625 0.0625 0.0000  plane waves:    8409
 k-point  2 :   0.1875 0.0625 0.0000  plane waves:    8374
 k-point  3 :   0.3125 0.0625-0.0000  plane waves:    8308
 k-point  4 :   0.4375 0.0625 0.0000  plane waves:    8279
 k-point  5 :  -0.4375 0.0625 0.0000  plane waves:    8303
 k-point  6 :  -0.3125 0.0625-0.0000  plane waves:    8333
 k-point  7 :  -0.1875 0.0625 0.0000  plane waves:    8385
 k-point  8 :  -0.0625 0.0625 0.0000  plane waves:    8429
 k-point  9 :   0.1875 0.1875 0.0000  plane waves:    8323
 k-point 10 :   0.3125 0.1875 0.0000  plane waves:    8292
 k-point 11 :   0.4375 0.1875-0.0000  plane waves:    8281
 k-point 12 :  -0.4375 0.1875 0.0000  plane waves:    8304
 k-point 13 :  -0.3125 0.1875-0.0000  plane waves:    8346
 k-point 14 :  -0.1875 0.1875-0.0000  plane waves:    8396
 k-point 15 :   0.3125 0.3125 0.0000  plane waves:    8318
 k-point 16 :   0.4375 0.3125 0.0000  plane waves:    8288
 k-point 17 :  -0.4375 0.3125 0.0000  plane waves:    8303
 k-point 18 :  -0.3125 0.3125 0.0000  plane waves:    8314
 k-point 19 :   0.4375 0.4375 0.0000  plane waves:    8236
 k-point 20 :  -0.4375 0.4375 0.0000  plane waves:    8288

 maximum and minimum number of plane-waves per node :      2117     2048

 maximum number of plane-waves:      8429
 maximum index in each direction: 
   IXMAX=    6   IYMAX=    5   IZMAX=   73
   IXMIN=   -6   IYMIN=   -6   IZMIN=  -73


 real space projection operators:
  total allocation   :       4367.45 KBytes
  max/ min on nodes  :       1102.87       1076.92


 parallel 3D FFT for wavefunctions:
    minimum data exchange during FFTs selected (reduces bandwidth)
 parallel 3D FFT for charge:
    minimum data exchange during FFTs selected (reduces bandwidth)


 total amount of memory used by VASP MPI-rank0    45721. kBytes
=======================================================================

   base      :      30000. kBytes
   nonlr-proj:       2527. kBytes
   fftplans  :       2241. kBytes
   grid      :       3249. kBytes
   one-center:         48. kBytes
   wavefun   :       7656. kBytes
 
     INWAV:  cpu time    0.0000: real time    0.0001
 Broyden mixing: mesh for mixing (old mesh)
   NGX = 11   NGY = 11   NGZ =147
  (NGX  = 32   NGY  = 32   NGZ  =432)
  gives a total of  17787 points

 initial charge density was supplied:
 charge density of overlapping atoms calculated
 number of electron      86.0000000 magnetization 
 keeping initial charge density in first step


--------------------------------------------------------------------------------------------------------


 Maximum index for non-local projection operator          813
 Maximum index for augmentation-charges          563 (set IRDMAX)


--------------------------------------------------------------------------------------------------------


 First call to EWALD:  gamma=   0.262
 Maximum number of real-space cells 6x 6x 1
 Maximum number of reciprocal cells 1x 1x14

    FEWALD:  cpu time    0.0015: real time    0.0014


--------------------------------------- Iteration      1(   1)  ---------------------------------------


    POTLOK:  cpu time    0.0146: real time    0.0147
    SETDIJ:  cpu time    0.0032: real time    0.0032
     EDDAV:  cpu time    2.5684: real time    2.5991
       DOS:  cpu time    0.0013: real time    0.0017
    --------------------------------------------
      LOOP:  cpu time    2.5875: real time    2.6187

 eigenvalue-minimisations  :  2200
 total energy-change (2. order) : 0.6367155E+03  (-0.4090599E+04)
 number of electron      86.0000000 magnetization 
 augmentation part       86.0000000 magnetization 

 Free energy of the ion-electron system (eV)
  ---------------------------------------------------
  alpha Z        PSCENC =       133.52262242
  Ewald energy   TEWEN  =     27644.48919962
  -Hartree energ DENC   =    -32412.42860706
  -exchange      EXHF   =         0.00000000
  -V(xc)+E(xc)   XCENC  =      -179.29944202
  PAW double counting   =      4465.11119848    -3966.26921048
  entropy T*S    EENTRO =        -0.00118168
  eigenvalues    EBANDS =       -34.71555381
  atomic energy  EATOM  =      4986.30648943
  Solvation  Ediel_sol  =         0.00000000
  ---------------------------------------------------
  free energy    TOTEN  =       636.71551491 eV

  energy without entropy =      636.71669659  energy(sigma->0) =      636.71610575


--------------------------------------------------------------------------------------------------------




--------------------------------------- Iteration      1(   2)  ---------------------------------------


     EDDAV:  cpu time    3.0364: real time    3.0631
       DOS:  cpu time    0.0009: real time    0.0016
    --------------------------------------------
      LOOP:  cpu time    3.0373: real time    3.0647

 eigenvalue-minimisations  :  2915
 total energy-change (2. order) :-0.7030714E+03  (-0.6883807E+03)
 number of electron      86.0000000 magnetization 
 augmentation part       86.0000000 magnetization 

 Free energy of the ion-electron system (eV)
  ---------------------------------------------------
  alpha Z        PSCENC =       133.52262242
  Ewald energy   TEWEN  =     27644.48919962
  -Hartree energ DENC   =    -32412.42860706
  -exchange      EXHF   =         0.00000000
  -V(xc)+E(xc)   XCENC  =      -179.29944202
  PAW double counting   =      4465.11119848    -3966.26921048
  entropy T*S    EENTRO =        -0.00462059
  eigenvalues    EBANDS =      -737.78346768
  atomic energy  EATOM  =      4986.30648943
  Solvation  Ediel_sol  =         0.00000000
  ---------------------------------------------------
  free energy    TOTEN  =       -66.35583788 eV

  energy without entropy =      -66.35121729  energy(sigma->0) =      -66.35352758


--------------------------------------------------------------------------------------------------------




--------------------------------------- Iteration      1(   3)  ---------------------------------------


     EDDAV:  cpu time    2.6671: real time    2.6897
       DOS:  cpu time    0.0008: real time    0.0008
    --------------------------------------------
      LOOP:  cpu time    2.6679: real time    2.6905

 eigenvalue-minimisations  :  2505
 total energy-change (2. order) :-0.6690470E+02  (-0.6602498E+02)
 number of electron      86.0000000 magnetization 
 augmentation part       86.0000000 magnetization 

 Free energy of the ion-electron system (eV)
  ---------------------------------------------------
  alpha Z        PSCENC =       133.52262242
  Ewald energy   TEWEN  =     27644.48919962
  -Hartree energ DENC   =    -32412.42860706
  -exchange      EXHF   =         0.00000000
  -V(xc)+E(xc)   XCENC  =      -179.29944202
  PAW double counting   =      4465.11119848    -3966.26921048
  entropy T*S    EENTRO =        -0.00890511
  eigenvalues    EBANDS =      -804.68388011
  atomic energy  EATOM  =      4986.30648943
  Solvation  Ediel_sol  =         0.00000000
  ---------------------------------------------------
  free energy    TOTEN  =      -133.26053482 eV

  energy without entropy =     -133.25162972  energy(sigma->0) =     -133.25608227


--------------------------------------------------------------------------------------------------------




--------------------------------------- Iteration      1(   4)  ---------------------------------------


     EDDAV:  cpu time    2.7669: real time    2.7899
       DOS:  cpu time    0.0008: real time    0.0008
    --------------------------------------------
      LOOP:  cpu time    2.7677: real time    2.7907

 eigenvalue-minimisations  :  2750
 total energy-change (2. order) :-0.1401157E+01  (-0.1396258E+01)
 number of electron      86.0000000 magnetization 
 augmentation part       86.0000000 magnetization 

 Free energy of the ion-electron system (eV)
  ---------------------------------------------------
  alpha Z        PSCENC =       133.52262242
  Ewald energy   TEWEN  =     27644.48919962
  -Hartree energ DENC   =    -32412.42860706
  -exchange      EXHF   =         0.00000000
  -V(xc)+E(xc)   XCENC  =      -179.29944202
  PAW double counting   =      4465.11119848    -3966.26921048
  entropy T*S    EENTRO =        -0.00767748
  eigenvalues    EBANDS =      -806.08626507
  atomic energy  EATOM  =      4986.30648943
  Solvation  Ediel_sol  =         0.00000000
  ---------------------------------------------------
  free energy    TOTEN  =      -134.66169216 eV

  energy without entropy =     -134.65401467  energy(sigma->0) =     -134.65785342


--------------------------------------------------------------------------------------------------------




--------------------------------------- Iteration      1(   5)  ---------------------------------------


     EDDAV:  cpu time    2.7604: real time    2.7833
       DOS:  cpu time    0.0008: real time    0.0008
    --------------------------------------------
      LOOP:  cpu time    2.7612: real time    2.7841

 eigenvalue-minimisations  :  2695
 total energy-change (2. order) :-0.3026779E-01  (-0.3024847E-01)
 number of electron      86.0000000 magnetization 
 augmentation part       86.0000000 magnetization 

 Free energy of the ion-electron system (eV)
  ---------------------------------------------------
  alpha Z        PSCENC =       133.52262242
  Ewald energy   TEWEN  =     27644.48919962
  -Hartree energ DENC   =    -32412.42860706
  -exchange      EXHF   =         0.00000000
  -V(xc)+E(xc)   XCENC  =      -179.29944202
  PAW double counting   =      4465.11119848    -3966.26921048
  entropy T*S    EENTRO =        -0.00767730
  eigenvalues    EBANDS =      -806.11653305
  atomic energy  EATOM  =      4986.30648943
  Solvation  Ediel_sol  =         0.00000000
  ---------------------------------------------------
  free energy    TOTEN  =      -134.69195995 eV

  energy without entropy =     -134.68428265  energy(sigma->0) =     -134.68812130


--------------------------------------------------------------------------------------------------------




--------------------------------------- Iteration      1(   6)  ---------------------------------------


     EDDAV:  cpu time    2.7594: real time    2.8064
       DOS:  cpu time    0.0007: real time    0.0007
    --------------------------------------------
      LOOP:  cpu time    2.7601: real time    2.8072

 eigenvalue-minimisations  :  2740
 total energy-change (2. order) :-0.9898746E-03  (-0.9896321E-03)
 number of electron      86.0000000 magnetization 
 augmentation part       86.0000000 magnetization 

 Free energy of the ion-electron system (eV)
  ---------------------------------------------------
  alpha Z        PSCENC =       133.52262242
  Ewald energy   TEWEN  =     27644.48919962
  -Hartree energ DENC   =    -32412.42860706
  -exchange      EXHF   =         0.00000000
  -V(xc)+E(xc)   XCENC  =      -179.29944202
  PAW double counting   =      4465.11119848    -3966.26921048
  entropy T*S    EENTRO =        -0.00767730
  eigenvalues    EBANDS =      -806.11752292
  atomic energy  EATOM  =      4986.30648943
  Solvation  Ediel_sol  =         0.00000000
  ---------------------------------------------------
  free energy    TOTEN  =      -134.69294982 eV

  energy without entropy =     -134.68527252  energy(sigma->0) =     -134.68911117


--------------------------------------------------------------------------------------------------------




--------------------------------------- Iteration      1(   7)  ---------------------------------------


     EDDAV:  cpu time    2.7537: real time    2.7770
       DOS:  cpu time    0.0009: real time    0.0015
    --------------------------------------------
      LOOP:  cpu time    2.7547: real time    2.7785

 eigenvalue-minimisations  :  2695
 total energy-change (2. order) :-0.4057969E-04  (-0.4057373E-04)
 number of electron      86.0000000 magnetization 
 augmentation part       86.0000000 magnetization 

 Free energy of the ion-electron system (eV)
  ---------------------------------------------------
  alpha Z        PSCENC =       133.52262242
  Ewald energy   TEWEN  =     27644.48919962
  -Hartree energ DENC   =    -32412.42860706
  -exchange      EXHF   =         0.00000000
  -V(xc)+E(xc)   XCENC  =      -179.29944202
  PAW double counting   =      4465.11119848    -3966.26921048
  entropy T*S    EENTRO =        -0.00767730
  eigenvalues    EBANDS =      -806.11756350
  atomic energy  EATOM  =      4986.30648943
  Solvation  Ediel_sol  =         0.00000000
  ---------------------------------------------------
  free energy    TOTEN  =      -134.69299040 eV

  energy without entropy =     -134.68531310  energy(sigma->0) =     -134.68915175


--------------------------------------------------------------------------------------------------------




--------------------------------------- Iteration      1(   8)  ---------------------------------------


     EDDAV:  cpu time    2.3418: real time    2.3622
       DOS:  cpu time    0.0008: real time    0.0008
    CHARGE:  cpu time    0.1220: real time    0.1228
    MIXING:  cpu time    0.0012: real time    0.0013
    --------------------------------------------
      LOOP:  cpu time    2.4668: real time    2.4871

 eigenvalue-minimisations  :  2180
 total energy-change (2. order) :-0.1754321E-05  (-0.1754383E-05)
 number of electron      86.0000036 magnetization 
 augmentation part        8.4934321 magnetization 

 Broyden mixing:
  rms(total) = 0.22343E+01    rms(broyden)= 0.22335E+01
  rms(prec ) = 0.22926E+01
  weight for this iteration     100.00

 Free energy of the ion-electron system (eV)
  ---------------------------------------------------
  alpha Z        PSCENC =       133.52262242
  Ewald energy   TEWEN  =     27644.48919962
  -Hartree energ DENC   =    -32412.42860706
  -exchange      EXHF   =         0.00000000
  -V(xc)+E(xc)   XCENC  =      -179.29944202
  PAW double counting   =      4465.11119848    -3966.26921048
  entropy T*S    EENTRO =        -0.00767730
  eigenvalues    EBANDS =      -806.11756525
  atomic energy  EATOM  =      4986.30648943
  Solvation  Ediel_sol  =         0.00000000
  ---------------------------------------------------
  free energy    TOTEN  =      -134.69299216 eV

  energy without entropy =     -134.68531485  energy(sigma->0) =     -134.68915351


--------------------------------------------------------------------------------------------------------




--------------------------------------- Iteration      1(   9)  ---------------------------------------


    POTLOK:  cpu time    0.0118: real time    0.0120
    SETDIJ:  cpu time    0.0030: real time    0.0039
    EDDIAG:  cpu time    0.3545: real time    0.3570
  RMM-DIIS:  cpu time    1.4691: real time    1.4815
    ORTHCH:  cpu time    0.0378: real time    0.0380
       DOS:  cpu time    0.0009: real time    0.0009
    CHARGE:  cpu time    0.1025: real time    0.1031
    MIXING:  cpu time    0.0016: real time    0.0016
    --------------------------------------------
      LOOP:  cpu time    1.9803: real time    1.9980

 eigenvalue-minimisations  :  2200
 total energy-change (2. order) : 0.1444500E+02  (-0.7126107E+01)
 number of electron      86.0000038 magnetization 
 augmentation part        7.1567421 magnetization 

 Broyden mixing:
  rms(total) = 0.79456E+00    rms(broyden)= 0.79339E+00
  rms(prec ) = 0.81949E+00
  weight for this iteration     100.00

 eigenvalues of (default mixing * dielectric matrix)
  average eigenvalue GAMMA=   0.8335
  0.8335

 Free energy of the ion-electron system (eV)
  ---------------------------------------------------
  alpha Z        PSCENC =       133.52262242
  Ewald energy   TEWEN  =     27644.48919962
  -Hartree energ DENC   =    -32598.59113041
  -exchange      EXHF   =         0.00000000
  -V(xc)+E(xc)   XCENC  =      -166.31558818
  PAW double counting   =      5165.89426863    -4670.48546097
  entropy T*S    EENTRO =        -0.01884800
  eigenvalues    EBANDS =      -615.04954486
  atomic energy  EATOM  =      4986.30648943
  Solvation  Ediel_sol  =         0.00000000
  ---------------------------------------------------
  free energy    TOTEN  =      -120.24799232 eV

  energy without entropy =     -120.22914432  energy(sigma->0) =     -120.23856832


--------------------------------------------------------------------------------------------------------




--------------------------------------- Iteration      1(  10)  ---------------------------------------


    POTLOK:  cpu time    0.0127: real time    0.0128
    SETDIJ:  cpu time    0.0023: real time    0.0032
    EDDIAG:  cpu time    0.4310: real time    0.4364
  RMM-DIIS:  cpu time    1.5456: real time    1.5574
    ORTHCH:  cpu time    0.0410: real time    0.0413
       DOS:  cpu time    0.0009: real time    0.0009
    CHARGE:  cpu time    0.0994: real time    0.1000
    MIXING:  cpu time    0.0008: real time    0.0008
    --------------------------------------------
      LOOP:  cpu time    2.1338: real time    2.1528

 eigenvalue-minimisations  :  2200
 total energy-change (2. order) :-0.1213184E+00  (-0.2507614E+00)
 number of electron      86.0000030 magnetization 
 augmentation part        7.0937213 magnetization 

 Broyden mixing:
  rms(total) = 0.56492E+00    rms(broyden)= 0.56450E+00
  rms(prec ) = 0.57558E+00
  weight for this iteration     100.00

 eigenvalues of (default mixing * dielectric matrix)
  average eigenvalue GAMMA=   0.7520
  0.7520  0.7520

 Free energy of the ion-electron system (eV)
  ---------------------------------------------------
  alpha Z        PSCENC =       133.52262242
  Ewald energy   TEWEN  =     27644.48919962
  -Hartree energ DENC   =    -32556.77269849
  -exchange      EXHF   =         0.00000000
  -V(xc)+E(xc)   XCENC  =      -165.55375553
  PAW double counting   =      5386.87878723    -4891.21854742
  entropy T*S    EENTRO =        -0.00641234
  eigenvalues    EBANDS =      -658.01499565
  atomic energy  EATOM  =      4986.30648943
  Solvation  Ediel_sol  =         0.00000000
  ---------------------------------------------------
  free energy    TOTEN  =      -120.36931073 eV

  energy without entropy =     -120.36289839  energy(sigma->0) =     -120.36610456


--------------------------------------------------------------------------------------------------------




--------------------------------------- Iteration      1(  11)  ---------------------------------------


    POTLOK:  cpu time    0.0113: real time    0.0115
    SETDIJ:  cpu time    0.0030: real time    0.0030
    EDDIAG:  cpu time    0.3509: real time    0.3530
  RMM-DIIS:  cpu time    1.5473: real time    1.5603
    ORTHCH:  cpu time    0.0390: real time    0.0393
       DOS:  cpu time    0.0009: real time    0.0009
    CHARGE:  cpu time    0.0985: real time    0.0989
    MIXING:  cpu time    0.0008: real time    0.0008
    --------------------------------------------
      LOOP:  cpu time    2.0518: real time    2.0676

 eigenvalue-minimisations  :  2200
 total energy-change (2. order) : 0.3829282E+00  (-0.4891048E-01)
 number of electron      86.0000030 magnetization 
 augmentation part        7.1118515 magnetization 

 Broyden mixing:
  rms(total) = 0.36849E+00    rms(broyden)= 0.36846E+00
  rms(prec ) = 0.37474E+00
  weight for this iteration     100.00

 eigenvalues of (default mixing * dielectric matrix)
  average eigenvalue GAMMA=   1.3334
  2.3254  0.9904  0.6843

 Free energy of the ion-electron system (eV)
  ---------------------------------------------------
  alpha Z        PSCENC =       133.52262242
  Ewald energy   TEWEN  =     27644.48919962
  -Hartree energ DENC   =    -32571.27135889
  -exchange      EXHF   =         0.00000000
  -V(xc)+E(xc)   XCENC  =      -165.34926432
  PAW double counting   =      5491.74064296    -4995.91490913
  entropy T*S    EENTRO =        -0.00769556
  eigenvalues    EBANDS =      -643.50210908
  atomic energy  EATOM  =      4986.30648943
  Solvation  Ediel_sol  =         0.00000000
  ---------------------------------------------------
  free energy    TOTEN  =      -119.98638253 eV

  energy without entropy =     -119.97868698  energy(sigma->0) =     -119.98253475


--------------------------------------------------------------------------------------------------------




--------------------------------------- Iteration      1(  12)  ---------------------------------------


    POTLOK:  cpu time    0.0107: real time    0.0109
    SETDIJ:  cpu time    0.0030: real time    0.0030
    EDDIAG:  cpu time    0.3547: real time    0.3568
  RMM-DIIS:  cpu time    1.5378: real time    1.5520
    ORTHCH:  cpu time    0.0375: real time    0.0377
       DOS:  cpu time    0.0009: real time    0.0009
    CHARGE:  cpu time    0.0993: real time    0.0996
    MIXING:  cpu time    0.0007: real time    0.0007
    --------------------------------------------
      LOOP:  cpu time    2.0445: real time    2.0616

 eigenvalue-minimisations  :  2200
 total energy-change (2. order) :-0.7403619E+00  (-0.1278661E+00)
 number of electron      86.0000047 magnetization 
 augmentation part        7.1750078 magnetization 

 Broyden mixing:
  rms(total) = 0.99064E+00    rms(broyden)= 0.98944E+00
  rms(prec ) = 0.10962E+01
  weight for this iteration     100.00

 eigenvalues of (default mixing * dielectric matrix)
  average eigenvalue GAMMA=   1.1218
  2.4340  1.0107  0.5213  0.5213

 Free energy of the ion-electron system (eV)
  ---------------------------------------------------
  alpha Z        PSCENC =       133.52262242
  Ewald energy   TEWEN  =     27644.48919962
  -Hartree energ DENC   =    -32610.41272115
  -exchange      EXHF   =         0.00000000
  -V(xc)+E(xc)   XCENC  =      -164.40967778
  PAW double counting   =      5758.69686973    -5262.57390372
  entropy T*S    EENTRO =        -0.01519177
  eigenvalues    EBANDS =      -606.33043122
  atomic energy  EATOM  =      4986.30648943
  Solvation  Ediel_sol  =         0.00000000
  ---------------------------------------------------
  free energy    TOTEN  =      -120.72674444 eV

  energy without entropy =     -120.71155267  energy(sigma->0) =     -120.71914855


--------------------------------------------------------------------------------------------------------




--------------------------------------- Iteration      1(  13)  ---------------------------------------


    POTLOK:  cpu time    0.0113: real time    0.0114
    SETDIJ:  cpu time    0.0028: real time    0.0028
    EDDIAG:  cpu time    0.3241: real time    0.3255
  RMM-DIIS:  cpu time    1.4582: real time    1.4691
    ORTHCH:  cpu time    0.0418: real time    0.0420
       DOS:  cpu time    0.0009: real time    0.0016
    CHARGE:  cpu time    0.1022: real time    0.1035
    MIXING:  cpu time    0.0009: real time    0.0009
    --------------------------------------------
      LOOP:  cpu time    1.9422: real time    1.9568

 eigenvalue-minimisations  :  2200
 total energy-change (2. order) : 0.7315793E+00  (-0.9205330E-01)
 number of electron      86.0000036 magnetization 
 augmentation part        7.1609491 magnetization 

 Broyden mixing:
  rms(total) = 0.13023E+00    rms(broyden)= 0.12734E+00
  rms(prec ) = 0.13702E+00
  weight for this iteration     100.00

 eigenvalues of (default mixing * dielectric matrix)
  average eigenvalue GAMMA=   0.9516
  2.4537  0.9842  0.4571  0.4315  0.4315

 Free energy of the ion-electron system (eV)
  ---------------------------------------------------
  alpha Z        PSCENC =       133.52262242
  Ewald energy   TEWEN  =     27644.48919962
  -Hartree energ DENC   =    -32561.65919575
  -exchange      EXHF   =         0.00000000
  -V(xc)+E(xc)   XCENC  =      -164.24147600
  PAW double counting   =      5784.27580890    -5288.12749329
  entropy T*S    EENTRO =        -0.01896628
  eigenvalues    EBANDS =      -654.54215423
  atomic energy  EATOM  =      4986.30648943
  Solvation  Ediel_sol  =         0.00000000
  ---------------------------------------------------
  free energy    TOTEN  =      -119.99516518 eV

  energy without entropy =     -119.97619889  energy(sigma->0) =     -119.98568204


--------------------------------------------------------------------------------------------------------




--------------------------------------- Iteration      1(  14)  ---------------------------------------


    POTLOK:  cpu time    0.0120: real time    0.0145
    SETDIJ:  cpu time    0.0034: real time    0.0040
    EDDIAG:  cpu time    0.3623: real time    0.3645
  RMM-DIIS:  cpu time    1.5202: real time    1.5317
    ORTHCH:  cpu time    0.0383: real time    0.0384
       DOS:  cpu time    0.0010: real time    0.0039
    CHARGE:  cpu time    0.1157: real time    0.1161
    MIXING:  cpu time    0.0051: real time    0.0051
    --------------------------------------------
      LOOP:  cpu time    2.0579: real time    2.0783

 eigenvalue-minimisations  :  2200
 total energy-change (2. order) : 0.2489154E-01  (-0.1834095E-02)
 number of electron      86.0000036 magnetization 
 augmentation part        7.1542545 magnetization 

 Broyden mixing:
  rms(total) = 0.10403E+00    rms(broyden)= 0.10392E+00
  rms(prec ) = 0.11206E+00
  weight for this iteration     100.00

 eigenvalues of (default mixing * dielectric matrix)
  average eigenvalue GAMMA=   1.1271
  2.4266  1.1387  1.1387  1.0812  0.4886  0.4886

 Free energy of the ion-electron system (eV)
  ---------------------------------------------------
  alpha Z        PSCENC =       133.52262242
  Ewald energy   TEWEN  =     27644.48919962
  -Hartree energ DENC   =    -32569.82223596
  -exchange      EXHF   =         0.00000000
  -V(xc)+E(xc)   XCENC  =      -164.15377332
  PAW double counting   =      5782.73998649    -5286.62259142
  entropy T*S    EENTRO =        -0.02008134
  eigenvalues    EBANDS =      -646.40988958
  atomic energy  EATOM  =      4986.30648943
  Solvation  Ediel_sol  =         0.00000000
  ---------------------------------------------------
  free energy    TOTEN  =      -119.97027364 eV

  energy without entropy =     -119.95019231  energy(sigma->0) =     -119.96023297


--------------------------------------------------------------------------------------------------------




--------------------------------------- Iteration      1(  15)  ---------------------------------------


    POTLOK:  cpu time    0.0117: real time    0.0122
    SETDIJ:  cpu time    0.0030: real time    0.0030
    EDDIAG:  cpu time    0.3545: real time    0.3563
  RMM-DIIS:  cpu time    1.5356: real time    1.5466
    ORTHCH:  cpu time    0.0399: real time    0.0401
       DOS:  cpu time    0.0009: real time    0.0009
    CHARGE:  cpu time    0.1084: real time    0.1094
    MIXING:  cpu time    0.0010: real time    0.0010
    --------------------------------------------
      LOOP:  cpu time    2.0550: real time    2.0695

 eigenvalue-minimisations  :  2200
 total energy-change (2. order) : 0.6103241E-01  (-0.1431028E-01)
 number of electron      86.0000035 magnetization 
 augmentation part        7.1453191 magnetization 

 Broyden mixing:
  rms(total) = 0.67885E-01    rms(broyden)= 0.67835E-01
  rms(prec ) = 0.69561E-01
  weight for this iteration     100.00

 eigenvalues of (default mixing * dielectric matrix)
  average eigenvalue GAMMA=   1.1228
  2.4807  1.3191  1.3191  1.0410  0.7155  0.4922  0.4922

 Free energy of the ion-electron system (eV)
  ---------------------------------------------------
  alpha Z        PSCENC =       133.52262242
  Ewald energy   TEWEN  =     27644.48919962
  -Hartree energ DENC   =    -32593.67651287
  -exchange      EXHF   =         0.00000000
  -V(xc)+E(xc)   XCENC  =      -164.02802369
  PAW double counting   =      5771.55293646    -5275.48845001
  entropy T*S    EENTRO =        -0.02487598
  eigenvalues    EBANDS =      -622.56262662
  atomic energy  EATOM  =      4986.30648943
  Solvation  Ediel_sol  =         0.00000000
  ---------------------------------------------------
  free energy    TOTEN  =      -119.90924123 eV

  energy without entropy =     -119.88436525  energy(sigma->0) =     -119.89680324


--------------------------------------------------------------------------------------------------------




--------------------------------------- Iteration      1(  16)  ---------------------------------------


    POTLOK:  cpu time    0.0176: real time    0.0178
    SETDIJ:  cpu time    0.0067: real time    0.0067
    EDDIAG:  cpu time    0.3564: real time    0.3584
  RMM-DIIS:  cpu time    1.5316: real time    1.5416
    ORTHCH:  cpu time    0.0413: real time    0.0415
       DOS:  cpu time    0.0009: real time    0.0009
    CHARGE:  cpu time    0.0985: real time    0.0989
    MIXING:  cpu time    0.0010: real time    0.0010
    --------------------------------------------
      LOOP:  cpu time    2.0540: real time    2.0668

 eigenvalue-minimisations  :  2200
 total energy-change (2. order) :-0.5507990E-03  (-0.3051511E-02)
 number of electron      86.0000032 magnetization 
 augmentation part        7.1380551 magnetization 

 Broyden mixing:
  rms(total) = 0.69762E-01    rms(broyden)= 0.69199E-01
  rms(prec ) = 0.72016E-01
  weight for this iteration     100.00

 eigenvalues of (default mixing * dielectric matrix)
  average eigenvalue GAMMA=   1.0359
  2.5353  1.1704  1.1704  0.9682  0.9682  0.4911  0.4911  0.4925

 Free energy of the ion-electron system (eV)
  ---------------------------------------------------
  alpha Z        PSCENC =       133.52262242
  Ewald energy   TEWEN  =     27644.48919962
  -Hartree energ DENC   =    -32593.71985511
  -exchange      EXHF   =         0.00000000
  -V(xc)+E(xc)   XCENC  =      -163.95214123
  PAW double counting   =      5770.03968784    -5273.99328291
  entropy T*S    EENTRO =        -0.01497703
  eigenvalues    EBANDS =      -622.58753506
  atomic energy  EATOM  =      4986.30648943
  Solvation  Ediel_sol  =         0.00000000
  ---------------------------------------------------
  free energy    TOTEN  =      -119.90979203 eV

  energy without entropy =     -119.89481500  energy(sigma->0) =     -119.90230352


--------------------------------------------------------------------------------------------------------




--------------------------------------- Iteration      1(  17)  ---------------------------------------


    POTLOK:  cpu time    0.0111: real time    0.0113
    SETDIJ:  cpu time    0.0030: real time    0.0030
    EDDIAG:  cpu time    0.3556: real time    0.3578
  RMM-DIIS:  cpu time    1.5565: real time    1.5688
    ORTHCH:  cpu time    0.0404: real time    0.0405
       DOS:  cpu time    0.0009: real time    0.0009
    CHARGE:  cpu time    0.0997: real time    0.1001
    MIXING:  cpu time    0.0010: real time    0.0010
    --------------------------------------------
      LOOP:  cpu time    2.0683: real time    2.0835

 eigenvalue-minimisations  :  2173
 total energy-change (2. order) :-0.1014509E-01  (-0.1107788E-02)
 number of electron      86.0000033 magnetization 
 augmentation part        7.1334834 magnetization 

 Broyden mixing:
  rms(total) = 0.57797E-01    rms(broyden)= 0.57793E-01
  rms(prec ) = 0.63342E-01
  weight for this iteration     100.00

 eigenvalues of (default mixing * dielectric matrix)
  average eigenvalue GAMMA=   1.2172
  2.6080  2.2923  1.2984  1.2984  0.9383  0.9383  0.4886  0.4886  0.6041

 Free energy of the ion-electron system (eV)
  ---------------------------------------------------
  alpha Z        PSCENC =       133.52262242
  Ewald energy   TEWEN  =     27644.48919962
  -Hartree energ DENC   =    -32589.36013714
  -exchange      EXHF   =         0.00000000
  -V(xc)+E(xc)   XCENC  =      -163.90273510
  PAW double counting   =      5772.44708025    -5276.40802531
  entropy T*S    EENTRO =        -0.01586386
  eigenvalues    EBANDS =      -626.99856743
  atomic energy  EATOM  =      4986.30648943
  Solvation  Ediel_sol  =         0.00000000
  ---------------------------------------------------
  free energy    TOTEN  =      -119.91993712 eV

  energy without entropy =     -119.90407326  energy(sigma->0) =     -119.91200519


--------------------------------------------------------------------------------------------------------




--------------------------------------- Iteration      1(  18)  ---------------------------------------


    POTLOK:  cpu time    0.0115: real time    0.0116
    SETDIJ:  cpu time    0.0029: real time    0.0029
    EDDIAG:  cpu time    0.3765: real time    0.3791
  RMM-DIIS:  cpu time    1.5279: real time    1.5391
    ORTHCH:  cpu time    0.0410: real time    0.0411
       DOS:  cpu time    0.0008: real time    0.0008
    CHARGE:  cpu time    0.0991: real time    0.0994
    MIXING:  cpu time    0.0012: real time    0.0012
    --------------------------------------------
      LOOP:  cpu time    2.0607: real time    2.0752

 eigenvalue-minimisations  :  2200
 total energy-change (2. order) : 0.7980393E-02  (-0.3769673E-03)
 number of electron      86.0000035 magnetization 
 augmentation part        7.1339601 magnetization 

 Broyden mixing:
  rms(total) = 0.42202E-01    rms(broyden)= 0.41841E-01
  rms(prec ) = 0.45819E-01
  weight for this iteration     100.00

 eigenvalues of (default mixing * dielectric matrix)
  average eigenvalue GAMMA=   1.1729
  2.6077  2.3152  0.9597  0.9597  1.2182  1.0382  1.0382  0.4874  0.4874  0.6174

 Free energy of the ion-electron system (eV)
  ---------------------------------------------------
  alpha Z        PSCENC =       133.52262242
  Ewald energy   TEWEN  =     27644.48919962
  -Hartree energ DENC   =    -32591.84194269
  -exchange      EXHF   =         0.00000000
  -V(xc)+E(xc)   XCENC  =      -163.87213965
  PAW double counting   =      5763.13475610    -5267.10734095
  entropy T*S    EENTRO =        -0.02085913
  eigenvalues    EBANDS =      -624.52274187
  atomic energy  EATOM  =      4986.30648943
  Solvation  Ediel_sol  =         0.00000000
  ---------------------------------------------------
  free energy    TOTEN  =      -119.91195673 eV

  energy without entropy =     -119.89109759  energy(sigma->0) =     -119.90152716


--------------------------------------------------------------------------------------------------------




--------------------------------------- Iteration      1(  19)  ---------------------------------------


    POTLOK:  cpu time    0.0120: real time    0.0121
    SETDIJ:  cpu time    0.0030: real time    0.0030
    EDDIAG:  cpu time    0.3538: real time    0.3560
  RMM-DIIS:  cpu time    1.5043: real time    1.5189
    ORTHCH:  cpu time    0.0394: real time    0.0396
       DOS:  cpu time    0.0008: real time    0.0008
    CHARGE:  cpu time    0.0990: real time    0.0994
    MIXING:  cpu time    0.0011: real time    0.0011
    --------------------------------------------
      LOOP:  cpu time    2.0134: real time    2.0309

 eigenvalue-minimisations  :  2177
 total energy-change (2. order) : 0.1778202E-02  (-0.1853670E-03)
 number of electron      86.0000034 magnetization 
 augmentation part        7.1349341 magnetization 

 Broyden mixing:
  rms(total) = 0.37665E-01    rms(broyden)= 0.37653E-01
  rms(prec ) = 0.41979E-01
  weight for this iteration     100.00

 eigenvalues of (default mixing * dielectric matrix)
  average eigenvalue GAMMA=   1.2944
  2.6982  2.6982  2.4998  1.0118  1.0118  0.9690  0.9690  0.4875  0.4875  0.7623
  0.6434

 Free energy of the ion-electron system (eV)
  ---------------------------------------------------
  alpha Z        PSCENC =       133.52262242
  Ewald energy   TEWEN  =     27644.48919962
  -Hartree energ DENC   =    -32593.89790600
  -exchange      EXHF   =         0.00000000
  -V(xc)+E(xc)   XCENC  =      -163.88204263
  PAW double counting   =      5761.58117553    -5265.55273059
  entropy T*S    EENTRO =        -0.01921600
  eigenvalues    EBANDS =      -622.45777032
  atomic energy  EATOM  =      4986.30648943
  Solvation  Ediel_sol  =         0.00000000
  ---------------------------------------------------
  free energy    TOTEN  =      -119.91017853 eV

  energy without entropy =     -119.89096253  energy(sigma->0) =     -119.90057053


--------------------------------------------------------------------------------------------------------




--------------------------------------- Iteration      1(  20)  ---------------------------------------


    POTLOK:  cpu time    0.0113: real time    0.0114
    SETDIJ:  cpu time    0.0030: real time    0.0030
    EDDIAG:  cpu time    0.3544: real time    0.3564
  RMM-DIIS:  cpu time    1.5146: real time    1.5272
    ORTHCH:  cpu time    0.0422: real time    0.0424
       DOS:  cpu time    0.0009: real time    0.0010
    CHARGE:  cpu time    0.1023: real time    0.1027
    MIXING:  cpu time    0.0013: real time    0.0013
    --------------------------------------------
      LOOP:  cpu time    2.0301: real time    2.0455

 eigenvalue-minimisations  :  2183
 total energy-change (2. order) : 0.6780600E-02  (-0.3534183E-03)
 number of electron      86.0000035 magnetization 
 augmentation part        7.1360456 magnetization 

 Broyden mixing:
  rms(total) = 0.23645E-01    rms(broyden)= 0.23628E-01
  rms(prec ) = 0.25873E-01
  weight for this iteration     100.00

 eigenvalues of (default mixing * dielectric matrix)
  average eigenvalue GAMMA=   1.3343
  3.1973  3.1973  2.3337  1.0524  1.0524  0.4876  0.4876  0.9208  0.9208  0.9712
  0.7668  0.6240

 Free energy of the ion-electron system (eV)
  ---------------------------------------------------
  alpha Z        PSCENC =       133.52262242
  Ewald energy   TEWEN  =     27644.48919962
  -Hartree energ DENC   =    -32598.00892274
  -exchange      EXHF   =         0.00000000
  -V(xc)+E(xc)   XCENC  =      -163.88238328
  PAW double counting   =      5761.45081205    -5265.42374203
  entropy T*S    EENTRO =        -0.02116338
  eigenvalues    EBANDS =      -618.33631002
  atomic energy  EATOM  =      4986.30648943
  Solvation  Ediel_sol  =         0.00000000
  ---------------------------------------------------
  free energy    TOTEN  =      -119.90339793 eV

  energy without entropy =     -119.88223455  energy(sigma->0) =     -119.89281624


--------------------------------------------------------------------------------------------------------




--------------------------------------- Iteration      1(  21)  ---------------------------------------


    POTLOK:  cpu time    0.0124: real time    0.0125
    SETDIJ:  cpu time    0.0031: real time    0.0031
    EDDIAG:  cpu time    0.3887: real time    0.3911
  RMM-DIIS:  cpu time    1.5288: real time    1.5402
    ORTHCH:  cpu time    0.0430: real time    0.0431
       DOS:  cpu time    0.0009: real time    0.0009
    CHARGE:  cpu time    0.1025: real time    0.1030
    MIXING:  cpu time    0.0014: real time    0.0014
    --------------------------------------------
      LOOP:  cpu time    2.0806: real time    2.0953

 eigenvalue-minimisations  :  2147
 total energy-change (2. order) : 0.1499602E-02  (-0.8914627E-04)
 number of electron      86.0000035 magnetization 
 augmentation part        7.1367848 magnetization 

 Broyden mixing:
  rms(total) = 0.20139E-01    rms(broyden)= 0.20129E-01
  rms(prec ) = 0.21329E-01
  weight for this iteration     100.00

 eigenvalues of (default mixing * dielectric matrix)
  average eigenvalue GAMMA=   1.3569
  3.7398  3.2594  2.3543  1.0992  1.0992  1.0008  1.0008  0.4875  0.4875  0.9523
  0.7748  0.7748  0.6087

 Free energy of the ion-electron system (eV)
  ---------------------------------------------------
  alpha Z        PSCENC =       133.52262242
  Ewald energy   TEWEN  =     27644.48919962
  -Hartree energ DENC   =    -32599.57303558
  -exchange      EXHF   =         0.00000000
  -V(xc)+E(xc)   XCENC  =      -163.88604535
  PAW double counting   =      5761.12351816    -5265.09617118
  entropy T*S    EENTRO =        -0.02198529
  eigenvalues    EBANDS =      -616.76649056
  atomic energy  EATOM  =      4986.30648943
  Solvation  Ediel_sol  =         0.00000000
  ---------------------------------------------------
  free energy    TOTEN  =      -119.90189832 eV

  energy without entropy =     -119.87991303  energy(sigma->0) =     -119.89090568


--------------------------------------------------------------------------------------------------------




--------------------------------------- Iteration      1(  22)  ---------------------------------------


    POTLOK:  cpu time    0.0122: real time    0.0124
    SETDIJ:  cpu time    0.0031: real time    0.0031
    EDDIAG:  cpu time    0.3511: real time    0.3529
  RMM-DIIS:  cpu time    1.6315: real time    1.6437
    ORTHCH:  cpu time    0.0492: real time    0.0498
       DOS:  cpu time    0.0008: real time    0.0008
    CHARGE:  cpu time    0.0957: real time    0.0959
    MIXING:  cpu time    0.0013: real time    0.0013
    --------------------------------------------
      LOOP:  cpu time    2.1449: real time    2.1600

 eigenvalue-minimisations  :  2165
 total energy-change (2. order) : 0.1248421E-02  (-0.1164951E-03)
 number of electron      86.0000035 magnetization 
 augmentation part        7.1363921 magnetization 

 Broyden mixing:
  rms(total) = 0.94217E-02    rms(broyden)= 0.94122E-02
  rms(prec ) = 0.96335E-02
  weight for this iteration     100.00

 eigenvalues of (default mixing * dielectric matrix)
  average eigenvalue GAMMA=   1.4345
  4.5555  3.1829  2.3055  1.0894  1.0894  1.3042  1.3042  0.4876  0.4876  1.0613
  0.8697  0.8697  0.8483  0.6276

 Free energy of the ion-electron system (eV)
  ---------------------------------------------------
  alpha Z        PSCENC =       133.52262242
  Ewald energy   TEWEN  =     27644.48919962
  -Hartree energ DENC   =    -32602.36446474
  -exchange      EXHF   =         0.00000000
  -V(xc)+E(xc)   XCENC  =      -163.88057680
  PAW double counting   =      5761.35418835    -5265.32926357
  entropy T*S    EENTRO =        -0.02221842
  eigenvalues    EBANDS =      -613.97662619
  atomic energy  EATOM  =      4986.30648943
  Solvation  Ediel_sol  =         0.00000000
  ---------------------------------------------------
  free energy    TOTEN  =      -119.90064990 eV

  energy without entropy =     -119.87843149  energy(sigma->0) =     -119.88954069


--------------------------------------------------------------------------------------------------------




--------------------------------------- Iteration      1(  23)  ---------------------------------------


    POTLOK:  cpu time    0.0108: real time    0.0109
    SETDIJ:  cpu time    0.0029: real time    0.0029
    EDDIAG:  cpu time    0.3356: real time    0.3375
  RMM-DIIS:  cpu time    1.5122: real time    1.5225
    ORTHCH:  cpu time    0.0386: real time    0.0387
       DOS:  cpu time    0.0009: real time    0.0009
    CHARGE:  cpu time    0.0988: real time    0.0992
    MIXING:  cpu time    0.0014: real time    0.0014
    --------------------------------------------
      LOOP:  cpu time    2.0012: real time    2.0140

 eigenvalue-minimisations  :  2043
 total energy-change (2. order) : 0.2560570E-04  (-0.5029698E-04)
 number of electron      86.0000034 magnetization 
 augmentation part        7.1360070 magnetization 

 Broyden mixing:
  rms(total) = 0.52633E-02    rms(broyden)= 0.52508E-02
  rms(prec ) = 0.55435E-02
  weight for this iteration     100.00

 eigenvalues of (default mixing * dielectric matrix)
  average eigenvalue GAMMA=   1.5516
  4.0748  4.0748  2.5860  2.5860  1.6854  1.0789  1.0789  0.4875  0.4875  0.9217
  0.9217  0.9110  0.9110  0.8444  0.6247

 Free energy of the ion-electron system (eV)
  ---------------------------------------------------
  alpha Z        PSCENC =       133.52262242
  Ewald energy   TEWEN  =     27644.48919962
  -Hartree energ DENC   =    -32603.73988561
  -exchange      EXHF   =         0.00000000
  -V(xc)+E(xc)   XCENC  =      -163.87713697
  PAW double counting   =      5761.34305129    -5265.31951560
  entropy T*S    EENTRO =        -0.02224700
  eigenvalues    EBANDS =      -612.60320189
  atomic energy  EATOM  =      4986.30648943
  Solvation  Ediel_sol  =         0.00000000
  ---------------------------------------------------
  free energy    TOTEN  =      -119.90062430 eV

  energy without entropy =     -119.87837730  energy(sigma->0) =     -119.88950080


--------------------------------------------------------------------------------------------------------




--------------------------------------- Iteration      1(  24)  ---------------------------------------


    POTLOK:  cpu time    0.0114: real time    0.0115
    SETDIJ:  cpu time    0.0030: real time    0.0030
    EDDIAG:  cpu time    0.3897: real time    0.3923
  RMM-DIIS:  cpu time    1.3677: real time    1.3769
    ORTHCH:  cpu time    0.0401: real time    0.0403
       DOS:  cpu time    0.0010: real time    0.0016
    CHARGE:  cpu time    0.1005: real time    0.1010
    MIXING:  cpu time    0.0015: real time    0.0016
    --------------------------------------------
      LOOP:  cpu time    1.9149: real time    1.9282

 eigenvalue-minimisations  :  1975
 total energy-change (2. order) :-0.1327654E-03  (-0.2076728E-04)
 number of electron      86.0000034 magnetization 
 augmentation part        7.1355714 magnetization 

 Broyden mixing:
  rms(total) = 0.60420E-02    rms(broyden)= 0.59958E-02
  rms(prec ) = 0.67186E-02
  weight for this iteration     100.00

 eigenvalues of (default mixing * dielectric matrix)
  average eigenvalue GAMMA=   1.4832
  3.6028  3.6028  2.9025  2.2914  2.2914  1.0774  1.0774  0.4875  0.4875  1.0196
  1.0196  0.8130  0.8130  0.8139  0.8139  0.6171

 Free energy of the ion-electron system (eV)
  ---------------------------------------------------
  alpha Z        PSCENC =       133.52262242
  Ewald energy   TEWEN  =     27644.48919962
  -Hartree energ DENC   =    -32602.33728436
  -exchange      EXHF   =         0.00000000
  -V(xc)+E(xc)   XCENC  =      -163.87610141
  PAW double counting   =      5761.08507963    -5265.06105581
  entropy T*S    EENTRO =        -0.02131652
  eigenvalues    EBANDS =      -614.00839007
  atomic energy  EATOM  =      4986.30648943
  Solvation  Ediel_sol  =         0.00000000
  ---------------------------------------------------
  free energy    TOTEN  =      -119.90075706 eV

  energy without entropy =     -119.87944055  energy(sigma->0) =     -119.89009880


--------------------------------------------------------------------------------------------------------




--------------------------------------- Iteration      1(  25)  ---------------------------------------


    POTLOK:  cpu time    0.0140: real time    0.0155
    SETDIJ:  cpu time    0.0028: real time    0.0036
    EDDIAG:  cpu time    0.3587: real time    0.3611
  RMM-DIIS:  cpu time    1.0231: real time    1.0286
    ORTHCH:  cpu time    0.0388: real time    0.0390
       DOS:  cpu time    0.0009: real time    0.0009
    CHARGE:  cpu time    0.1097: real time    0.1105
    MIXING:  cpu time    0.0076: real time    0.0077
    --------------------------------------------
      LOOP:  cpu time    1.5556: real time    1.5669

 eigenvalue-minimisations  :  1388
 total energy-change (2. order) : 0.6893168E-04  (-0.1809737E-05)
 number of electron      86.0000034 magnetization 
 augmentation part        7.1354767 magnetization 

 Broyden mixing:
  rms(total) = 0.34312E-02    rms(broyden)= 0.34269E-02
  rms(prec ) = 0.38240E-02
  weight for this iteration     100.00

 eigenvalues of (default mixing * dielectric matrix)
  average eigenvalue GAMMA=   1.5244
  4.2883  4.2883  2.8236  2.4172  1.0817  1.0817  1.4417  1.4417  0.4875  0.4875
  0.9515  0.9515  0.9058  0.9058  0.8700  0.8700  0.6210

 Free energy of the ion-electron system (eV)
  ---------------------------------------------------
  alpha Z        PSCENC =       133.52262242
  Ewald energy   TEWEN  =     27644.48919962
  -Hartree energ DENC   =    -32602.74357086
  -exchange      EXHF   =         0.00000000
  -V(xc)+E(xc)   XCENC  =      -163.87247608
  PAW double counting   =      5761.32439843    -5265.30142112
  entropy T*S    EENTRO =        -0.02171231
  eigenvalues    EBANDS =      -613.60421766
  atomic energy  EATOM  =      4986.30648943
  Solvation  Ediel_sol  =         0.00000000
  ---------------------------------------------------
  free energy    TOTEN  =      -119.90068813 eV

  energy without entropy =     -119.87897582  energy(sigma->0) =     -119.88983197


--------------------------------------------------------------------------------------------------------




--------------------------------------- Iteration      1(  26)  ---------------------------------------


    POTLOK:  cpu time    0.0120: real time    0.0121
    SETDIJ:  cpu time    0.0030: real time    0.0030
    EDDIAG:  cpu time    0.3593: real time    0.3609
  RMM-DIIS:  cpu time    1.1246: real time    1.1323
    ORTHCH:  cpu time    0.0391: real time    0.0393
       DOS:  cpu time    0.0009: real time    0.0009
    CHARGE:  cpu time    0.1002: real time    0.1008
    MIXING:  cpu time    0.0017: real time    0.0017
    --------------------------------------------
[...]
     39      -2.4199      2.00000
     40      -2.4094      2.00000
     41      -2.0151      2.00000
     42      -2.0117      2.00000
     43      -1.3301      1.86055
     44      -1.3270      1.83540
     45       7.8291      0.00000
     46       8.0125      0.00000
     47       8.2506      0.00000
     48       8.2664      0.00000
     49       8.4517      0.00000
     50       8.6697      0.00000
     51       8.9700      0.00000
     52       9.3229      0.00000
     53       9.6268      0.00000
     54       9.7423      0.00000
     55       9.8485      0.00000

 k-point    17 :      -0.4375    0.3125    0.0000
  band No.  band energies     occupation 
      1     -17.7457      2.00000
      2     -17.7002      2.00000
      3     -17.6334      2.00000
      4     -17.5600      2.00000
      5     -17.4793      2.00000
      6     -17.4038      2.00000
      7     -17.3331      2.00000
      8     -17.2801      2.00000
      9     -17.2686      2.00000
     10     -16.6065      2.00000
     11     -16.6037      2.00000
     12      -5.5757      2.00000
     13      -5.4385      2.00000
     14      -5.2872      2.00000
     15      -5.2431      2.00000
     16      -5.1654      2.00000
     17      -5.0367      2.00000
     18      -5.0096      2.00000
     19      -4.8508      2.00000
     20      -4.7678      2.00000
     21      -4.3240      2.00000
     22      -4.0913      2.00000
     23      -3.8258      2.00000
     24      -3.5542      2.00000
     25      -3.3163      2.00000
     26      -3.1676      2.00000
     27      -3.0822      2.00000
     28      -3.0319      2.00000
     29      -3.0157      2.00000
     30      -2.9253      2.00000
     31      -2.8896      2.00000
     32      -2.7543      2.00000
     33      -2.7288      2.00000
     34      -2.6132      2.00000
     35      -2.5899      2.00000
     36      -2.4716      2.00000
     37      -2.3594      2.00000
     38      -2.3144      2.00000
     39      -2.2735      2.00000
     40      -2.2064      2.00000
     41      -1.6401      2.00000
     42      -1.6371      2.00000
     43      -1.3328      1.87953
     44      -1.3296      1.85649
     45       6.5600      0.00000
     46       6.8726      0.00000
     47       7.2667      0.00000
     48       7.6349      0.00000
     49       7.9148      0.00000
     50       8.2148      0.00000
     51       8.4668      0.00000
     52       8.6361      0.00000
     53       8.7159      0.00000
     54       8.9070      0.00000
     55       9.0425      0.00000

 k-point    18 :      -0.3125    0.3125    0.0000
  band No.  band energies     occupation 
      1     -18.0171      2.00000
      2     -17.9579      2.00000
      3     -17.8703      2.00000
      4     -17.7699      2.00000
      5     -17.6573      2.00000
      6     -17.5468      2.00000
      7     -17.4427      2.00000
      8     -17.3673      2.00000
      9     -17.3326      2.00000
     10     -16.6943      2.00000
     11     -16.6914      2.00000
     12      -5.2722      2.00000
     13      -5.2447      2.00000
     14      -5.1409      2.00000
     15      -5.0894      2.00000
     16      -4.9609      2.00000
     17      -4.8727      2.00000
     18      -4.7296      2.00000
     19      -4.5821      2.00000
     20      -4.4239      2.00000
     21      -4.3359      2.00000
     22      -4.1219      2.00000
     23      -3.7897      2.00000
     24      -3.4525      2.00000
     25      -3.1495      2.00000
     26      -2.8815      2.00000
     27      -2.7317      2.00000
     28      -2.6721      2.00000
     29      -2.6516      2.00000
     30      -2.5846      2.00000
     31      -2.4863      2.00000
     32      -2.4818      2.00000
     33      -2.3772      2.00000
     34      -2.3161      2.00000
     35      -2.2721      2.00000
     36      -2.1887      2.00000
     37      -2.1732      2.00000
     38      -2.1163      2.00000
     39      -2.1004      2.00000
     40      -2.0788      2.00000
     41      -1.3566      1.97396
     42      -1.3536      1.96774
     43      -1.3315      1.87048
     44      -1.3282      1.84541
     45       5.7683      0.00000
     46       6.0872      0.00000
     47       6.4908      0.00000
     48       6.9153      0.00000
     49       7.3529      0.00000
     50       7.7795      0.00000
     51       8.0664      0.00000
     52       8.2707      0.00000
     53       8.3902      0.00000
     54       8.5221      0.00000
     55       8.9227      0.00000

 k-point    19 :       0.4375    0.4375    0.0000
  band No.  band energies     occupation 
      1     -17.5062      2.00000
      2     -17.4829      2.00000
      3     -17.4472      2.00000
      4     -17.4107      2.00000
      5     -17.3702      2.00000
      6     -17.3372      2.00000
      7     -17.3092      2.00000
      8     -17.2392      2.00000
      9     -17.2353      2.00000
     10     -16.5508      2.00000
     11     -16.5480      2.00000
     12      -5.9288      2.00000
     13      -5.7859      2.00000
     14      -5.5823      2.00000
     15      -5.4299      2.00000
     16      -5.3685      2.00000
     17      -5.3210      2.00000
     18      -5.2309      2.00000
     19      -5.1009      2.00000
     20      -5.0753      2.00000
     21      -4.0229      2.00000
     22      -4.0195      2.00000
     23      -3.5927      2.00000
     24      -3.5902      2.00000
     25      -3.3958      2.00000
     26      -3.3572      2.00000
     27      -3.3080      2.00000
     28      -3.2490      2.00000
     29      -3.0787      2.00000
     30      -2.9999      2.00000
     31      -2.9970      2.00000
     32      -2.8868      2.00000
     33      -2.8380      2.00000
     34      -2.7226      2.00000
     35      -2.7074      2.00000
     36      -2.5565      2.00000
     37      -2.4346      2.00000
     38      -2.3863      2.00000
     39      -2.3750      2.00000
     40      -2.3622      2.00000
     41      -1.7164      2.00000
     42      -1.7134      2.00000
     43      -1.3665      1.98779
     44      -1.3633      1.98436
     45       6.7283      0.00000
     46       7.0947      0.00000
     47       7.5787      0.00000
     48       7.9146      0.00000
     49       8.0793      0.00000
     50       8.2929      0.00000
     51       8.4802      0.00000
     52       8.6055      0.00000
     53       8.7254      0.00000
     54       8.7818      0.00000
     55       8.9010      0.00000

 k-point    20 :      -0.4375    0.4375    0.0000
  band No.  band energies     occupation 
      1     -17.6256      2.00000
      2     -17.5906      2.00000
      3     -17.5392      2.00000
      4     -17.4846      2.00000
      5     -17.4249      2.00000
      6     -17.3716      2.00000
      7     -17.3228      2.00000
      8     -17.2694      2.00000
      9     -17.2648      2.00000
     10     -16.5843      2.00000
     11     -16.5815      2.00000
     12      -5.9814      2.00000
     13      -5.8366      2.00000
     14      -5.6292      2.00000
     15      -5.5176      2.00000
     16      -5.4127      2.00000
     17      -5.3817      2.00000
     18      -5.2649      2.00000
     19      -5.1414      2.00000
     20      -5.1042      2.00000
     21      -4.1123      2.00000
     22      -4.0715      2.00000
     23      -3.7740      2.00000
     24      -3.4345      2.00000
     25      -3.1273      2.00000
     26      -3.0580      2.00000
     27      -2.9433      2.00000
     28      -2.9038      2.00000
     29      -2.8433      2.00000
     30      -2.7546      2.00000
     31      -2.7319      2.00000
     32      -2.6545      2.00000
     33      -2.5436      2.00000
     34      -2.5141      2.00000
     35      -2.4367      2.00000
     36      -2.3746      2.00000
     37      -2.3360      2.00000
     38      -2.2949      2.00000
     39      -2.2616      2.00000
     40      -2.2402      2.00000
     41      -1.4742      2.00000
     42      -1.4712      2.00000
     43      -1.4038      1.99963
     44      -1.4006      1.99948
     45       6.1864      0.00000
     46       6.5808      0.00000
     47       7.0810      0.00000
     48       7.5621      0.00000
     49       7.6546      0.00000
     50       7.8609      0.00000
     51       7.9748      0.00000
     52       8.0543      0.00000
     53       8.2753      0.00000
     54       8.2901      0.00000
     55       8.4757      0.00000


--------------------------------------------------------------------------------------------------------


 soft charge-density along one line, spin component           1
         0         1         2         3         4         5         6         7         8         9
 total charge-density along one line
 
 pseudopotential strength for first ion, spin component:           1
 12.837 -15.672  -0.021  -0.021  -0.021   0.027   0.027   0.027
-15.672  19.156   0.027   0.027   0.027  -0.034  -0.034  -0.034
 -0.021   0.027  -9.196   0.002   0.002  11.191  -0.003  -0.003
 -0.021   0.027   0.002  -9.196   0.002  -0.003  11.191  -0.003
 -0.021   0.027   0.002   0.002  -9.196  -0.003  -0.003  11.191
  0.027  -0.034  11.191  -0.003  -0.003 -13.498   0.004   0.004
  0.027  -0.034  -0.003  11.191  -0.003   0.004 -13.498   0.004
  0.027  -0.034  -0.003  -0.003  11.191   0.004   0.004 -13.498
 total augmentation occupancy for first ion, spin component:           1
  2.449   0.255   0.091   0.091   0.091   0.031   0.031   0.031
  0.255   0.043   0.072   0.072   0.072   0.010   0.010   0.010
  0.091   0.072   1.866  -0.026  -0.026   0.160  -0.009  -0.009
  0.091   0.072  -0.026   1.866  -0.026  -0.009   0.160  -0.009
  0.091   0.072  -0.026  -0.026   1.866  -0.009  -0.009   0.160
  0.031   0.010   0.160  -0.009  -0.009   0.016  -0.001  -0.001
  0.031   0.010  -0.009   0.160  -0.009  -0.001   0.016  -0.001
  0.031   0.010  -0.009  -0.009   0.160  -0.001  -0.001   0.016


------------------------ aborting loop because EDIFF is reached ----------------------------------------


    CHARGE:  cpu time    0.1048: real time    0.1049
    FORLOC:  cpu time    0.0024: real time    0.0024
    FORNL :  cpu time    0.5610: real time    0.5617
    STRESS:  cpu time    1.6624: real time    1.6671
    FORCOR:  cpu time    0.0135: real time    0.0136
    FORHAR:  cpu time    0.0049: real time    0.0049
    MIXING:  cpu time    0.0007: real time    0.0007
    OFIELD:  cpu time    0.0000: real time    0.0000

  FORCE on cell =-STRESS in cart. coord.  units (eV):
  Direction    XX          YY          ZZ          XY          YZ          ZX
  --------------------------------------------------------------------------------------
  Alpha Z   133.52262   133.52262   133.52262
  Ewald    9391.71852  9391.71879  9391.71852-21347.92474-21347.92474-21347.92476
  Hartree 11050.99254 11050.99254 11050.99254-21067.11780-21067.11780-21067.11781
  E(xc)    -391.49243  -391.49245  -391.49243     0.02614     0.02614     0.02616
  Local  -21593.14408-21593.14349-21593.14408 42414.39837 42414.39837 42414.39907
  n-local  -200.46895  -206.53309  -212.67135    -1.84907     1.32460    -0.10712
  augment    74.03996    74.04000    74.03996    -0.18734    -0.18734    -0.18728
  Kinetic  1527.24148  1542.78614  1558.64195    15.20575   -16.05888    -0.97950
  Fock        0.00000     0.00000     0.00000     0.00000     0.00000     0.00000
  -------------------------------------------------------------------------------------
  Total       1.96949     1.96949     1.96949    -1.62652    -1.62652    -1.62652
  in kB      10.21125    10.21125    10.21125    -8.43306    -8.43306    -8.43306
  external pressure =       10.21 kB  Pullay stress =        0.00 kB


 VOLUME and BASIS-vectors are now :
 -----------------------------------------------------------------------------
  energy-cutoff  :      520.00
  volume of cell :      309.02
      direct lattice vectors                 reciprocal lattice vectors
     2.124436000 -2.124436000  0.000000000     0.313808779 -0.156904389 -0.156904389
     0.000000000  2.124436000 -2.124436000     0.156904389  0.156904389 -0.313808779
    22.823157000 22.823157000 22.823157000     0.014605049  0.014605049  0.014605049

  length of vectors
     3.004406204  3.004406204 39.530867513     0.384335692  0.384335692  0.025296687


 FORCES acting on ions
    electron-ion (+dipol)            ewald-force                    non-local-force                 convergence-correction
 -----------------------------------------------------------------------------------------------
   0.107E+04 0.107E+04 0.107E+04   -.108E+04 -.108E+04 -.108E+04   0.861E+01 0.861E+01 0.861E+01   0.230E-02 0.230E-02 0.230E-02
   0.637E+03 0.637E+03 0.637E+03   -.638E+03 -.638E+03 -.638E+03   0.250E+00 0.250E+00 0.250E+00   0.310E-02 0.310E-02 0.310E-02
   0.425E+03 0.425E+03 0.425E+03   -.425E+03 -.425E+03 -.425E+03   0.482E-01 0.482E-01 0.482E-01   0.743E-03 0.743E-03 0.743E-03
   -.154E-01 -.154E-01 -.154E-01   -.187E-02 -.187E-02 -.187E-02   -.108E-18 0.108E-18 0.000E+00   -.253E-05 -.253E-05 -.253E-05
   -.212E+03 -.212E+03 -.212E+03   0.212E+03 0.212E+03 0.212E+03   -.121E-01 -.121E-01 -.121E-01   0.316E-02 0.316E-02 0.316E-02
   -.637E+03 -.637E+03 -.637E+03   0.638E+03 0.638E+03 0.638E+03   -.250E+00 -.250E+00 -.250E+00   -.311E-02 -.311E-02 -.311E-02
   -.853E+03 -.853E+03 -.853E+03   0.854E+03 0.854E+03 0.854E+03   -.121E+01 -.121E+01 -.121E+01   -.325E-02 -.325E-02 -.325E-02
   0.853E+03 0.853E+03 0.853E+03   -.854E+03 -.854E+03 -.854E+03   0.121E+01 0.121E+01 0.121E+01   0.325E-02 0.325E-02 0.325E-02
   0.212E+03 0.212E+03 0.212E+03   -.212E+03 -.212E+03 -.212E+03   0.121E-01 0.121E-01 0.121E-01   -.316E-02 -.316E-02 -.316E-02
   -.425E+03 -.425E+03 -.425E+03   0.425E+03 0.425E+03 0.425E+03   -.482E-01 -.482E-01 -.482E-01   -.740E-03 -.740E-03 -.740E-03
   -.107E+04 -.107E+04 -.107E+04   0.108E+04 0.108E+04 0.108E+04   -.861E+01 -.861E+01 -.861E+01   -.230E-02 -.230E-02 -.230E-02
   0.324E+03 0.324E+03 0.324E+03   -.325E+03 -.325E+03 -.325E+03   0.126E+01 0.126E+01 0.126E+01   0.881E-03 0.881E-03 0.881E-03
   0.106E+03 0.106E+03 0.106E+03   -.106E+03 -.106E+03 -.106E+03   0.123E-01 0.123E-01 0.123E-01   -.917E-04 -.917E-04 -.917E-04
   -.106E+03 -.106E+03 -.106E+03   0.106E+03 0.106E+03 0.106E+03   -.123E-01 -.123E-01 -.123E-01   0.927E-04 0.927E-04 0.927E-04
   -.324E+03 -.324E+03 -.324E+03   0.325E+03 0.325E+03 0.325E+03   -.126E+01 -.126E+01 -.126E+01   -.882E-03 -.882E-03 -.882E-03
   0.177E+03 0.177E+03 0.177E+03   -.177E+03 -.177E+03 -.177E+03   0.552E-01 0.552E-01 0.552E-01   0.670E-03 0.670E-03 0.670E-03
   -.354E+02 -.354E+02 -.354E+02   0.354E+02 0.354E+02 0.354E+02   -.309E-02 -.309E-02 -.309E-02   0.573E-03 0.573E-03 0.573E-03
   -.248E+03 -.248E+03 -.248E+03   0.249E+03 0.249E+03 0.249E+03   -.279E+00 -.279E+00 -.279E+00   -.839E-03 -.839E-03 -.839E-03
   0.248E+03 0.248E+03 0.248E+03   -.249E+03 -.249E+03 -.249E+03   0.279E+00 0.279E+00 0.279E+00   0.838E-03 0.838E-03 0.838E-03
   0.354E+02 0.354E+02 0.354E+02   -.354E+02 -.354E+02 -.354E+02   0.309E-02 0.309E-02 0.309E-02   -.574E-03 -.574E-03 -.574E-03
   -.177E+03 -.177E+03 -.177E+03   0.177E+03 0.177E+03 0.177E+03   -.552E-01 -.552E-01 -.552E-01   -.669E-03 -.669E-03 -.669E-03
 -----------------------------------------------------------------------------------------------
   -.465E-01 -.457E-01 -.465E-01   0.227E-12 0.654E-12 0.369E-12   0.167E-15 -.229E-14 0.173E-15   -.441E-05 -.441E-05 -.441E-05
 
 
 POSITION                                       TOTAL-FORCE (eV/Angst)
 -----------------------------------------------------------------------------------
      1.39639      1.39639     -0.72804         0.004347      0.004347      0.004347
      3.40146      3.40146      3.40146        -0.002372     -0.002372     -0.002372
      5.52625      5.52625      3.40181        -0.000271     -0.000271     -0.000271
      7.65881      7.65881      7.65881         0.000000     -0.000000     -0.000000
      9.78759      9.78760      7.66316        -0.004766     -0.004766     -0.004766
     11.91614     11.91614     11.91614         0.002372      0.002372      0.002372
     14.02139     14.02140     11.89696        -0.003914     -0.003914     -0.003914
      3.42064      1.29621      1.29621         0.003914      0.003914      0.003914
      7.65447      5.53003      5.53003         0.004766      0.004766      0.004766
     11.91579      9.79135      9.79136         0.000271      0.000271      0.000271
     16.04565     13.92121     13.92121        -0.004347     -0.004347     -0.004347
      1.22219      1.22219      1.22219         0.003244      0.003244      0.003244
      5.52723      5.52723      5.52723         0.002297      0.002297      0.002297
      9.79037      9.79037      9.79037        -0.002297     -0.002297     -0.002297
     14.09541     14.09541     14.09541        -0.003244     -0.003244     -0.003244
      5.52174      3.39730      3.39730         0.002462      0.002462      0.002462
      9.78587      7.66143      7.66143        -0.005052     -0.005052     -0.005052
     14.05549     11.93105     11.93105        -0.000791     -0.000791     -0.000791
      3.38655      3.38655      1.26211         0.000791      0.000791      0.000791
      7.65617      7.65617      5.53174         0.005052      0.005052      0.005052
     11.92030     11.92030      9.79586        -0.002462     -0.002462     -0.002462
 -----------------------------------------------------------------------------------
    total drift:                               -0.046513     -0.045738     -0.046515


--------------------------------------------------------------------------------------------------------



  FREE ENERGIE OF THE ION-ELECTRON SYSTEM (eV)
  ---------------------------------------------------
  free  energy   TOTEN  =      -120.22044188 eV

  energy  without entropy=     -120.19427997  energy(sigma->0) =     -120.20736093
 
 d Force = 0.1182593E-06[ 0.208E-06, 0.284E-07]  d Energy =-0.1160309E-04 0.117E-04
 d Force = 0.1033619E+00[ 0.103E+00, 0.103E+00]  d Ewald  = 0.1033619E+00 0.196E-09


--------------------------------------------------------------------------------------------------------


    POTLOK:  cpu time    0.0156: real time    0.0166


--------------------------------------------------------------------------------------------------------


 stress matrix after NEB project (eV)
      1.96949     -1.62652     -1.62652
     -1.62652      1.96949     -1.62652
     -1.62652     -1.62652      1.96949
  FORCES: max atom, RMS     0.008750    0.005623
  FORCE total and by dimension    0.025766    0.005052
  Stress total and by dimension    5.244996    1.969485


--------------------------------------------------------------------------------------------------------


  
 reached required accuracy - stopping structural energy minimisation
     LOOP+:  cpu time   19.7826: real time   19.8303
    4ORBIT:  cpu time    0.0010: real time    0.0000

 total amount of memory used by VASP MPI-rank0    45721. kBytes
=======================================================================

   base      :      30000. kBytes
   nonlr-proj:       2527. kBytes
   fftplans  :       2241. kBytes
   grid      :       3249. kBytes
   one-center:         48. kBytes
   wavefun   :       7656. kBytes
 
  
  
 General timing and accounting informations for this job:
 ========================================================
  
                  Total CPU time used (sec):      573.677
                            User time (sec):      572.541
                          System time (sec):        1.136
                         Elapsed time (sec):      577.050
  
                   Maximum memory used (kb):       76744.
                   Average memory used (kb):           0.
  
                          Minor page faults:        88243
                          Major page faults:            0
                 Voluntary context switches:          647
