       N       E                     dE             d eps       ncg     rms          rms(c)
DAV:   1     0.531063364979E+03    0.53106E+03   -0.44036E+04  6296   0.134E+03
DAV:   2    -0.929548867821E+02   -0.62402E+03   -0.59255E+03  8016   0.263E+02
DAV:   3    -0.154766610953E+03   -0.61812E+02   -0.61442E+02  7416   0.895E+01
DAV:   4    -0.155796106721E+03   -0.10295E+01   -0.10270E+01  7440   0.126E+01
DAV:   5    -0.155817351283E+03   -0.21245E-01   -0.21235E-01  7536   0.177E+00    0.230E+01
DAV:   6    -0.139851379852E+03    0.15966E+02   -0.87306E+01  7272   0.315E+01    0.780E+00
DAV:   7    -0.139745965199E+03    0.10541E+00   -0.23181E+00  7016   0.576E+00    0.478E+00
DAV:   8    -0.139681074807E+03    0.64890E-01   -0.92073E-01  7376   0.477E+00    0.134E+00
DAV:   9    -0.139637385103E+03    0.43690E-01   -0.17909E-01  7208   0.170E+00    0.796E-01
DAV:  10    -0.139634447148E+03    0.29380E-02   -0.96123E-02  7272   0.118E+00    0.328E-01
DAV:  11    -0.139634734114E+03   -0.28697E-03   -0.18309E-02  7048   0.444E-01    0.263E-01
DAV:  12    -0.139633898709E+03    0.83541E-03   -0.58891E-03  8056   0.404E-01    0.100E-01
DAV:  13    -0.139634026516E+03   -0.12781E-03   -0.19610E-03  7256   0.170E-01    0.438E-02
DAV:  14    -0.139633992561E+03    0.33955E-04   -0.29822E-04  8016   0.962E-02    0.144E-02
DAV:  15    -0.139633992750E+03   -0.18969E-06   -0.54219E-05  6784   0.315E-02
   1 F= -.13963399E+03 E0= -.13963109E+03  d E =-.139634E+03
       N       E                     dE             d eps       ncg     rms          rms(c)
DAV:   1    -0.139636015531E+03   -0.20230E-02   -0.25600E-02  6656   0.653E-01    0.519E-02
DAV:   2    -0.139635994439E+03    0.21092E-04   -0.20968E-03  7392   0.179E-01    0.481E-02
DAV:   3    -0.139635899641E+03    0.94798E-04   -0.31581E-04  7232   0.643E-02    0.331E-02
DAV:   4    -0.139635882795E+03    0.16846E-04   -0.37753E-05  6744   0.245E-02    0.256E-02
DAV:   5    -0.139635828056E+03    0.54739E-04   -0.61739E-05  7064   0.404E-02    0.136E-02
DAV:   6    -0.139635799268E+03    0.28788E-04   -0.54281E-05  7392   0.495E-02    0.798E-03
DAV:   7    -0.139635790941E+03    0.83275E-05   -0.42241E-05  6792   0.377E-02
   2 F= -.13963579E+03 E0= -.13963286E+03  d E =-.179819E-02
       N       E                     dE             d eps       ncg     rms          rms(c)
DAV:   1    -0.139636407784E+03   -0.60852E-03   -0.18634E-02  6536   0.554E-01    0.438E-02
DAV:   2    -0.139636392631E+03    0.15153E-04   -0.14759E-03  7384   0.146E-01    0.395E-02
DAV:   3    -0.139636322452E+03    0.70178E-04   -0.23091E-04  7224   0.529E-02    0.266E-02
DAV:   4    -0.139636310510E+03    0.11943E-04   -0.26340E-05  6008   0.204E-02    0.206E-02
DAV:   5    -0.139636271992E+03    0.38517E-04   -0.37325E-05  6584   0.319E-02    0.114E-02
DAV:   6    -0.139636247517E+03    0.24475E-04   -0.41587E-05  7120   0.409E-02    0.652E-03
DAV:   7    -0.139636238453E+03    0.90644E-05   -0.26093E-05  6048   0.295E-02
   3 F= -.13963624E+03 E0= -.13963327E+03  d E =-.224570E-02
       N       E                     dE             d eps       ncg     rms          rms(c)
DAV:   1    -0.139637496864E+03   -0.12493E-02   -0.10504E-01  6272   0.132E+00    0.488E-02
DAV:   2    -0.139637731549E+03   -0.23469E-03   -0.28600E-03  7168   0.184E-01    0.276E-02
DAV:   3    -0.139637712273E+03    0.19276E-04   -0.45260E-05  6632   0.351E-02    0.181E-02
DAV:   4    -0.139637705052E+03    0.72214E-05   -0.21459E-05  5272   0.243E-02    0.117E-02
DAV:   5    -0.139637695644E+03    0.94077E-05   -0.11216E-05  4456   0.287E-02    0.452E-03
DAV:   6    -0.139637690150E+03    0.54942E-05   -0.77799E-06  4344   0.275E-02
   4 F= -.13963769E+03 E0= -.13963469E+03  d E =-.145170E-02
       N       E                     dE             d eps       ncg     rms          rms(c)
DAV:   1    -0.139639294055E+03   -0.15984E-02   -0.94326E-01  6272   0.396E+00    0.147E-01
DAV:   2    -0.139641431168E+03   -0.21371E-02   -0.25863E-02  7160   0.552E-01    0.858E-02
DAV:   3    -0.139641265127E+03    0.16604E-03   -0.39817E-04  7368   0.101E-01    0.559E-02
DAV:   4    -0.139641214124E+03    0.51004E-04   -0.20336E-04  7288   0.696E-02    0.349E-02
DAV:   5    -0.139641158400E+03    0.55723E-04   -0.96837E-05  7240   0.652E-02    0.134E-02
DAV:   6    -0.139641136772E+03    0.21628E-04   -0.37716E-05  7072   0.622E-02    0.638E-03
DAV:   7    -0.139641126582E+03    0.10190E-04   -0.27967E-05  5872   0.438E-02    0.612E-03
DAV:   8    -0.139641115972E+03    0.10610E-04   -0.41541E-06  4176   0.309E-02    0.332E-03
DAV:   9    -0.139641099538E+03    0.16435E-04   -0.73205E-06  4864   0.552E-02    0.380E-03
DAV:  10    -0.139641089092E+03    0.10446E-04   -0.15496E-05  5232   0.470E-02    0.309E-03
DAV:  11    -0.139641072967E+03    0.16125E-04   -0.17790E-05  5496   0.104E-01    0.289E-03
DAV:  12    -0.139641074967E+03   -0.19993E-05   -0.55457E-05  6328   0.369E-02
   5 F= -.13964107E+03 E0= -.13963802E+03  d E =-.483651E-02
       N       E                     dE             d eps       ncg     rms          rms(c)
DAV:   1    -0.139636021826E+03    0.50511E-02   -0.37710E+00  6272   0.792E+00    0.296E-01
DAV:   2    -0.139644697549E+03   -0.86757E-02   -0.10448E-01  7128   0.110E+00    0.178E-01
DAV:   3    -0.139644014271E+03    0.68328E-03   -0.15118E-03  7384   0.195E-01    0.114E-01
DAV:   4    -0.139643836593E+03    0.17768E-03   -0.82870E-04  7280   0.135E-01    0.704E-02
DAV:   5    -0.139643649952E+03    0.18664E-03   -0.35398E-04  7312   0.109E-01    0.274E-02
DAV:   6    -0.139643600469E+03    0.49482E-04   -0.11708E-04  7544   0.993E-02    0.106E-02
DAV:   7    -0.139643585016E+03    0.15454E-04   -0.88257E-05  7288   0.649E-02    0.112E-02
DAV:   8    -0.139643574329E+03    0.10687E-04   -0.22283E-05  5384   0.291E-02    0.794E-03
DAV:   9    -0.139643553951E+03    0.20378E-04   -0.71099E-06  4712   0.407E-02    0.388E-03
DAV:  10    -0.139643539004E+03    0.14947E-04   -0.12213E-05  4808   0.414E-02    0.536E-03
DAV:  11    -0.139643524821E+03    0.14183E-04   -0.10552E-05  4888   0.503E-02    0.552E-03
DAV:  12    -0.139643505197E+03    0.19625E-04   -0.38871E-05  6448   0.110E-01    0.748E-03
DAV:  13    -0.139643506132E+03   -0.93580E-06   -0.65603E-05  6456   0.413E-02
   6 F= -.13964351E+03 E0= -.13964065E+03  d E =-.726768E-02
       N       E                     dE             d eps       ncg     rms          rms(c)
DAV:   1    -0.139644343759E+03   -0.83856E-03   -0.47227E-02  6272   0.944E-01    0.350E-02
DAV:   2    -0.139644445015E+03   -0.10126E-03   -0.12835E-03  7136   0.141E-01    0.180E-02
DAV:   3    -0.139644437720E+03    0.72950E-05   -0.24262E-05  5600   0.240E-02    0.123E-02
DAV:   4    -0.139644434035E+03    0.36849E-05   -0.80604E-06  4320   0.138E-02    0.761E-03
DAV:   5    -0.139644430032E+03    0.40032E-05   -0.83359E-06  4552   0.192E-02    0.356E-03
DAV:   6    -0.139644429365E+03    0.66736E-06   -0.45682E-06  4104   0.123E-02
   7 F= -.13964443E+03 E0= -.13964161E+03  d E =-.923232E-03
       N       E                     dE             d eps       ncg     rms          rms(c)
DAV:   1    -0.139645918346E+03   -0.14883E-02   -0.42508E-01  6280   0.283E+00    0.998E-02
DAV:   2    -0.139646852788E+03   -0.93444E-03   -0.11289E-02  7088   0.414E-01    0.529E-02
DAV:   3    -0.139646796977E+03    0.55811E-04   -0.16031E-04  7512   0.600E-02    0.361E-02
DAV:   4    -0.139646766952E+03    0.30025E-04   -0.68543E-05  7264   0.431E-02    0.201E-02
DAV:   5    -0.139646740114E+03    0.26838E-04   -0.50169E-05  7216   0.478E-02    0.987E-03
DAV:   6    -0.139646733895E+03    0.62191E-05   -0.23907E-05  5328   0.345E-02
   8 F= -.13964673E+03 E0= -.13964402E+03  d E =-.322776E-02
       N       E                     dE             d eps       ncg     rms          rms(c)
DAV:   1    -0.139645789784E+03    0.95033E-03   -0.16990E+00  6280   0.568E+00    0.200E-01
DAV:   2    -0.139649539446E+03   -0.37497E-02   -0.45445E-02  7104   0.834E-01    0.107E-01
DAV:   3    -0.139649299888E+03    0.23956E-03   -0.69334E-04  7480   0.125E-01    0.738E-02
DAV:   4    -0.139649176183E+03    0.12371E-03   -0.24520E-04  7296   0.808E-02    0.449E-02
DAV:   5    -0.139649028346E+03    0.14784E-03   -0.21609E-04  7368   0.107E-01    0.207E-02
DAV:   6    -0.139648991634E+03    0.36712E-04   -0.10885E-04  7440   0.785E-02    0.154E-02
DAV:   7    -0.139648938042E+03    0.53592E-04   -0.43114E-05  6816   0.922E-02    0.971E-03
DAV:   8    -0.139648905232E+03    0.32809E-04   -0.46554E-05  6688   0.646E-02    0.933E-03
DAV:   9    -0.139648856520E+03    0.48713E-04   -0.20053E-05  5272   0.744E-02    0.692E-03
DAV:  10    -0.139648804344E+03    0.52176E-04   -0.39716E-05  6728   0.107E-01    0.888E-03
DAV:  11    -0.139648777055E+03    0.27289E-04   -0.53007E-05  6808   0.860E-02    0.722E-03
DAV:  12    -0.139648746610E+03    0.30445E-04   -0.60311E-05  7784   0.131E-01    0.118E-02
DAV:  13    -0.139648732522E+03    0.14088E-04   -0.70976E-05  7088   0.908E-02    0.563E-03
DAV:  14    -0.139648734268E+03   -0.17455E-05   -0.96956E-05  7096   0.533E-02
   9 F= -.13964873E+03 E0= -.13964612E+03  d E =-.522814E-02
       N       E                     dE             d eps       ncg     rms          rms(c)
DAV:   1    -0.139649864091E+03   -0.11316E-02   -0.87645E-02  6344   0.122E+00    0.355E-02
DAV:   2    -0.139649993529E+03   -0.12944E-03   -0.16738E-03  7296   0.160E-01    0.228E-02
DAV:   3    -0.139649977290E+03    0.16240E-04   -0.22296E-05  5472   0.273E-02    0.156E-02
DAV:   4    -0.139649971853E+03    0.54370E-05   -0.20880E-05  5056   0.217E-02    0.950E-03
DAV:   5    -0.139649966965E+03    0.48878E-05   -0.11517E-05  4560   0.191E-02    0.339E-03
DAV:   6    -0.139649966841E+03    0.12407E-06   -0.47594E-06  4016   0.119E-02
  10 F= -.13964997E+03 E0= -.13964734E+03  d E =-.123257E-02
       N       E                     dE             d eps       ncg     rms          rms(c)
DAV:   1    -0.139651642808E+03   -0.16758E-02   -0.78809E-01  6280   0.367E+00    0.104E-01
DAV:   2    -0.139652805265E+03   -0.11625E-02   -0.14975E-02  7320   0.476E-01    0.676E-02
DAV:   3    -0.139652667897E+03    0.13737E-03   -0.18989E-04  7528   0.772E-02    0.464E-02
DAV:   4    -0.139652618257E+03    0.49641E-04   -0.18677E-04  7264   0.659E-02    0.267E-02
DAV:   5    -0.139652577894E+03    0.40363E-04   -0.95387E-05  7384   0.485E-02    0.921E-03
DAV:   6    -0.139652575937E+03    0.19566E-05   -0.16878E-05  5216   0.204E-02
  11 F= -.13965258E+03 E0= -.13964995E+03  d E =-.384167E-02
       N       E                     dE             d eps       ncg     rms          rms(c)
DAV:   1    -0.139649117274E+03    0.34606E-02   -0.31507E+00  6280   0.733E+00    0.209E-01
DAV:   2    -0.139653725066E+03   -0.46078E-02   -0.59924E-02  7328   0.953E-01    0.135E-01
DAV:   3    -0.139653190278E+03    0.53479E-03   -0.73694E-04  7528   0.155E-01    0.917E-02
DAV:   4    -0.139652954379E+03    0.23590E-03   -0.86671E-04  7328   0.148E-01    0.456E-02
DAV:   5    -0.139652845220E+03    0.10916E-03   -0.37591E-04  7432   0.870E-02    0.201E-02
DAV:   6    -0.139652830178E+03    0.15042E-04   -0.46430E-05  7136   0.368E-02    0.900E-03
DAV:   7    -0.139652818974E+03    0.11204E-04   -0.17961E-05  5344   0.277E-02    0.654E-03
DAV:   8    -0.139652810619E+03    0.83553E-05   -0.12304E-05  4704   0.317E-02
  12 F= -.13965281E+03 E0= -.13965027E+03  d E =-.407635E-02
       N       E                     dE             d eps       ncg     rms          rms(c)
DAV:   1    -0.139652741786E+03    0.77188E-04   -0.65139E-01  6296   0.334E+00    0.947E-02
DAV:   2    -0.139653698115E+03   -0.95633E-03   -0.12352E-02  7312   0.432E-01    0.627E-02
DAV:   3    -0.139653581017E+03    0.11710E-03   -0.16391E-04  7520   0.740E-02    0.426E-02
DAV:   4    -0.139653539058E+03    0.41958E-04   -0.14706E-04  7304   0.602E-02    0.249E-02
DAV:   5    -0.139653505935E+03    0.33123E-04   -0.73417E-05  7352   0.444E-02    0.900E-03
DAV:   6    -0.139653504089E+03    0.18455E-05   -0.17884E-05  5208   0.221E-02
  13 F= -.13965350E+03 E0= -.13965092E+03  d E =-.476982E-02
       N       E                     dE             d eps       ncg     rms          rms(c)
DAV:   1    -0.139654520047E+03   -0.10141E-02   -0.28320E-01  6304   0.233E+00    0.773E-02
DAV:   2    -0.139655134259E+03   -0.61421E-03   -0.73440E-03  7248   0.353E-01    0.493E-02
DAV:   3    -0.139655070412E+03    0.63848E-04   -0.21980E-04  7296   0.596E-02    0.376E-02
DAV:   4    -0.139655050738E+03    0.19674E-04   -0.31512E-05  5552   0.222E-02    0.270E-02
DAV:   5    -0.139655028809E+03    0.21929E-04   -0.13340E-04  7248   0.489E-02    0.140E-02
DAV:   6    -0.139655026657E+03    0.21517E-05   -0.16627E-05  4792   0.205E-02
  14 F= -.13965503E+03 E0= -.13965243E+03  d E =-.152257E-02
       N       E                     dE             d eps       ncg     rms          rms(c)
DAV:   1    -0.139654710779E+03    0.31803E-03   -0.66056E-01  6296   0.357E+00    0.119E-01
DAV:   2    -0.139656170271E+03   -0.14595E-02   -0.17320E-02  7248   0.540E-01    0.766E-02
DAV:   3    -0.139656033173E+03    0.13710E-03   -0.44296E-04  7296   0.890E-02    0.577E-02
DAV:   4    -0.139655990566E+03    0.42607E-04   -0.84479E-05  7136   0.361E-02    0.400E-02
DAV:   5    -0.139655941159E+03    0.49408E-04   -0.24883E-04  7240   0.680E-02    0.179E-02
DAV:   6    -0.139655937422E+03    0.37366E-05   -0.36803E-05  6504   0.307E-02
  15 F= -.13965594E+03 E0= -.13965334E+03  d E =-.243333E-02
       N       E                     dE             d eps       ncg     rms          rms(c)
DAV:   1    -0.139656443083E+03   -0.50192E-03   -0.76979E-01  6328   0.382E+00    0.111E-01
DAV:   2    -0.139657930242E+03   -0.14872E-02   -0.16356E-02  7168   0.514E-01    0.643E-02
DAV:   3    -0.139657822055E+03    0.10819E-03   -0.18294E-04  7368   0.709E-02    0.431E-02
DAV:   4    -0.139657783282E+03    0.38774E-04   -0.11896E-04  7304   0.525E-02    0.255E-02
DAV:   5    -0.139657748788E+03    0.34494E-04   -0.69169E-05  6904   0.540E-02    0.724E-03
DAV:   6    -0.139657747459E+03    0.13287E-05   -0.31651E-05  6232   0.259E-02
  16 F= -.13965775E+03 E0= -.13965513E+03  d E =-.181004E-02
       N       E                     dE             d eps       ncg     rms          rms(c)
DAV:   1    -0.139653946980E+03    0.38018E-02   -0.32158E+00  6304   0.781E+00    0.226E-01
DAV:   2    -0.139660113964E+03   -0.61670E-02   -0.68199E-02  7160   0.105E+00    0.132E-01
DAV:   3    -0.139659637826E+03    0.47614E-03   -0.77032E-04  7344   0.144E-01    0.883E-02
DAV:   4    -0.139659456500E+03    0.18133E-03   -0.45924E-04  7368   0.105E-01    0.535E-02
DAV:   5    -0.139659278518E+03    0.17798E-03   -0.31413E-04  7688   0.125E-01    0.146E-02
DAV:   6    -0.139659260392E+03    0.18126E-04   -0.16886E-04  7240   0.656E-02    0.123E-02
DAV:   7    -0.139659230327E+03    0.30065E-04   -0.93143E-06  4464   0.354E-02    0.573E-03
DAV:   8    -0.139659201023E+03    0.29304E-04   -0.79192E-06  4832   0.455E-02    0.654E-03
DAV:   9    -0.139659141266E+03    0.59757E-04   -0.39376E-05  6568   0.112E-01    0.785E-03
DAV:  10    -0.139659105922E+03    0.35345E-04   -0.68503E-05  7536   0.100E-01    0.906E-03
DAV:  11    -0.139659091033E+03    0.14889E-04   -0.53609E-05  6992   0.776E-02    0.573E-03
DAV:  12    -0.139659085162E+03    0.58712E-05   -0.30076E-05  6144   0.635E-02
  17 F= -.13965909E+03 E0= -.13965639E+03  d E =-.314774E-02
       N       E                     dE             d eps       ncg     rms          rms(c)
DAV:   1    -0.139659886843E+03   -0.79581E-03   -0.29779E-01  6288   0.243E+00    0.721E-02
DAV:   2    -0.139660487393E+03   -0.60055E-03   -0.64603E-03  7192   0.328E-01    0.390E-02
DAV:   3    -0.139660459089E+03    0.28304E-04   -0.73703E-05  7384   0.392E-02    0.264E-02
DAV:   4    -0.139660447898E+03    0.11191E-04   -0.47502E-05  6992   0.351E-02    0.135E-02
DAV:   5    -0.139660439225E+03    0.86735E-05   -0.27246E-05  4736   0.261E-02    0.756E-03
DAV:   6    -0.139660438442E+03    0.78298E-06   -0.63868E-06  4160   0.135E-02
  18 F= -.13966044E+03 E0= -.13965771E+03  d E =-.135328E-02
       N       E                     dE             d eps       ncg     rms          rms(c)
DAV:   1    -0.139657946569E+03    0.24927E-02   -0.26817E+00  6272   0.728E+00    0.220E-01
DAV:   2    -0.139663455030E+03   -0.55085E-02   -0.59451E-02  7200   0.993E-01    0.118E-01
DAV:   3    -0.139663190491E+03    0.26454E-03   -0.65144E-04  7448   0.118E-01    0.797E-02
DAV:   4    -0.139663091508E+03    0.98983E-04   -0.51216E-04  7520   0.110E-01    0.402E-02
DAV:   5    -0.139663000741E+03    0.90767E-04   -0.27246E-04  7320   0.721E-02    0.288E-02
DAV:   6    -0.139662984904E+03    0.15838E-04   -0.55574E-05  7088   0.413E-02    0.195E-02
DAV:   7    -0.139662959017E+03    0.25887E-04   -0.38539E-05  6760   0.443E-02    0.107E-02
DAV:   8    -0.139662948863E+03    0.10154E-04   -0.18070E-05  5008   0.248E-02    0.896E-03
DAV:   9    -0.139662925443E+03    0.23420E-04   -0.10404E-05  4832   0.350E-02    0.499E-03
DAV:  10    -0.139662896752E+03    0.28691E-04   -0.24537E-05  5880   0.596E-02    0.783E-03
DAV:  11    -0.139662865979E+03    0.30772E-04   -0.61360E-05  7776   0.112E-01    0.878E-03
DAV:  12    -0.139662854177E+03    0.11802E-04   -0.55216E-05  7144   0.891E-02    0.102E-02
DAV:  13    -0.139662853408E+03    0.76903E-06   -0.50210E-05  6296   0.321E-02
  19 F= -.13966285E+03 E0= -.13966004E+03  d E =-.376825E-02
       N       E                     dE             d eps       ncg     rms          rms(c)
DAV:   1    -0.139662063951E+03    0.79023E-03   -0.59405E-01  6272   0.343E+00    0.103E-01
DAV:   2    -0.139663270195E+03   -0.12062E-02   -0.13023E-02  7216   0.465E-01    0.551E-02
DAV:   3    -0.139663213609E+03    0.56586E-04   -0.13991E-04  7472   0.542E-02    0.374E-02
DAV:   4    -0.139663192623E+03    0.20986E-04   -0.11387E-04  7352   0.510E-02    0.187E-02
DAV:   5    -0.139663173599E+03    0.19024E-04   -0.59940E-05  7128   0.325E-02    0.138E-02
DAV:   6    -0.139663170201E+03    0.33976E-05   -0.10865E-05  4240   0.193E-02
  20 F= -.13966317E+03 E0= -.13966029E+03  d E =-.408504E-02
       N       E                     dE             d eps       ncg     rms          rms(c)
DAV:   1    -0.139662479090E+03    0.69451E-03   -0.15829E+00  6368   0.556E+00    0.169E-01
DAV:   2    -0.139665886746E+03   -0.34077E-02   -0.36929E-02  7096   0.767E-01    0.928E-02
DAV:   3    -0.139665706000E+03    0.18075E-03   -0.42788E-04  7456   0.997E-02    0.641E-02
DAV:   4    -0.139665638405E+03    0.67595E-04   -0.26661E-04  7288   0.725E-02    0.347E-02
DAV:   5    -0.139665587670E+03    0.50735E-04   -0.16009E-04  7352   0.620E-02    0.164E-02
DAV:   6    -0.139665586649E+03    0.10217E-05   -0.47099E-05  6616   0.313E-02
  21 F= -.13966559E+03 E0= -.13966265E+03  d E =-.241645E-02
       N       E                     dE             d eps       ncg     rms          rms(c)
DAV:   1    -0.139658750854E+03    0.68368E-02   -0.42608E+00  6368   0.913E+00    0.275E-01
DAV:   2    -0.139667919782E+03   -0.91689E-02   -0.99249E-02  7104   0.126E+00    0.156E-01
DAV:   3    -0.139667396405E+03    0.52338E-03   -0.11267E-03  7472   0.164E-01    0.107E-01
DAV:   4    -0.139667213183E+03    0.18322E-03   -0.72001E-04  7288   0.115E-01    0.607E-02
DAV:   5    -0.139667049049E+03    0.16413E-03   -0.44489E-04  7408   0.107E-01    0.245E-02
DAV:   6    -0.139667044155E+03    0.48939E-05   -0.13707E-04  7312   0.512E-02    0.167E-02
DAV:   7    -0.139667038734E+03    0.54209E-05   -0.50856E-05  7056   0.324E-02
  22 F= -.13966704E+03 E0= -.13966401E+03  d E =-.386853E-02
       N       E                     dE             d eps       ncg     rms          rms(c)
DAV:   1    -0.139664010879E+03    0.30333E-02   -0.24754E+00  6400   0.692E+00    0.204E-01
DAV:   2    -0.139669047204E+03   -0.50363E-02   -0.54779E-02  7152   0.946E-01    0.116E-01
DAV:   3    -0.139668734128E+03    0.31308E-03   -0.52475E-04  7480   0.115E-01    0.798E-02
DAV:   4    -0.139668498042E+03    0.23609E-03   -0.71214E-04  7288   0.146E-01    0.304E-02
DAV:   5    -0.139668452934E+03    0.45108E-04   -0.30249E-04  7328   0.877E-02    0.277E-02
DAV:   6    -0.139668440576E+03    0.12358E-04   -0.65436E-05  6832   0.340E-02    0.198E-02
DAV:   7    -0.139668411215E+03    0.29361E-04   -0.19484E-05  5048   0.287E-02    0.121E-02
DAV:   8    -0.139668352948E+03    0.58267E-04   -0.37233E-05  6560   0.695E-02    0.121E-02
DAV:   9    -0.139668277749E+03    0.75199E-04   -0.56045E-05  7712   0.119E-01    0.104E-02
DAV:  10    -0.139668190883E+03    0.86866E-04   -0.97057E-05  8696   0.170E-01    0.129E-02
DAV:  11    -0.139668153447E+03    0.37436E-04   -0.13099E-04  7328   0.120E-01    0.116E-02
DAV:  12    -0.139668147059E+03    0.63887E-05   -0.80866E-05  7080   0.833E-02
  23 F= -.13966815E+03 E0= -.13966506E+03  d E =-.110832E-02
       N       E                     dE             d eps       ncg     rms          rms(c)
DAV:   1    -0.139668109279E+03    0.44169E-04   -0.27663E-02  6872   0.731E-01    0.235E-02
DAV:   2    -0.139668165464E+03   -0.56185E-04   -0.61337E-04  7192   0.988E-02    0.122E-02
DAV:   3    -0.139668161712E+03    0.37518E-05   -0.54355E-06  4232   0.130E-02    0.779E-03
DAV:   4    -0.139668159471E+03    0.22409E-05   -0.92000E-06  4256   0.162E-02    0.234E-03
DAV:   5    -0.139668159524E+03   -0.52962E-07   -0.34541E-06  3896   0.776E-03    0.231E-03
DAV:   6    -0.139668159377E+03    0.14779E-06   -0.46536E-07  3688   0.347E-03
  24 F= -.13966816E+03 E0= -.13966507E+03  d E =-.112064E-02
       N       E                     dE             d eps       ncg     rms          rms(c)
DAV:   1    -0.139668869658E+03   -0.71013E-03   -0.27987E-01  6552   0.234E+00    0.693E-02
DAV:   2    -0.139669308872E+03   -0.43921E-03   -0.58143E-03  7304   0.320E-01    0.453E-02
DAV:   3    -0.139669227785E+03    0.81088E-04   -0.18497E-04  7408   0.518E-02    0.307E-02
DAV:   4    -0.139669197937E+03    0.29847E-04   -0.32134E-05  5688   0.222E-02    0.227E-02
DAV:   5    -0.139669143787E+03    0.54151E-04   -0.78329E-05  6976   0.544E-02    0.949E-03
DAV:   6    -0.139669130502E+03    0.13285E-04   -0.29232E-05  6176   0.313E-02    0.829E-03
DAV:   7    -0.139669092252E+03    0.38250E-04   -0.29129E-05  6208   0.669E-02    0.711E-03
DAV:   8    -0.139669075558E+03    0.16694E-04   -0.32805E-05  5888   0.428E-02    0.101E-02
DAV:   9    -0.139669063594E+03    0.11964E-04   -0.11509E-04  7016   0.715E-02    0.216E-02
DAV:  10    -0.139669026858E+03    0.36737E-04   -0.29125E-05  6024   0.960E-02    0.172E-02
DAV:  11    -0.139669021266E+03    0.55913E-05   -0.68330E-05  6536   0.456E-02
  25 F= -.13966902E+03 E0= -.13966598E+03  d E =-.861890E-03
       N       E                     dE             d eps       ncg     rms          rms(c)
DAV:   1    -0.139668959890E+03    0.66968E-04   -0.56050E-02  6680   0.105E+00    0.326E-02
DAV:   2    -0.139669049976E+03   -0.90086E-04   -0.12140E-03  7312   0.147E-01    0.200E-02
DAV:   3    -0.139669032520E+03    0.17456E-04   -0.40363E-05  5528   0.257E-02    0.137E-02
DAV:   4    -0.139669025851E+03    0.66691E-05   -0.75275E-06  4264   0.119E-02    0.103E-02
DAV:   5    -0.139669009317E+03    0.16534E-04   -0.17199E-05  5560   0.337E-02    0.496E-03
DAV:   6    -0.139669005033E+03    0.42843E-05   -0.92794E-06  4232   0.189E-02
  26 F= -.13966901E+03 E0= -.13966598E+03  d E =-.845657E-03
       N       E                     dE             d eps       ncg     rms          rms(c)
DAV:   1    -0.139669345554E+03   -0.33624E-03   -0.23539E-01  6272   0.216E+00    0.718E-02
DAV:   2    -0.139669860726E+03   -0.51517E-03   -0.59114E-03  7248   0.310E-01    0.448E-02
DAV:   3    -0.139669789503E+03    0.71223E-04   -0.18949E-04  7256   0.530E-02    0.302E-02
DAV:   4    -0.139669768161E+03    0.21342E-04   -0.35053E-05  5680   0.252E-02    0.211E-02
DAV:   5    -0.139669743469E+03    0.24692E-04   -0.29916E-05  6168   0.382E-02    0.823E-03
DAV:   6    -0.139669733465E+03    0.10003E-04   -0.12890E-05  4400   0.310E-02    0.657E-03
DAV:   7    -0.139669719375E+03    0.14091E-04   -0.13767E-05  5000   0.444E-02    0.464E-03
DAV:   8    -0.139669706389E+03    0.12986E-04   -0.79787E-06  4384   0.372E-02    0.419E-03
DAV:   9    -0.139669678328E+03    0.28061E-04   -0.32125E-05  6296   0.960E-02    0.908E-03
DAV:  10    -0.139669669826E+03    0.85017E-05   -0.34658E-05  6216   0.573E-02
  27 F= -.13966967E+03 E0= -.13966670E+03  d E =-.664793E-03
       N       E                     dE             d eps       ncg     rms          rms(c)
DAV:   1    -0.139669561059E+03    0.11727E-03   -0.23829E-01  6272   0.217E+00    0.700E-02
DAV:   2    -0.139670087900E+03   -0.52684E-03   -0.59365E-03  7248   0.310E-01    0.457E-02
DAV:   3    -0.139670019918E+03    0.67982E-04   -0.16058E-04  7176   0.486E-02    0.310E-02
DAV:   4    -0.139670002639E+03    0.17280E-04   -0.33123E-05  5368   0.245E-02    0.215E-02
DAV:   5    -0.139669986109E+03    0.16530E-04   -0.35709E-05  6568   0.358E-02    0.744E-03
DAV:   6    -0.139669982977E+03    0.31317E-05   -0.13130E-05  4240   0.233E-02
  28 F= -.13966998E+03 E0= -.13966705E+03  d E =-.977944E-03
       N       E                     dE             d eps       ncg     rms          rms(c)
DAV:   1    -0.139669898651E+03    0.87457E-04   -0.79136E-01  6576   0.393E+00    0.117E-01
DAV:   2    -0.139671540848E+03   -0.16422E-02   -0.18165E-02  7168   0.547E-01    0.680E-02
DAV:   3    -0.139671413595E+03    0.12725E-03   -0.19214E-04  7472   0.638E-02    0.460E-02
DAV:   4    -0.139671358931E+03    0.54664E-04   -0.11784E-04  7272   0.596E-02    0.294E-02
DAV:   5    -0.139671284304E+03    0.74627E-04   -0.12796E-04  7224   0.724E-02    0.854E-03
DAV:   6    -0.139671267500E+03    0.16805E-04   -0.47759E-05  6792   0.436E-02    0.752E-03
DAV:   7    -0.139671245800E+03    0.21700E-04   -0.64097E-06  4472   0.332E-02    0.486E-03
DAV:   8    -0.139671218410E+03    0.27390E-04   -0.81283E-06  4832   0.472E-02    0.492E-03
DAV:   9    -0.139671166145E+03    0.52266E-04   -0.47518E-05  7024   0.116E-01    0.528E-03
DAV:  10    -0.139671137380E+03    0.28765E-04   -0.84402E-05  7944   0.120E-01    0.685E-03
DAV:  11    -0.139671139194E+03   -0.18136E-05   -0.79757E-05  6600   0.482E-02
  29 F= -.13967114E+03 E0= -.13966823E+03  d E =-.115622E-02
       N       E                     dE             d eps       ncg     rms          rms(c)
DAV:   1    -0.139671149970E+03   -0.12591E-04   -0.16012E-02  6752   0.558E-01    0.143E-02
DAV:   2    -0.139671182488E+03   -0.32517E-04   -0.37192E-04  7192   0.787E-02    0.117E-02
DAV:   3    -0.139671179329E+03    0.31583E-05   -0.30198E-06  4224   0.971E-03    0.875E-03
DAV:   4    -0.139671176540E+03    0.27887E-05   -0.36799E-06  4272   0.145E-02    0.512E-03
DAV:   5    -0.139671173517E+03    0.30238E-05   -0.53016E-06  4192   0.165E-02    0.249E-03
DAV:   6    -0.139671173032E+03    0.48444E-06   -0.28901E-06  4056   0.899E-03
  30 F= -.13967117E+03 E0= -.13966827E+03  d E =-.119006E-02
       N       E                     dE             d eps       ncg     rms          rms(c)
DAV:   1    -0.139671068105E+03    0.10541E-03   -0.62925E-02  6624   0.111E+00    0.327E-02
DAV:   2    -0.139671193751E+03   -0.12565E-03   -0.14322E-03  7176   0.154E-01    0.190E-02
DAV:   3    -0.139671180931E+03    0.12820E-04   -0.12567E-05  4712   0.205E-02    0.133E-02
DAV:   4    -0.139671169974E+03    0.10958E-04   -0.12776E-05  4600   0.282E-02    0.787E-03
DAV:   5    -0.139671158907E+03    0.11067E-04   -0.16049E-05  4400   0.279E-02    0.407E-03
DAV:   6    -0.139671153276E+03    0.56303E-05   -0.64465E-06  4256   0.221E-02
  31 F= -.13967115E+03 E0= -.13966826E+03  d E =-.117030E-02
       N       E                     dE             d eps       ncg     rms          rms(c)
DAV:   1    -0.139671136967E+03    0.21940E-04   -0.80617E-03  7104   0.397E-01    0.145E-02
DAV:   2    -0.139671157321E+03   -0.20354E-04   -0.24297E-04  7264   0.634E-02    0.936E-03
DAV:   3    -0.139671154701E+03    0.26197E-05   -0.53092E-06  4256   0.982E-03    0.621E-03
DAV:   4    -0.139671153661E+03    0.10395E-05   -0.14560E-06  4104   0.487E-03    0.421E-03
DAV:   5    -0.139671151625E+03    0.20363E-05   -0.21203E-06  4096   0.111E-02    0.184E-03
DAV:   6    -0.139671150795E+03    0.82981E-06   -0.77915E-07  4016   0.816E-03
  32 F= -.13967115E+03 E0= -.13966824E+03  d E =-.116782E-02
       N       E                     dE             d eps       ncg     rms          rms(c)
DAV:   1    -0.139671147549E+03    0.40766E-05   -0.66006E-03  6664   0.359E-01    0.112E-02
DAV:   2    -0.139671162253E+03   -0.14704E-04   -0.16134E-04  7232   0.512E-02    0.636E-03
DAV:   3    -0.139671161156E+03    0.10965E-05   -0.20210E-06  4056   0.636E-03    0.431E-03
DAV:   4    -0.139671160807E+03    0.34948E-06   -0.92914E-07  3792   0.418E-03    0.285E-03
DAV:   5    -0.139671160423E+03    0.38417E-06   -0.10872E-06  3424   0.546E-03    0.831E-04
DAV:   6    -0.139671160428E+03   -0.52587E-08   -0.36397E-07  3360   0.299E-03
  33 F= -.13967116E+03 E0= -.13966825E+03  d E =-.117745E-02
       N       E                     dE             d eps       ncg     rms          rms(c)
DAV:   1    -0.139671161360E+03   -0.93786E-06   -0.16451E-03  6632   0.179E-01    0.549E-03
DAV:   2    -0.139671164698E+03   -0.33379E-05   -0.37660E-05  5952   0.250E-02    0.301E-03
DAV:   3    -0.139671164449E+03    0.24977E-06   -0.63499E-07  3272   0.353E-03    0.206E-03
DAV:   4    -0.139671164330E+03    0.11912E-06   -0.30498E-07  3256   0.298E-03    0.133E-03
DAV:   5    -0.139671164150E+03    0.17954E-06   -0.27653E-07  3232   0.350E-03    0.401E-04
DAV:   6    -0.139671164086E+03    0.63562E-07   -0.10172E-07  3328   0.250E-03
  34 F= -.13967116E+03 E0= -.13966825E+03  d E =-.118111E-02
       N       E                     dE             d eps       ncg     rms          rms(c)
DAV:   1    -0.139671306637E+03   -0.14249E-03   -0.76632E-02  6280   0.122E+00    0.416E-02
DAV:   2    -0.139671478831E+03   -0.17219E-03   -0.20777E-03  7264   0.185E-01    0.269E-02
DAV:   3    -0.139671465934E+03    0.12897E-04   -0.31078E-05  6096   0.285E-02    0.196E-02
DAV:   4    -0.139671461062E+03    0.48714E-05   -0.26826E-05  5296   0.246E-02    0.958E-03
DAV:   5    -0.139671458082E+03    0.29807E-05   -0.17292E-05  4296   0.193E-02    0.694E-03
DAV:   6    -0.139671457589E+03    0.49212E-06   -0.30623E-06  3616   0.919E-03
  35 F= -.13967146E+03 E0= -.13966856E+03  d E =-.293503E-03
