       N       E                     dE             d eps       ncg     rms          rms(c)
DAV:   1     0.550241548618E+03    0.55024E+03   -0.48781E+04  2864   0.138E+03
DAV:   2    -0.112925513772E+03   -0.66317E+03   -0.63449E+03  3668   0.268E+02
DAV:   3    -0.168657336596E+03   -0.55732E+02   -0.55406E+02  3296   0.848E+01
DAV:   4    -0.169356409122E+03   -0.69907E+00   -0.69773E+00  3328   0.103E+01
DAV:   5    -0.169366968990E+03   -0.10560E-01   -0.10554E-01  3408   0.123E+00    0.239E+01
DAV:   6    -0.152736469853E+03    0.16630E+02   -0.95781E+01  3292   0.326E+01    0.823E+00
DAV:   7    -0.152549201010E+03    0.18727E+00   -0.21786E+00  3156   0.634E+00    0.495E+00
DAV:   8    -0.152453438780E+03    0.95762E-01   -0.77207E-01  3252   0.472E+00    0.121E+00
DAV:   9    -0.152421188956E+03    0.32250E-01   -0.16219E-01  3260   0.178E+00    0.543E-01
DAV:  10    -0.152423962565E+03   -0.27736E-02   -0.83166E-02  3236   0.122E+00    0.415E-01
DAV:  11    -0.152420889613E+03    0.30730E-02   -0.12021E-02  3624   0.548E-01    0.221E-01
DAV:  12    -0.152420316166E+03    0.57345E-03   -0.12014E-02  3296   0.428E-01    0.169E-01
DAV:  13    -0.152419181268E+03    0.11349E-02   -0.14067E-03  4600   0.322E-01    0.924E-02
DAV:  14    -0.152418640580E+03    0.54069E-03   -0.19210E-03  3712   0.262E-01    0.317E-02
DAV:  15    -0.152417687197E+03    0.95338E-03   -0.69856E-04  3832   0.308E-01    0.498E-02
DAV:  16    -0.152417018765E+03    0.66843E-03   -0.72979E-04  3992   0.348E-01    0.540E-02
DAV:  17    -0.152416538568E+03    0.48020E-03   -0.11745E-03  4612   0.412E-01    0.192E-02
DAV:  18    -0.152416338753E+03    0.19982E-03   -0.92514E-04  3720   0.307E-01    0.290E-02
DAV:  19    -0.152416147626E+03    0.19113E-03   -0.36532E-04  4220   0.265E-01    0.135E-02
DAV:  20    -0.152416062909E+03    0.84717E-04   -0.29053E-04  3860   0.202E-01    0.116E-02
DAV:  21    -0.152415989416E+03    0.73494E-04   -0.12347E-04  4168   0.221E-01    0.835E-03
DAV:  22    -0.152415977791E+03    0.11625E-04   -0.16942E-04  3324   0.147E-01    0.852E-03
DAV:  23    -0.152415998087E+03   -0.20297E-04   -0.22905E-04  2964   0.544E-02    0.165E-02
DAV:  24    -0.152415991362E+03    0.67254E-05   -0.17299E-05  2172   0.206E-02
   1 F= -.15241599E+03 E0= -.15241201E+03  d E =-.152416E+03
       N       E                     dE             d eps       ncg     rms          rms(c)
DAV:   1    -0.152418388693E+03   -0.23906E-02   -0.28973E-02  2936   0.687E-01    0.588E-02
DAV:   2    -0.152418402685E+03   -0.13992E-04   -0.25333E-03  3292   0.220E-01    0.539E-02
DAV:   3    -0.152418373520E+03    0.29165E-04   -0.27111E-04  3280   0.705E-02    0.407E-02
DAV:   4    -0.152418346246E+03    0.27275E-04   -0.15123E-04  3188   0.476E-02    0.157E-02
DAV:   5    -0.152418336709E+03    0.95369E-05   -0.54004E-05  3196   0.340E-02    0.174E-02
DAV:   6    -0.152418331865E+03    0.48437E-05   -0.11366E-05  2056   0.237E-02
   2 F= -.15241833E+03 E0= -.15241459E+03  d E =-.234050E-02
       N       E                     dE             d eps       ncg     rms          rms(c)
DAV:   1    -0.152418775591E+03   -0.43888E-03   -0.11764E-02  2924   0.443E-01    0.385E-02
DAV:   2    -0.152418790380E+03   -0.14789E-04   -0.11369E-03  3292   0.145E-01    0.369E-02
DAV:   3    -0.152418774997E+03    0.15383E-04   -0.10946E-04  3224   0.475E-02    0.273E-02
DAV:   4    -0.152418762041E+03    0.12955E-04   -0.75087E-05  3116   0.351E-02    0.101E-02
DAV:   5    -0.152418756949E+03    0.50925E-05   -0.22441E-05  2468   0.265E-02    0.115E-02
DAV:   6    -0.152418754422E+03    0.25265E-05   -0.68591E-06  1816   0.180E-02
   3 F= -.15241875E+03 E0= -.15241519E+03  d E =-.276306E-02
       N       E                     dE             d eps       ncg     rms          rms(c)
DAV:   1    -0.152419751915E+03   -0.99497E-03   -0.25373E-01  2864   0.217E+00    0.712E-02
DAV:   2    -0.152420309026E+03   -0.55711E-03   -0.65208E-03  3256   0.306E-01    0.434E-02
DAV:   3    -0.152420264426E+03    0.44600E-04   -0.87114E-05  3392   0.588E-02    0.302E-02
DAV:   4    -0.152420233098E+03    0.31327E-04   -0.66472E-05  3176   0.503E-02    0.134E-02
DAV:   5    -0.152420218985E+03    0.14113E-04   -0.20533E-05  2236   0.392E-02    0.687E-03
DAV:   6    -0.152420208647E+03    0.10338E-04   -0.19888E-05  2432   0.391E-02    0.467E-03
DAV:   7    -0.152420202493E+03    0.61538E-05   -0.11668E-05  2052   0.268E-02
   4 F= -.15242020E+03 E0= -.15241683E+03  d E =-.144807E-02
       N       E                     dE             d eps       ncg     rms          rms(c)
DAV:   1    -0.152419774338E+03    0.43431E-03   -0.71577E-01  2864   0.363E+00    0.119E-01
DAV:   2    -0.152421341207E+03   -0.15669E-02   -0.18434E-02  3264   0.514E-01    0.718E-02
DAV:   3    -0.152421218625E+03    0.12258E-03   -0.26823E-04  3408   0.985E-02    0.505E-02
DAV:   4    -0.152421128016E+03    0.90610E-04   -0.17092E-04  3328   0.802E-02    0.235E-02
DAV:   5    -0.152421078295E+03    0.49721E-04   -0.60297E-05  3372   0.707E-02    0.121E-02
DAV:   6    -0.152421045616E+03    0.32679E-04   -0.66719E-05  3360   0.713E-02    0.892E-03
DAV:   7    -0.152421023444E+03    0.22173E-04   -0.30830E-05  2780   0.500E-02    0.761E-03
DAV:   8    -0.152421004649E+03    0.18795E-04   -0.14966E-05  2252   0.498E-02    0.499E-03
DAV:   9    -0.152420989313E+03    0.15336E-04   -0.19864E-05  2516   0.633E-02    0.648E-03
DAV:  10    -0.152420986755E+03    0.25578E-05   -0.41886E-05  2900   0.382E-02
   5 F= -.15242099E+03 E0= -.15241797E+03  d E =-.223233E-02
       N       E                     dE             d eps       ncg     rms          rms(c)
DAV:   1    -0.152421445035E+03   -0.45572E-03   -0.17749E-01  2904   0.179E+00    0.551E-02
DAV:   2    -0.152421832455E+03   -0.38742E-03   -0.42730E-03  3204   0.242E-01    0.312E-02
DAV:   3    -0.152421807020E+03    0.25435E-04   -0.49541E-05  3224   0.414E-02    0.212E-02
DAV:   4    -0.152421787359E+03    0.19661E-04   -0.27603E-05  2672   0.401E-02    0.861E-03
DAV:   5    -0.152421780095E+03    0.72645E-05   -0.23391E-05  2632   0.376E-02    0.487E-03
DAV:   6    -0.152421778438E+03    0.16569E-05   -0.12996E-05  1940   0.222E-02
   6 F= -.15242178E+03 E0= -.15241886E+03  d E =-.791683E-03
       N       E                     dE             d eps       ncg     rms          rms(c)
DAV:   1    -0.152420279578E+03    0.15005E-02   -0.15988E+00  2888   0.536E+00    0.168E-01
DAV:   2    -0.152423820784E+03   -0.35412E-02   -0.38663E-02  3188   0.723E-01    0.926E-02
DAV:   3    -0.152423606404E+03    0.21438E-03   -0.39815E-04  3360   0.110E-01    0.620E-02
DAV:   4    -0.152423459887E+03    0.14652E-03   -0.25615E-04  3376   0.106E-01    0.246E-02
DAV:   5    -0.152423415975E+03    0.43912E-04   -0.16937E-04  3352   0.842E-02    0.118E-02
DAV:   6    -0.152423401783E+03    0.14192E-04   -0.62939E-05  3240   0.485E-02    0.833E-03
DAV:   7    -0.152423389831E+03    0.11952E-04   -0.87412E-06  2092   0.325E-02    0.539E-03
DAV:   8    -0.152423380490E+03    0.93402E-05   -0.15106E-05  2380   0.346E-02
   7 F= -.15242338E+03 E0= -.15242075E+03  d E =-.239374E-02
       N       E                     dE             d eps       ncg     rms          rms(c)
DAV:   1    -0.152410269880E+03    0.13120E-01   -0.64015E+00  2888   0.107E+01    0.335E-01
DAV:   2    -0.152424730870E+03   -0.14461E-01   -0.15742E-01  3180   0.146E+00    0.193E-01
DAV:   3    -0.152423841637E+03    0.88923E-03   -0.15459E-03  3360   0.215E-01    0.127E-01
DAV:   4    -0.152423271200E+03    0.57044E-03   -0.10508E-03  3336   0.201E-01    0.511E-02
DAV:   5    -0.152423103123E+03    0.16808E-03   -0.63620E-04  3388   0.157E-01    0.213E-02
DAV:   6    -0.152423049684E+03    0.53438E-04   -0.20888E-04  3352   0.849E-02    0.152E-02
DAV:   7    -0.152422999170E+03    0.50514E-04   -0.27136E-05  2572   0.607E-02    0.875E-03
DAV:   8    -0.152422953497E+03    0.45673E-04   -0.63124E-05  3292   0.741E-02    0.829E-03
DAV:   9    -0.152422925876E+03    0.27622E-04   -0.35238E-05  2740   0.621E-02    0.679E-03
DAV:  10    -0.152422914163E+03    0.11713E-04   -0.31919E-05  2636   0.554E-02    0.762E-03
DAV:  11    -0.152422909625E+03    0.45374E-05   -0.31938E-05  2728   0.441E-02
   8 F= -.15242291E+03 E0= -.15242076E+03  d E =-.192287E-02
       N       E                     dE             d eps       ncg     rms          rms(c)
DAV:   1    -0.152419254318E+03    0.36598E-02   -0.22758E+00  2872   0.643E+00    0.203E-01
DAV:   2    -0.152424354611E+03   -0.51003E-02   -0.55635E-02  3156   0.873E-01    0.107E-01
DAV:   3    -0.152424080592E+03    0.27402E-03   -0.57256E-04  3340   0.128E-01    0.752E-02
DAV:   4    -0.152423870105E+03    0.21049E-03   -0.43757E-04  3456   0.138E-01    0.283E-02
DAV:   5    -0.152423825572E+03    0.44532E-04   -0.25354E-04  3336   0.953E-02    0.180E-02
DAV:   6    -0.152423807624E+03    0.17949E-04   -0.10745E-04  3308   0.586E-02    0.116E-02
DAV:   7    -0.152423792324E+03    0.15300E-04   -0.12158E-05  2100   0.392E-02    0.815E-03
DAV:   8    -0.152423782682E+03    0.96421E-05   -0.20797E-05  2600   0.351E-02
   9 F= -.15242378E+03 E0= -.15242132E+03  d E =-.279593E-02
       N       E                     dE             d eps       ncg     rms          rms(c)
DAV:   1    -0.152424337500E+03   -0.54518E-03   -0.36523E-01  2896   0.262E+00    0.802E-02
DAV:   2    -0.152425108133E+03   -0.77063E-03   -0.84828E-03  3256   0.368E-01    0.455E-02
DAV:   3    -0.152425061243E+03    0.46890E-04   -0.93789E-05  3336   0.481E-02    0.318E-02
DAV:   4    -0.152425024631E+03    0.36612E-04   -0.12146E-04  3164   0.568E-02    0.123E-02
DAV:   5    -0.152425020581E+03    0.40502E-05   -0.32153E-05  2776   0.329E-02    0.106E-02
DAV:   6    -0.152425015856E+03    0.47251E-05   -0.18697E-05  2320   0.305E-02
  10 F= -.15242502E+03 E0= -.15242265E+03  d E =-.123317E-02
       N       E                     dE             d eps       ncg     rms          rms(c)
DAV:   1    -0.152421119236E+03    0.39013E-02   -0.29082E+00  2896   0.743E+00    0.221E-01
DAV:   2    -0.152427220228E+03   -0.61010E-02   -0.66704E-02  3244   0.103E+00    0.128E-01
DAV:   3    -0.152426836613E+03    0.38362E-03   -0.64239E-04  3352   0.130E-01    0.885E-02
DAV:   4    -0.152426518700E+03    0.31791E-03   -0.90712E-04  3300   0.165E-01    0.325E-02
DAV:   5    -0.152426482165E+03    0.36535E-04   -0.29691E-04  3280   0.971E-02    0.272E-02
DAV:   6    -0.152426438322E+03    0.43843E-04   -0.13499E-04  3124   0.781E-02    0.115E-02
DAV:   7    -0.152426390624E+03    0.47698E-04   -0.18957E-05  2348   0.723E-02    0.107E-02
DAV:   8    -0.152426320844E+03    0.69780E-04   -0.21419E-05  2500   0.978E-02    0.951E-03
DAV:   9    -0.152426214010E+03    0.10683E-03   -0.83404E-05  3908   0.170E-01    0.111E-02
DAV:  10    -0.152426109065E+03    0.10494E-03   -0.12848E-04  3788   0.249E-01    0.177E-02
DAV:  11    -0.152426073604E+03    0.35462E-04   -0.29903E-04  4312   0.235E-01    0.141E-02
DAV:  12    -0.152426099919E+03   -0.26315E-04   -0.32326E-04  3032   0.698E-02    0.188E-02
DAV:  13    -0.152426097009E+03    0.29104E-05   -0.20902E-05  2104   0.220E-02
  11 F= -.15242610E+03 E0= -.15242394E+03  d E =-.231433E-02
       N       E                     dE             d eps       ncg     rms          rms(c)
DAV:   1    -0.152426581931E+03   -0.48201E-03   -0.13977E-01  2912   0.160E+00    0.468E-02
DAV:   2    -0.152426850358E+03   -0.26843E-03   -0.30192E-03  3228   0.216E-01    0.303E-02
DAV:   3    -0.152426833100E+03    0.17258E-04   -0.56915E-05  3216   0.394E-02    0.197E-02
DAV:   4    -0.152426822395E+03    0.10705E-04   -0.23931E-05  2144   0.304E-02    0.100E-02
DAV:   5    -0.152426817808E+03    0.45871E-05   -0.13860E-05  2048   0.283E-02    0.538E-03
DAV:   6    -0.152426816537E+03    0.12714E-05   -0.10388E-05  1848   0.214E-02
  12 F= -.15242682E+03 E0= -.15242468E+03  d E =-.719528E-03
       N       E                     dE             d eps       ncg     rms          rms(c)
DAV:   1    -0.152426041262E+03    0.77655E-03   -0.12590E+00  2864   0.481E+00    0.145E-01
DAV:   2    -0.152428598518E+03   -0.25573E-02   -0.27654E-02  3212   0.643E-01    0.807E-02
DAV:   3    -0.152428452815E+03    0.14570E-03   -0.22263E-04  3376   0.833E-02    0.543E-02
DAV:   4    -0.152428351159E+03    0.10166E-03   -0.49645E-04  3364   0.139E-01    0.195E-02
DAV:   5    -0.152428358324E+03   -0.71651E-05   -0.18107E-04  3168   0.572E-02    0.228E-02
DAV:   6    -0.152428351959E+03    0.63652E-05   -0.15002E-05  1736   0.180E-02
  13 F= -.15242835E+03 E0= -.15242631E+03  d E =-.225495E-02
       N       E                     dE             d eps       ncg     rms          rms(c)
DAV:   1    -0.152419199893E+03    0.91584E-02   -0.50345E+00  2856   0.964E+00    0.291E-01
DAV:   2    -0.152429495310E+03   -0.10295E-01   -0.11153E-01  3220   0.130E+00    0.164E-01
DAV:   3    -0.152428902562E+03    0.59275E-03   -0.96582E-04  3376   0.172E-01    0.110E-01
DAV:   4    -0.152428481360E+03    0.42120E-03   -0.19694E-03  3380   0.277E-01    0.409E-02
DAV:   5    -0.152428499394E+03   -0.18035E-04   -0.70695E-04  3204   0.116E-01    0.460E-02
DAV:   6    -0.152428466203E+03    0.33192E-04   -0.91299E-05  3132   0.439E-02    0.272E-02
DAV:   7    -0.152428409095E+03    0.57108E-04   -0.44410E-05  3108   0.600E-02    0.133E-02
DAV:   8    -0.152428360605E+03    0.48490E-04   -0.40382E-05  2940   0.775E-02    0.144E-02
DAV:   9    -0.152428296713E+03    0.63892E-04   -0.49984E-05  3236   0.112E-01    0.111E-02
DAV:  10    -0.152428232072E+03    0.64641E-04   -0.40162E-05  3052   0.121E-01    0.878E-03
DAV:  11    -0.152428131292E+03    0.10078E-03   -0.14809E-04  4128   0.253E-01    0.205E-02
DAV:  12    -0.152428111755E+03    0.19537E-04   -0.17987E-04  3584   0.161E-01    0.249E-02
DAV:  13    -0.152428111444E+03    0.31041E-06   -0.20203E-04  3100   0.827E-02    0.160E-02
DAV:  14    -0.152428113710E+03   -0.22661E-05   -0.48584E-05  2732   0.262E-02
  14 F= -.15242811E+03 E0= -.15242625E+03  d E =-.201670E-02
       N       E                     dE             d eps       ncg     rms          rms(c)
DAV:   1    -0.152426331557E+03    0.17799E-02   -0.13644E+00  2872   0.507E+00    0.145E-01
DAV:   2    -0.152429018476E+03   -0.26869E-02   -0.28912E-02  3216   0.675E-01    0.834E-02
DAV:   3    -0.152428864610E+03    0.15387E-03   -0.25118E-04  3376   0.923E-02    0.559E-02
DAV:   4    -0.152428757820E+03    0.10679E-03   -0.46936E-04  3356   0.141E-01    0.178E-02
DAV:   5    -0.152428765519E+03   -0.76995E-05   -0.18695E-04  3220   0.596E-02    0.211E-02
DAV:   6    -0.152428761050E+03    0.44693E-05   -0.14278E-05  1720   0.174E-02
  15 F= -.15242876E+03 E0= -.15242683E+03  d E =-.266404E-02
       N       E                     dE             d eps       ncg     rms          rms(c)
DAV:   1    -0.152429564211E+03   -0.79869E-03   -0.20636E-01  2888   0.197E+00    0.570E-02
DAV:   2    -0.152429963594E+03   -0.39938E-03   -0.46387E-03  3276   0.274E-01    0.367E-02
DAV:   3    -0.152429932978E+03    0.30616E-04   -0.63396E-05  3264   0.437E-02    0.268E-02
DAV:   4    -0.152429906194E+03    0.26785E-04   -0.77813E-05  3100   0.523E-02    0.109E-02
DAV:   5    -0.152429901455E+03    0.47391E-05   -0.33144E-05  2876   0.351E-02    0.103E-02
DAV:   6    -0.152429898671E+03    0.27840E-05   -0.14636E-05  1760   0.213E-02
  16 F= -.15242990E+03 E0= -.15242799E+03  d E =-.113762E-02
       N       E                     dE             d eps       ncg     rms          rms(c)
DAV:   1    -0.152428613689E+03    0.12878E-02   -0.14310E+00  2872   0.517E+00    0.154E-01
DAV:   2    -0.152431410938E+03   -0.27972E-02   -0.32184E-02  3276   0.715E-01    0.959E-02
DAV:   3    -0.152431208907E+03    0.20203E-03   -0.39709E-04  3384   0.105E-01    0.681E-02
DAV:   4    -0.152431060659E+03    0.14825E-03   -0.65882E-04  3316   0.139E-01    0.274E-02
DAV:   5    -0.152431055725E+03    0.49344E-05   -0.19703E-04  3320   0.680E-02    0.252E-02
DAV:   6    -0.152431045456E+03    0.10269E-04   -0.68947E-05  2996   0.398E-02    0.954E-03
DAV:   7    -0.152431039453E+03    0.60030E-05   -0.87178E-06  2084   0.277E-02
  17 F= -.15243104E+03 E0= -.15242919E+03  d E =-.227840E-02
       N       E                     dE             d eps       ncg     rms          rms(c)
DAV:   1    -0.152431331016E+03   -0.28556E-03   -0.48432E-01  2904   0.306E+00    0.928E-02
DAV:   2    -0.152432372907E+03   -0.10419E-02   -0.11487E-02  3284   0.429E-01    0.539E-02
DAV:   3    -0.152432314384E+03    0.58523E-04   -0.13068E-04  3360   0.578E-02    0.379E-02
DAV:   4    -0.152432277658E+03    0.36727E-04   -0.14700E-04  3240   0.626E-02    0.148E-02
DAV:   5    -0.152432273420E+03    0.42378E-05   -0.34638E-05  2612   0.307E-02    0.109E-02
DAV:   6    -0.152432270141E+03    0.32783E-05   -0.19439E-05  2132   0.258E-02
  18 F= -.15243227E+03 E0= -.15243049E+03  d E =-.123069E-02
       N       E                     dE             d eps       ncg     rms          rms(c)
DAV:   1    -0.152431573113E+03    0.70031E-03   -0.68090E-01  2904   0.363E+00    0.111E-01
DAV:   2    -0.152433046726E+03   -0.14736E-02   -0.16356E-02  3296   0.512E-01    0.657E-02
DAV:   3    -0.152432957953E+03    0.88773E-04   -0.18852E-04  3352   0.693E-02    0.465E-02
DAV:   4    -0.152432900671E+03    0.57282E-04   -0.23659E-04  3272   0.775E-02    0.180E-02
DAV:   5    -0.152432893057E+03    0.76137E-05   -0.50510E-05  3056   0.371E-02    0.137E-02
DAV:   6    -0.152432886707E+03    0.63508E-05   -0.34602E-05  2708   0.331E-02
  19 F= -.15243289E+03 E0= -.15243119E+03  d E =-.184725E-02
       N       E                     dE             d eps       ncg     rms          rms(c)
DAV:   1    -0.152433296369E+03   -0.40331E-03   -0.18481E-01  2864   0.181E+00    0.564E-02
DAV:   2    -0.152433641783E+03   -0.34541E-03   -0.40950E-03  3308   0.253E-01    0.353E-02
DAV:   3    -0.152433613517E+03    0.28266E-04   -0.56467E-05  3212   0.400E-02    0.259E-02
DAV:   4    -0.152433591292E+03    0.22224E-04   -0.91218E-05  3096   0.488E-02    0.108E-02
DAV:   5    -0.152433587893E+03    0.33998E-05   -0.20783E-05  2264   0.267E-02    0.963E-03
DAV:   6    -0.152433583811E+03    0.40821E-05   -0.15672E-05  2132   0.259E-02
  20 F= -.15243358E+03 E0= -.15243189E+03  d E =-.697104E-03
       N       E                     dE             d eps       ncg     rms          rms(c)
DAV:   1    -0.152433312156E+03    0.27574E-03   -0.37780E-01  2864   0.258E+00    0.783E-02
DAV:   2    -0.152434021845E+03   -0.70969E-03   -0.83343E-03  3316   0.360E-01    0.514E-02
DAV:   3    -0.152433962843E+03    0.59001E-04   -0.10990E-04  3328   0.568E-02    0.374E-02
DAV:   4    -0.152433914306E+03    0.48537E-04   -0.19756E-04  3152   0.742E-02    0.157E-02
DAV:   5    -0.152433909110E+03    0.51964E-05   -0.54709E-05  3012   0.415E-02    0.146E-02
DAV:   6    -0.152433903381E+03    0.57283E-05   -0.29400E-05  2608   0.293E-02
  21 F= -.15243390E+03 E0= -.15243221E+03  d E =-.101667E-02
       N       E                     dE             d eps       ncg     rms          rms(c)
DAV:   1    -0.152434018138E+03   -0.10903E-03   -0.20636E-01  2928   0.188E+00    0.574E-02
DAV:   2    -0.152434422685E+03   -0.40455E-03   -0.44703E-03  3312   0.258E-01    0.374E-02
DAV:   3    -0.152434390689E+03    0.31996E-04   -0.47383E-05  3068   0.437E-02    0.261E-02
DAV:   4    -0.152434362445E+03    0.28244E-04   -0.12577E-04  3300   0.786E-02    0.113E-02
DAV:   5    -0.152434364474E+03   -0.20292E-05   -0.63392E-05  2952   0.344E-02    0.131E-02
DAV:   6    -0.152434363686E+03    0.78734E-06   -0.38195E-06  1656   0.828E-03
  22 F= -.15243436E+03 E0= -.15243265E+03  d E =-.460305E-03
       N       E                     dE             d eps       ncg     rms          rms(c)
DAV:   1    -0.152434085145E+03    0.27933E-03   -0.26444E-01  2928   0.213E+00    0.676E-02
DAV:   2    -0.152434594028E+03   -0.50888E-03   -0.57957E-03  3328   0.296E-01    0.419E-02
DAV:   3    -0.152434549454E+03    0.44574E-04   -0.66860E-05  3248   0.533E-02    0.297E-02
DAV:   4    -0.152434505977E+03    0.43478E-04   -0.16048E-04  3404   0.957E-02    0.131E-02
DAV:   5    -0.152434508757E+03   -0.27801E-05   -0.10260E-04  3128   0.446E-02    0.168E-02
DAV:   6    -0.152434507063E+03    0.16939E-05   -0.64288E-06  1664   0.110E-02
  23 F= -.15243451E+03 E0= -.15243276E+03  d E =-.603681E-03
       N       E                     dE             d eps       ncg     rms          rms(c)
DAV:   1    -0.152434626940E+03   -0.11818E-03   -0.13919E-01  2904   0.160E+00    0.504E-02
DAV:   2    -0.152434892720E+03   -0.26578E-03   -0.31269E-03  3312   0.224E-01    0.307E-02
DAV:   3    -0.152434870707E+03    0.22013E-04   -0.44138E-05  3096   0.387E-02    0.215E-02
DAV:   4    -0.152434853850E+03    0.16857E-04   -0.51576E-05  2924   0.459E-02    0.902E-03
DAV:   5    -0.152434850734E+03    0.31159E-05   -0.23473E-05  2460   0.307E-02    0.750E-03
DAV:   6    -0.152434847848E+03    0.28861E-05   -0.10200E-05  1744   0.224E-02
  24 F= -.15243485E+03 E0= -.15243312E+03  d E =-.340785E-03
       N       E                     dE             d eps       ncg     rms          rms(c)
DAV:   1    -0.152434768374E+03    0.82360E-04   -0.85339E-02  2904   0.126E+00    0.376E-02
DAV:   2    -0.152434928854E+03   -0.16048E-03   -0.19167E-03  3336   0.179E-01    0.241E-02
DAV:   3    -0.152434913853E+03    0.15001E-04   -0.36847E-05  2920   0.342E-02    0.174E-02
DAV:   4    -0.152434899270E+03    0.14583E-04   -0.23173E-05  2568   0.322E-02    0.793E-03
DAV:   5    -0.152434890511E+03    0.87585E-05   -0.94258E-06  2048   0.367E-02    0.612E-03
DAV:   6    -0.152434881899E+03    0.86129E-05   -0.77030E-06  2080   0.492E-02
  25 F= -.15243488E+03 E0= -.15243317E+03  d E =-.374836E-03
       N       E                     dE             d eps       ncg     rms          rms(c)
DAV:   1    -0.152434879818E+03    0.10693E-04   -0.98581E-02  2928   0.135E+00    0.427E-02
DAV:   2    -0.152435082541E+03   -0.20272E-03   -0.23484E-03  3328   0.196E-01    0.276E-02
DAV:   3    -0.152435063883E+03    0.18658E-04   -0.41921E-05  3024   0.357E-02    0.195E-02
DAV:   4    -0.152435048113E+03    0.15770E-04   -0.40272E-05  2816   0.356E-02    0.845E-03
DAV:   5    -0.152435043449E+03    0.46638E-05   -0.13625E-05  2032   0.264E-02    0.659E-03
DAV:   6    -0.152435040849E+03    0.25998E-05   -0.11145E-05  1948   0.238E-02
  26 F= -.15243504E+03 E0= -.15243337E+03  d E =-.158951E-03
       N       E                     dE             d eps       ncg     rms          rms(c)
DAV:   1    -0.152435029890E+03    0.13559E-04   -0.42046E-03  2952   0.280E-01    0.869E-03
DAV:   2    -0.152435037229E+03   -0.73389E-05   -0.10178E-04  3232   0.424E-02    0.653E-03
DAV:   3    -0.152435035672E+03    0.15572E-05   -0.25718E-06  1696   0.923E-03    0.490E-03
DAV:   4    -0.152435033329E+03    0.23429E-05   -0.25696E-06  1912   0.112E-02    0.215E-03
DAV:   5    -0.152435032276E+03    0.10532E-05   -0.16577E-06  1712   0.101E-02    0.212E-03
DAV:   6    -0.152435031593E+03    0.68213E-06   -0.20070E-06  1824   0.115E-02
  27 F= -.15243503E+03 E0= -.15243337E+03  d E =-.149695E-03
       N       E                     dE             d eps       ncg     rms          rms(c)
DAV:   1    -0.152434994880E+03    0.37395E-04   -0.11930E-01  2944   0.149E+00    0.445E-02
DAV:   2    -0.152435230337E+03   -0.23546E-03   -0.26476E-03  3256   0.207E-01    0.267E-02
DAV:   3    -0.152435210839E+03    0.19497E-04   -0.37283E-05  2952   0.370E-02    0.186E-02
DAV:   4    -0.152435190739E+03    0.20100E-04   -0.25497E-05  2644   0.442E-02    0.817E-03
DAV:   5    -0.152435181546E+03    0.91933E-05   -0.19887E-05  2140   0.430E-02    0.675E-03
DAV:   6    -0.152435176084E+03    0.54621E-05   -0.21080E-05  2120   0.382E-02
  28 F= -.15243518E+03 E0= -.15243354E+03  d E =-.144490E-03
       N       E                     dE             d eps       ncg     rms          rms(c)
DAV:   1    -0.152435129655E+03    0.51891E-04   -0.24262E-02  2952   0.675E-01    0.200E-02
DAV:   2    -0.152435176092E+03   -0.46437E-04   -0.57990E-04  3336   0.102E-01    0.146E-02
DAV:   3    -0.152435168465E+03    0.76273E-05   -0.13332E-05  1920   0.220E-02    0.105E-02
DAV:   4    -0.152435156616E+03    0.11849E-04   -0.74030E-06  2012   0.268E-02    0.478E-03
DAV:   5    -0.152435147679E+03    0.89363E-05   -0.50402E-06  1988   0.329E-02    0.415E-03
DAV:   6    -0.152435138015E+03    0.96645E-05   -0.65450E-06  2116   0.490E-02
  29 F= -.15243514E+03 E0= -.15243351E+03  d E =-.106422E-03
       N       E                     dE             d eps       ncg     rms          rms(c)
DAV:   1    -0.152435110669E+03    0.37011E-04   -0.80050E-02  2896   0.124E+00    0.392E-02
DAV:   2    -0.152435281294E+03   -0.17063E-03   -0.19777E-03  3336   0.182E-01    0.266E-02
DAV:   3    -0.152435268575E+03    0.12719E-04   -0.49295E-05  3168   0.351E-02    0.189E-02
DAV:   4    -0.152435260224E+03    0.83518E-05   -0.26926E-05  2336   0.255E-02    0.849E-03
DAV:   5    -0.152435256369E+03    0.38550E-05   -0.72088E-06  2008   0.208E-02    0.497E-03
DAV:   6    -0.152435254336E+03    0.20327E-05   -0.60662E-06  2000   0.238E-02
  30 F= -.15243525E+03 E0= -.15243363E+03  d E =-.116321E-03
       N       E                     dE             d eps       ncg     rms          rms(c)
DAV:   1    -0.152435254316E+03    0.20531E-05   -0.13097E-03  2936   0.158E-01    0.614E-03
DAV:   2    -0.152435256411E+03   -0.20959E-05   -0.31628E-05  2696   0.233E-02    0.342E-03
DAV:   3    -0.152435255831E+03    0.58076E-06   -0.75077E-07  1628   0.600E-03    0.233E-03
DAV:   4    -0.152435254784E+03    0.10468E-05   -0.97532E-07  1856   0.123E-02    0.111E-03
DAV:   5    -0.152435254705E+03    0.78904E-07   -0.11218E-06  1604   0.495E-03    0.127E-03
DAV:   6    -0.152435254580E+03    0.12488E-06   -0.15131E-07  1560   0.284E-03
  31 F= -.15243525E+03 E0= -.15243363E+03  d E =-.116565E-03
       N       E                     dE             d eps       ncg     rms          rms(c)
DAV:   1    -0.152435354647E+03   -0.99942E-04   -0.50664E-02  2912   0.988E-01    0.309E-02
DAV:   2    -0.152435446915E+03   -0.92268E-04   -0.11613E-03  3272   0.145E-01    0.184E-02
DAV:   3    -0.152435433759E+03    0.13156E-04   -0.42769E-05  2984   0.409E-02    0.129E-02
DAV:   4    -0.152435420992E+03    0.12766E-04   -0.64387E-06  1996   0.273E-02    0.782E-03
DAV:   5    -0.152435395692E+03    0.25301E-04   -0.14146E-05  2276   0.697E-02    0.519E-03
DAV:   6    -0.152435385408E+03    0.10284E-04   -0.24559E-05  2592   0.501E-02    0.555E-03
DAV:   7    -0.152435373382E+03    0.12027E-04   -0.22023E-05  2360   0.774E-02    0.781E-03
DAV:   8    -0.152435357620E+03    0.15761E-04   -0.10179E-05  2172   0.973E-02    0.682E-03
DAV:   9    -0.152435351788E+03    0.58327E-05   -0.43431E-05  2980   0.724E-02
  32 F= -.15243535E+03 E0= -.15243375E+03  d E =-.972075E-04
       N       E                     dE             d eps       ncg     rms          rms(c)
DAV:   1    -0.152435359701E+03   -0.20805E-05   -0.87384E-04  3064   0.135E-01    0.708E-03
DAV:   2    -0.152435363285E+03   -0.35846E-05   -0.59085E-05  2964   0.303E-02    0.820E-03
DAV:   3    -0.152435361897E+03    0.13887E-05   -0.17521E-06  1656   0.979E-03    0.614E-03
DAV:   4    -0.152435360236E+03    0.16610E-05   -0.41740E-06  1800   0.175E-02    0.229E-03
DAV:   5    -0.152435359811E+03    0.42437E-06   -0.47679E-06  1688   0.155E-02    0.260E-03
DAV:   6    -0.152435359676E+03    0.13533E-06   -0.20270E-06  1608   0.624E-03
  33 F= -.15243536E+03 E0= -.15243376E+03  d E =-.105096E-03
       N       E                     dE             d eps       ncg     rms          rms(c)
DAV:   1    -0.152435362376E+03   -0.25651E-05   -0.88702E-04  2904   0.131E-01    0.407E-03
DAV:   2    -0.152435363166E+03   -0.78929E-06   -0.18340E-05  2304   0.208E-02    0.260E-03
DAV:   3    -0.152435362626E+03    0.53957E-06   -0.18783E-06  1680   0.984E-03    0.192E-03
DAV:   4    -0.152435362056E+03    0.56968E-06   -0.29838E-07  1620   0.729E-03    0.137E-03
DAV:   5    -0.152435360026E+03    0.20301E-05   -0.13031E-06  2048   0.276E-02    0.120E-03
DAV:   6    -0.152435359957E+03    0.68864E-07   -0.31010E-06  1644   0.899E-03
  34 F= -.15243536E+03 E0= -.15243376E+03  d E =-.105377E-03
       N       E                     dE             d eps       ncg     rms          rms(c)
DAV:   1    -0.152435400108E+03   -0.40082E-04   -0.39109E-02  2928   0.868E-01    0.264E-02
DAV:   2    -0.152435470711E+03   -0.70603E-04   -0.89674E-04  3328   0.126E-01    0.169E-02
DAV:   3    -0.152435462953E+03    0.77582E-05   -0.23670E-05  2416   0.271E-02    0.129E-02
DAV:   4    -0.152435456226E+03    0.67276E-05   -0.11439E-05  1976   0.223E-02    0.650E-03
DAV:   5    -0.152435451346E+03    0.48799E-05   -0.81146E-06  2112   0.267E-02    0.442E-03
DAV:   6    -0.152435449541E+03    0.18051E-05   -0.89445E-06  1936   0.238E-02
  35 F= -.15243545E+03 E0= -.15243388E+03  d E =-.895831E-04
