 vasp.5.3.5 31Mar14 (build Apr 08 2024 10:12:10) complex                        
  
 executed on             LinuxIFC date 2024.07.29  10:50:19
 running on    8 total cores
 distrk:  each k-point on    8 cores,    1 groups
 distr:  one band on NCORES_PER_BAND=   4 cores,    2 groups


--------------------------------------------------------------------------------------------------------


 INCAR:
 POTCAR:    PAW_PBE O 08Apr2002                   
 POTCAR:    PAW_PBE Mg 13Apr2007                  
 POTCAR:    PAW_PBE Al 04Jan2001                  
 POTCAR:    PAW_PBE O 08Apr2002                   
   VRHFIN =O: s2p4                                                              
   LEXCH  = PE                                                                  
   EATOM  =   432.3788 eV,   31.7789 Ry                                         
                                                                                
   TITEL  = PAW_PBE O 08Apr2002                                                 
   LULTRA =        F    use ultrasoft PP ?                                      
   IUNSCR =        1    unscreen: 0-lin 1-nonlin 2-no                           
   RPACOR =    1.200    partial core radius                                     
   POMASS =   16.000; ZVAL   =    6.000    mass and valenz                      
   RCORE  =    1.520    outmost cutoff radius                                   
   RWIGS  =    1.550; RWIGS  =    0.820    wigner-seitz radius (au A)           
   ENMAX  =  400.000; ENMIN  =  300.000 eV                                      
   ICORE  =        2    local potential                                         
   LCOR   =        T    correct aug charges                                     
   LPAW   =        T    paw PP                                                  
   EAUG   =  605.392                                                            
   DEXC   =    0.000                                                            
   RMAX   =    1.553    core radius for proj-oper                               
   RAUG   =    1.300    factor for augmentation sphere                          
   RDEP   =    1.550    radius for radial grids                                 
   RDEPT  =    1.329    core radius for aug-charge                              
                                                                                
   Atomic configuration                                                         
    4 entries                                                                   
     n  l   j            E        occ.                                          
     1  0  0.50      -514.6923   2.0000                                         
     2  0  0.50       -23.9615   2.0000                                         
     2  1  0.50        -9.0305   4.0000                                         
     3  2  1.50        -9.5241   0.0000                                         
   Description                                                                  
     l       E           TYP  RCUT    TYP  RCUT                                 
     0    -23.9615318     23  1.200                                             
     0     -9.5240782     23  1.200                                             
     1     -9.0304911     23  1.520                                             
     1      8.1634956     23  1.520                                             
     2     -9.5240782      7  1.500                                             
  local pseudopotential read in
  partial core-charges read in
  partial kinetic energy density read in
  kinetic energy density of atom read in
  atomic valenz-charges read in
  non local Contribution for L=           0  read in
    real space projection operators read in
  non local Contribution for L=           0  read in
    real space projection operators read in
  non local Contribution for L=           1  read in
    real space projection operators read in
  non local Contribution for L=           1  read in
    real space projection operators read in
    PAW grid and wavefunctions read in
 
   number of l-projection  operators is LMAX  =           4
   number of lm-projection operators is LMMAX =           8
 
 POTCAR:    PAW_PBE Mg 13Apr2007                  
   VRHFIN =Mg: s2p0                                                             
   LEXCH  = PE                                                                  
   EATOM  =    23.0369 eV,    1.6932 Ry                                         
                                                                                
   TITEL  = PAW_PBE Mg 13Apr2007                                                
   LULTRA =        F    use ultrasoft PP ?                                      
   IUNSCR =        1    unscreen: 0-lin 1-nonlin 2-no                           
   RPACOR =    1.500    partial core radius                                     
   POMASS =   24.305; ZVAL   =    2.000    mass and valenz                      
   RCORE  =    2.000    outmost cutoff radius                                   
   RWIGS  =    2.880; RWIGS  =    1.524    wigner-seitz radius (au A)           
   ENMAX  =  200.000; ENMIN  =  100.000 eV                                      
   RCLOC  =    1.506    cutoff for local pot                                    
   LCOR   =        T    correct aug charges                                     
   LPAW   =        T    paw PP                                                  
   EAUG   =  454.734                                                            
   DEXC   =    0.000                                                            
   RMAX   =    2.045    core radius for proj-oper                               
   RAUG   =    1.300    factor for augmentation sphere                          
   RDEP   =    2.025    radius for radial grids                                 
   RDEPT  =    1.942    core radius for aug-charge                              
                                                                                
   Atomic configuration                                                         
    6 entries                                                                   
     n  l   j            E        occ.                                          
     1  0  0.50     -1259.6230   2.0000                                         
     2  0  0.50       -79.8442   2.0000                                         
     2  1  1.50       -46.6121   6.0000                                         
     3  0  0.50        -4.7055   2.0000                                         
     3  1  0.50        -1.3660   0.0000                                         
     3  2  1.50        -1.3606   0.0000                                         
   Description                                                                  
     l       E           TYP  RCUT    TYP  RCUT                                 
     0     -4.7054661     23  2.000                                             
     0     27.2116520     23  2.000                                             
     1      1.3605826     23  2.000                                             
     1     27.2116520     23  2.000                                             
     2     -1.3605826     23  2.000                                             
  local pseudopotential read in
  partial core-charges read in
  partial kinetic energy density read in
  atomic valenz-charges read in
  non local Contribution for L=           0  read in
    real space projection operators read in
  non local Contribution for L=           0  read in
    real space projection operators read in
  non local Contribution for L=           1  read in
    real space projection operators read in
  non local Contribution for L=           1  read in
    real space projection operators read in
  non local Contribution for L=           2  read in
    real space projection operators read in
    PAW grid and wavefunctions read in
 
   number of l-projection  operators is LMAX  =           5
   number of lm-projection operators is LMMAX =          13
 
 POTCAR:    PAW_PBE Al 04Jan2001                  
   VRHFIN =Al: s2p1                                                             
   LEXCH  = PE                                                                  
   EATOM  =    53.5387 eV,    3.9350 Ry                                         
                                                                                
   TITEL  = PAW_PBE Al 04Jan2001                                                
   LULTRA =        F    use ultrasoft PP ?                                      
   IUNSCR =        1    unscreen: 0-lin 1-nonlin 2-no                           
   RPACOR =    1.500    partial core radius                                     
   POMASS =   26.981; ZVAL   =    3.000    mass and valenz                      
   RCORE  =    1.900    outmost cutoff radius                                   
   RWIGS  =    2.650; RWIGS  =    1.402    wigner-seitz radius (au A)           
   ENMAX  =  240.300; ENMIN  =  180.225 eV                                      
   ICORE  =        2    local potential                                         
   LCOR   =        T    correct aug charges                                     
   LPAW   =        T    paw PP                                                  
   EAUG   =  291.052                                                            
   DEXC   =    0.000                                                            
   RMAX   =    1.939    core radius for proj-oper                               
   RAUG   =    1.300    factor for augmentation sphere                          
   RDEP   =    1.966    radius for radial grids                                 
   RDEPT  =    1.856    core radius for aug-charge                              
                                                                                
   Atomic configuration                                                         
    6 entries                                                                   
     n  l   j            E        occ.                                          
     1  0  0.50     -1511.1048   2.0000                                         
     2  0  0.50      -108.1629   2.0000                                         
     2  1  1.50       -69.6402   6.0000                                         
     3  0  0.50        -7.7528   2.0000                                         
     3  1  1.50        -2.7121   1.0000                                         
     3  2  2.50        -2.7212   0.0000                                         
   Description                                                                  
     l       E           TYP  RCUT    TYP  RCUT                                 
     0     -7.7528455     23  1.900                                             
     0     -3.3096929     23  1.900                                             
     1     -2.7120682     23  1.900                                             
     1     13.6058260     23  1.900                                             
     2     -2.7211652      7  1.900                                             
  local pseudopotential read in
  partial core-charges read in
  partial kinetic energy density read in
  atomic valenz-charges read in
  non local Contribution for L=           0  read in
    real space projection operators read in
  non local Contribution for L=           0  read in
    real space projection operators read in
  non local Contribution for L=           1  read in
    real space projection operators read in
  non local Contribution for L=           1  read in
    real space projection operators read in
    PAW grid and wavefunctions read in
 
   number of l-projection  operators is LMAX  =           4
   number of lm-projection operators is LMMAX =           8
 

 ----------------------------------------------------------------------------- 
|                                                                             |
|  ADVICE TO THIS USER RUNNING 'VASP/VAMP'   (HEAR YOUR MASTER'S VOICE ...):  |
|                                                                             |
|      You have a (more or less) 'large supercell' and for larger cells       |
|      it might be more efficient to use real space projection opertators     |
|      So try LREAL= Auto  in the INCAR   file.                               |
|      Mind: At the moment your POTCAR file does not contain real space       |
|       projectors, and has to be modified,  BUT if you                       |
|      want to do an extremely  accurate calculation you might also keep the  |
|      reciprocal projection scheme          (i.e. LREAL=.FALSE.)             |
|                                                                             |
 ----------------------------------------------------------------------------- 

  PAW_PBE O 08Apr2002                   :
 energy of atom  1       EATOM= -432.3788
 kinetic energy error for atom=    0.0208 (will be added to EATOM!!)
  PAW_PBE Mg 13Apr2007                  :
 energy of atom  2       EATOM=  -23.0369
 kinetic energy error for atom=    0.0000 (will be added to EATOM!!)
  PAW_PBE Al 04Jan2001                  :
 energy of atom  3       EATOM=  -53.5387
 kinetic energy error for atom=    0.0002 (will be added to EATOM!!)
 
 
 POSCAR: Layer                                   
  positions in direct lattice
  velocities in cartesian coordinates
 exchange correlation table for  LEXCH =        8
   RHO(1)=    0.500       N(1)  =     2000
   RHO(2)=  100.500       N(2)  =     4000
 


--------------------------------------------------------------------------------------------------------


 ion  position               nearest neighbor table
   1  0.333  0.667  0.224-  12 2.15  12 2.15  12 2.15  23 2.27  23 2.27  23 2.27
   2  0.000  0.000  0.345-  19 2.13  19 2.13  19 2.13  16 2.13  16 2.13  16 2.13
   3  0.333  0.667  0.405-  13 2.13  13 2.13  13 2.13  16 2.13  16 2.13  16 2.13
   4  0.000  0.000  0.525-  17 2.13  17 2.13  17 2.13  20 2.13  20 2.13  20 2.13
   5  0.333  0.667  0.584-  14 2.13  14 2.13  14 2.13  17 2.13  17 2.13  17 2.13
   6  0.000  0.000  0.704-  18 2.13  18 2.13  18 2.13  21 2.13  21 2.13  21 2.13
   7  0.333  0.667  0.764-  15 2.13  15 2.13  15 2.13  18 2.13  18 2.13  18 2.13
   8  0.667  0.333  0.285-  12 2.13  12 2.13  12 2.13  19 2.13  19 2.13  19 2.13
   9  0.667  0.333  0.465-  20 2.13  20 2.13  20 2.13  13 2.13  13 2.13  13 2.13
  10  0.667  0.333  0.644-  21 2.13  21 2.13  14 2.13  14 2.13  21 2.13  14 2.13
  11  0.667  0.333  0.825-  15 2.15  15 2.15  15 2.15  26 2.27  26 2.27  26 2.27
  12  0.000  0.000  0.255-   8 2.13   8 2.13   8 2.13   1 2.15   1 2.15   1 2.15  23 2.79  19 3.05
                            19 3.05  19 3.05
  13  0.000  0.000  0.435-   3 2.13   3 2.13   3 2.13   9 2.13   9 2.13   9 2.13  16 3.05  16 3.05
                            16 3.05  20 3.05  20 3.05  20 3.05
  14  0.000  0.000  0.614-  10 2.13  10 2.13  10 2.13   5 2.13   5 2.13   5 2.13  21 3.05  21 3.05
                            21 3.05  17 3.05  17 3.05  17 3.05
  15  0.000  0.000  0.794-   7 2.13   7 2.13   7 2.13  11 2.15  11 2.15  11 2.15  26 2.79  18 3.04
                            18 3.04  18 3.04
  16  0.667  0.333  0.375-   2 2.13   2 2.13   2 2.13   3 2.13   3 2.13   3 2.13  19 3.05  19 3.05
                            19 3.05  13 3.05  13 3.05  13 3.05
  17  0.667  0.333  0.554-   4 2.13   4 2.13   4 2.13   5 2.13   5 2.13   5 2.13  20 3.05  20 3.05
                            20 3.05  14 3.05  14 3.05  14 3.05
  18  0.667  0.333  0.734-   6 2.13   6 2.13   6 2.13   7 2.13   7 2.13   7 2.13  15 3.04  15 3.04
                            15 3.04  21 3.05  21 3.05  21 3.05
  19  0.333  0.667  0.315-   2 2.13   2 2.13   2 2.13   8 2.13   8 2.13   8 2.13  12 3.05  12 3.05
                            12 3.05  16 3.05  16 3.05  16 3.05
  20  0.333  0.667  0.495-   9 2.13   9 2.13   9 2.13   4 2.13   4 2.13   4 2.13  17 3.05  17 3.05
                            17 3.05  13 3.05  13 3.05  13 3.05
  21  0.333  0.667  0.674-  10 2.13  10 2.13  10 2.13   6 2.13   6 2.13   6 2.13  14 3.05  14 3.05
                            14 3.05  18 3.05  18 3.05  18 3.05
  22  0.000  0.000  0.025-  27 2.89  27 2.89  27 2.89  25 2.89  25 2.89  25 2.89
  23  0.000  0.000  0.189-   1 2.27   1 2.27   1 2.27  12 2.79  24 2.82  24 2.82  24 2.82
  24  0.667  0.333  0.136-  23 2.82  23 2.82  23 2.82  25 2.91  25 2.91  25 2.91
  25  0.333  0.667  0.080-  22 2.89  22 2.89  22 2.89  24 2.91  24 2.91  24 2.91
  26  0.000  0.000  0.860-  11 2.27  11 2.27  11 2.27  15 2.79  28 2.82  28 2.82  28 2.82
  27  0.667  0.333  0.969-  22 2.89  22 2.89  22 2.89  28 2.91  28 2.91  28 2.91
  28  0.333  0.667  0.913-  26 2.82  26 2.82  26 2.82  27 2.91  27 2.91  27 2.91
 
  LATTYP: Found a hexagonal cell.
 ALAT       =     2.9737040142
 C/A-ratio  =    14.1358450594
  
  Lattice vectors:
  
 A1 = (   2.5753034102,  -1.4868516771,   0.0000000000)
 A2 = (   0.0000000000,   2.9737033542,   0.0000000000)
 A3 = (  -0.0000000000,   0.0000000000,  42.0358191971)


Analysis of symmetry for initial positions (statically):
=====================================================================
 Subroutine PRICEL returns:
 Original cell was already a primitive cell.
 

 Routine SETGRP: Setting up the symmetry group for a 
 hexagonal supercell.


 Subroutine GETGRP returns: Found  6 space group operations
 (whereof  6 operations were pure point group operations)
 out of a pool of 24 trial point group operations.


The static configuration has the point symmetry C_3v.


Analysis of symmetry for dynamics (positions and initial velocities):
=====================================================================
 Subroutine PRICEL returns:
 Original cell was already a primitive cell.
 

 Routine SETGRP: Setting up the symmetry group for a 
 hexagonal supercell.


 Subroutine GETGRP returns: Found  6 space group operations
 (whereof  6 operations were pure point group operations)
 out of a pool of 24 trial point group operations.


The dynamic configuration has the point symmetry C_3v.


Analysis of constrained symmetry for selective dynamics:
=====================================================================
 Subroutine PRICEL returns:
 Original cell was already a primitive cell.
 

 Routine SETGRP: Setting up the symmetry group for a 
 hexagonal supercell.


 Subroutine GETGRP returns: Found  6 space group operations
 (whereof  6 operations were pure point group operations)
 out of a pool of 24 trial point group operations.


The constrained configuration has the point symmetry C_3v.
 
 
 KPOINTS: K-Spacing Value to Generate K-Mesh: 0.02

Automatic generation of k-mesh.
Space group operators:
 irot       det(A)        alpha          n_x          n_y          n_z        tau_x        tau_y        tau_z
    1     1.000000     0.000000     1.000000     0.000000     0.000000     0.000000     0.000000     0.000000
    2     1.000000   120.000000     0.000000     0.000000    -1.000000     0.000000     0.000000     0.000000
    3     1.000000   120.000000    -0.000000     0.000000     1.000000     0.000000     0.000000     0.000000
    4    -1.000000   180.000000    -0.866025     0.500000    -0.000000     0.000000     0.000000     0.000000
    5    -1.000000   180.000000     0.000000     1.000000     0.000000     0.000000     0.000000     0.000000
    6    -1.000000   180.000000    -0.866025    -0.500000    -0.000000     0.000000     0.000000     0.000000
 
 Subroutine IBZKPT returns following result:
 ===========================================
 
 Found     21 irreducible k-points:
 
 Following reciprocal coordinates:
            Coordinates               Weight
  0.000000  0.000000  0.000000      1.000000
  0.076923  0.000000  0.000000      6.000000
  0.153846  0.000000 -0.000000      6.000000
  0.230769  0.000000 -0.000000      6.000000
  0.307692  0.000000 -0.000000      6.000000
  0.384615  0.000000 -0.000000      6.000000
  0.461538  0.000000 -0.000000      6.000000
  0.076923  0.076923 -0.000000      6.000000
  0.153846  0.076923 -0.000000     12.000000
  0.230769  0.076923 -0.000000     12.000000
  0.307692  0.076923  0.000000     12.000000
  0.384615  0.076923 -0.000000     12.000000
  0.461538  0.076923 -0.000000      6.000000
  0.153846  0.153846  0.000000      6.000000
  0.230769  0.153846 -0.000000     12.000000
  0.307692  0.153846  0.000000     12.000000
  0.384615  0.153846  0.000000     12.000000
  0.230769  0.230769 -0.000000      6.000000
  0.307692  0.230769 -0.000000     12.000000
  0.384615  0.230769 -0.000000      6.000000
  0.307692  0.307692 -0.000000      6.000000
 
 Following cartesian coordinates:
            Coordinates               Weight
  0.000000  0.000000  0.000000      1.000000
  0.029870  0.000000  0.000000      6.000000
  0.059739  0.000000  0.000000      6.000000
  0.089609  0.000000  0.000000      6.000000
  0.119478  0.000000  0.000000      6.000000
  0.149348  0.000000  0.000000      6.000000
  0.179217  0.000000  0.000000      6.000000
  0.044804  0.025868  0.000000      6.000000
  0.074674  0.025868  0.000000     12.000000
  0.104543  0.025868  0.000000     12.000000
  0.134413  0.025868  0.000000     12.000000
  0.164282  0.025868  0.000000     12.000000
  0.194152  0.025868  0.000000      6.000000
  0.089609  0.051736  0.000000      6.000000
  0.119478  0.051736  0.000000     12.000000
  0.149348  0.051736  0.000000     12.000000
  0.179217  0.051736  0.000000     12.000000
  0.134413  0.077603  0.000000      6.000000
  0.164282  0.077603  0.000000     12.000000
  0.194152  0.077603  0.000000      6.000000
  0.179217  0.103471  0.000000      6.000000
 


--------------------------------------------------------------------------------------------------------




 Dimension of arrays:
   k-points           NKPTS =     21   k-points in BZ     NKDIM =     21   number of bands    NBANDS=     68
   number of dos      NEDOS =    301   number of ions     NIONS =     28
   non local maximal  LDIM  =      5   non local SUM 2l+1 LMDIM =     13
   total plane-waves  NPLWV = 184320
   max r-space proj   IRMAX =      1   max aug-charges    IRDMAX= 194758
   dimension x,y,z NGX =    24 NGY =   24 NGZ =  320
   dimension x,y,z NGXF=    48 NGYF=   48 NGZF=  640
   support grid    NGXF=    96 NGYF=   96 NGZF= 1280
   ions per type =              11  10   7
 NGX,Y,Z   is equivalent  to a cutoff of  13.42, 13.42, 12.66 a.u.
 NGXF,Y,Z  is equivalent  to a cutoff of  26.83, 26.83, 25.31 a.u.


 I would recommend the setting:
   dimension x,y,z NGX =    22 NGY =   22 NGZ =  313
 SYSTEM =  unknown system                          
 POSCAR =  Layer                                   

 Startparameter for this run:
   NWRITE =      2    write-flag & timer
   PREC   = accura    normal or accurate (medium, high low for compatibility)
   ISTART =      0    job   : 0-new  1-cont  2-samecut
   ICHARG =      2    charge: 1-file 2-atom 10-const
   ISPIN  =      1    spin polarized calculation?
   LNONCOLLINEAR =      F non collinear calculations
   LSORBIT =      F    spin-orbit coupling
   INIWAV =      1    electr: 0-lowe 1-rand  2-diag
   LASPH  =      F    aspherical Exc in radial PAW
   METAGGA=      F    non-selfconsistent MetaGGA calc.

 Electronic Relaxation 1
   ENCUT  =  520.0 eV  38.22 Ry    6.18 a.u.   5.53  5.53 78.16*2*pi/ulx,y,z
   ENINI  =  520.0     initial cutoff
   ENAUG  =  605.4 eV  augmentation charge cutoff
   NELM   =    100;   NELMIN=  6; NELMDL=  0     # of ELM steps 
   EDIFF  = 0.1E-04   stopping-criterion for ELM
   LREAL  =      F    real-space projection
   NLSPLINE    = F    spline interpolate recip. space projectors
   LCOMPAT=      F    compatible to vasp.4.4
   GGA_COMPAT  = T    GGA compatible to vasp.4.4-vasp.4.6
   LMAXPAW     = -100 max onsite density
   LMAXMIX     =    2 max onsite mixed and CHGCAR
   VOSKOWN=      0    Vosko Wilk Nusair interpolation
   ROPT   =    0.00000   0.00000   0.00000
 Ionic relaxation
   EDIFFG = -.2E-01   stopping-criterion for IOM
   NSW    =    500    number of steps for IOM
   NBLOCK =      1;   KBLOCK =    500    inner block; outer block 
   IBRION =      2    ionic relax: 0-MD 1-quasi-New 2-CG
   NFREE  =      1    steps in history (QN), initial steepest desc. (CG)
   ISIF   =      2    stress and relaxation
   IWAVPR =     11    prediction:  0-non 1-charg 2-wave 3-comb
   ISYM   =      2    0-nonsym 1-usesym 2-fastsym
   LCORR  =      T    Harris-Foulkes like correction to forces

   POTIM  = 0.5000    time-step for ionic-motion
   TEIN   =    0.0    initial temperature
   TEBEG  =    0.0;   TEEND  =   0.0 temperature during run
   SMASS  =  -3.00    Nose mass-parameter (am)
   estimated Nose-frequenzy (Omega)   =  0.10E-29 period in steps =****** mass=  -0.202E-27a.u.
   SCALEE = 1.0000    scale energy and forces
   NPACO  =    256;   APACO  = 16.0  distance and # of slots for P.C.
   PSTRESS=    0.0 pullay stress

  Mass of Ions in am
   POMASS =  16.00 24.30 26.98
  Ionic Valenz
   ZVAL   =   6.00  2.00  3.00
  Atomic Wigner-Seitz radii
   RWIGS  =  -1.00 -1.00 -1.00
  virtual crystal weights 
   VCA    =   1.00  1.00  1.00
   NELECT =     107.0000    total number of electrons
   NUPDOWN=      -1.0000    fix difference up-down

 DOS related values:
   EMIN   =  10.00;   EMAX   =-10.00  energy-range for DOS
   EFERMI =   0.00
   ISMEAR =     0;   SIGMA  =   0.05  broadening in eV -4-tet -1-fermi 0-gaus

 Electronic relaxation 2 (details)
   IALGO  =     38    algorithm
   LDIAG  =      T    sub-space diagonalisation (order eigenvalues)
   LSUBROT=      F    optimize rotation matrix (better conditioning)
   TURBO    =      0    0=normal 1=particle mesh
   IRESTART =      0    0=no restart 2=restart with 2 vectors
   NREBOOT  =      0    no. of reboots
   NMIN     =      0    reboot dimension
   EREF     =   0.00    reference energy to select bands
   IMIX   =      4    mixing-type and parameters
     AMIX     =   0.40;   BMIX     =  1.00
     AMIX_MAG =   1.60;   BMIX_MAG =  1.00
     AMIN     =   0.01
     WC   =   100.;   INIMIX=   1;  MIXPRE=   1;  MAXMIX= -45

 Intra band minimization:
   WEIMIN = 0.0010     energy-eigenvalue tresh-hold
   EBREAK =  0.37E-07  absolut break condition
   DEPER  =   0.30     relativ break condition  

   TIME   =   0.40     timestep for ELM

  volume/ion in A,a.u.               =      11.50        77.59
  Fermi-wavevector in a.u.,A,eV,Ry     =   1.134020  2.142988 17.497126  1.286002
  Thomas-Fermi vector in A             =   2.270724
 
 Write flags
   LWAVE  =      F    write WAVECAR
   LCHARG =      T    write CHGCAR
   LVTOT  =      F    write LOCPOT, total local potential
   LVHAR  =      F    write LOCPOT, Hartree potential only
   LELF   =      F    write electronic localiz. function (ELF)
   LORBIT =      0    0 simple, 1 ext, 2 COOP (PROOUT)


 Dipole corrections
   LMONO  =      F    monopole corrections only (constant potential shift)
   LDIPOL =      F    correct potential (dipole corrections)
   IDIPOL =      0    1-x, 2-y, 3-z, 4-all directions 
   EPSILON=  1.0000000 bulk dielectric constant

 Exchange correlation treatment:
   GGA     =    --    GGA type
   LEXCH   =     8    internal setting for exchange type
   VOSKOWN=      0    Vosko Wilk Nusair interpolation
   LHFCALC =     F    Hartree Fock is set to
   LHFONE  =     F    Hartree Fock one center treatment
   AEXX    =    0.0000 exact exchange contribution

 Linear response parameters
   LEPSILON=     F    determine dielectric tensor
   LRPA    =     F    only Hartree local field effects (RPA)
   LNABLA  =     F    use nabla operator in PAW spheres
   LVEL    =     F    velocity operator in full k-point grid
   LINTERFAST=   F  fast interpolation
   KINTER  =     0    interpolate to denser k-point grid
   CSHIFT  =0.1000    complex shift for real part using Kramers Kronig
   OMEGAMAX=  -1.0    maximum frequency
   DEG_THRESHOLD= 0.2000000E-02 threshold for treating states as degnerate
   RTIME   =    0.100 relaxation time in fs

 Orbital magnetization related:
   ORBITALMAG=     F  switch on orbital magnetization
   LCHIMAG   =     F  perturbation theory with respect to B field
   DQ        =  0.001000  dq finite difference perturbation B field



--------------------------------------------------------------------------------------------------------


 conjugate gradient relaxation of ions
   using selective dynamics as specified on POSCAR
 charge density and potential will be updated during run
 non-spin polarized calculation
 Variant of blocked Davidson
 Davidson routine will perform the subspace rotation
 perform sub-space diagonalisation
    after iterative eigenvector-optimisation
 modified Broyden-mixing scheme, WC =      100.0
 initial mixing is a Kerker type mixing with AMIX =  0.4000 and BMIX =      1.0000
 Hartree-type preconditioning will be used
 using additional bands           14
 reciprocal scheme for non local part
 use partial core corrections
 calculate Harris-corrections to forces 
   (improved forces if not selfconsistent)
 use gradient corrections 
 use of overlap-Matrix (Vanderbilt PP)
 Gauss-broadening in eV      SIGMA  =   0.05


--------------------------------------------------------------------------------------------------------


  energy-cutoff  :      520.00
  volume of cell :      321.92
      direct lattice vectors                 reciprocal lattice vectors
     2.575303410 -1.486851677  0.000000000     0.388303761  0.000000000  0.000000000
     0.000000000  2.973703354  0.000000000     0.194151881  0.336281021  0.000000000
    -0.000000000  0.000000000 42.035819197     0.000000000  0.000000000  0.023789235

  length of vectors
     2.973704014  2.973703354 42.035819197     0.388303761  0.388303847  0.023789235


 
 k-points in units of 2pi/SCALE and weight: K-Spacing Value to Generate K-Mesh: 0.02
   0.00000000  0.00000000  0.00000000       0.006
   0.02986952  0.00000000  0.00000000       0.036
   0.05973904  0.00000000  0.00000000       0.036
   0.08960856  0.00000000  0.00000000       0.036
   0.11947808  0.00000000  0.00000000       0.036
   0.14934760  0.00000000  0.00000000       0.036
   0.17921712  0.00000000  0.00000000       0.036
   0.04480428  0.02586777  0.00000000       0.036
   0.07467380  0.02586777  0.00000000       0.071
   0.10454332  0.02586777  0.00000000       0.071
   0.13441284  0.02586777  0.00000000       0.071
   0.16428236  0.02586777  0.00000000       0.071
   0.19415188  0.02586777  0.00000000       0.036
   0.08960856  0.05173554  0.00000000       0.036
   0.11947808  0.05173554  0.00000000       0.071
   0.14934760  0.05173554  0.00000000       0.071
   0.17921712  0.05173554  0.00000000       0.071
   0.13441284  0.07760331  0.00000000       0.036
   0.16428236  0.07760331  0.00000000       0.071
   0.19415188  0.07760331  0.00000000       0.036
   0.17921712  0.10347108  0.00000000       0.036
 
 k-points in reciprocal lattice and weights: K-Spacing Value to Generate K-Mesh: 0.02
   0.00000000  0.00000000  0.00000000       0.006
   0.07692308  0.00000000  0.00000000       0.036
   0.15384615  0.00000000 -0.00000000       0.036
   0.23076923  0.00000000 -0.00000000       0.036
   0.30769231  0.00000000 -0.00000000       0.036
   0.38461538  0.00000000 -0.00000000       0.036
   0.46153846  0.00000000 -0.00000000       0.036
   0.07692308  0.07692308 -0.00000000       0.036
   0.15384615  0.07692308 -0.00000000       0.071
   0.23076923  0.07692308 -0.00000000       0.071
   0.30769231  0.07692308  0.00000000       0.071
   0.38461538  0.07692308 -0.00000000       0.071
   0.46153846  0.07692308 -0.00000000       0.036
   0.15384615  0.15384615  0.00000000       0.036
   0.23076923  0.15384615 -0.00000000       0.071
   0.30769231  0.15384615  0.00000000       0.071
   0.38461538  0.15384615  0.00000000       0.071
   0.23076923  0.23076923 -0.00000000       0.036
   0.30769231  0.23076923 -0.00000000       0.071
   0.38461538  0.23076923 -0.00000000       0.036
   0.30769231  0.30769231 -0.00000000       0.036
 
 position of ions in fractional coordinates (direct lattice) 
   0.33333300  0.66666700  0.22427779
   0.00000000  0.00000000  0.34482658
   0.33333300  0.66666700  0.40472089
   0.00000000  0.00000000  0.52454365
   0.33333300  0.66666700  0.58446673
   0.00000000  0.00000000  0.70426083
   0.33333300  0.66666700  0.76414453
   0.66666700  0.33333300  0.28494636
   0.66666700  0.33333300  0.46461505
   0.66666700  0.33333300  0.64436561
   0.66666700  0.33333300  0.82481426
   0.00000000  0.00000000  0.25507109
   0.00000000  0.00000000  0.43464775
   0.00000000  0.00000000  0.61442560
   0.00000000  0.00000000  0.79400742
   0.66666700  0.33333300  0.37476454
   0.66666700  0.33333300  0.55449567
   0.66666700  0.33333300  0.73418678
   0.33333300  0.66666700  0.31490425
   0.33333300  0.66666700  0.49457658
   0.33333300  0.66666700  0.67430554
   0.00000000  0.00000000  0.02453766
   0.00000000  0.00000000  0.18881304
   0.66666700  0.33333300  0.13567035
   0.33333300  0.66666700  0.07985157
   0.00000000  0.00000000  0.86027038
   0.66666700  0.33333300  0.96922930
   0.33333300  0.66666700  0.91341118
 
 position of ions in cartesian coordinates  (Angst):
   0.85843361  1.48685316  9.42770078
  -0.00000000  0.00000000 14.49506772
   0.85843361  1.48685316 17.01277428
  -0.00000000  0.00000000 22.04962221
   0.85843361  1.48685316 24.56853786
  -0.00000000  0.00000000 29.60418094
   0.85843361  1.48685316 32.12144118
   1.71686980 -0.00000149 11.97795351
   1.71686980 -0.00000149 19.53047426
   1.71686980 -0.00000149 27.08643623
   1.71686980 -0.00000149 34.67174331
  -0.00000000  0.00000000 10.72212239
  -0.00000000  0.00000000 18.27077438
  -0.00000000  0.00000000 25.82788338
  -0.00000000  0.00000000 33.37675214
   1.71686980 -0.00000149 15.75353430
   1.71686980 -0.00000149 23.30867988
   1.71686980 -0.00000149 30.86214279
   0.85843361  1.48685316 13.23725829
   0.85843361  1.48685316 20.78993172
   0.85843361  1.48685316 28.34498586
  -0.00000000  0.00000000  1.03146065
  -0.00000000  0.00000000  7.93691061
   1.71686980 -0.00000149  5.70301449
   0.85843361  1.48685316  3.35662636
  -0.00000000  0.00000000 36.16216995
   1.71686980 -0.00000149 40.74234748
   0.85843361  1.48685316 38.39598742
 


--------------------------------------------------------------------------------------------------------


 k-point  1 :   0.0000 0.0000 0.0000  plane waves:    8809
 k-point  2 :   0.0769 0.0000 0.0000  plane waves:    8799
 k-point  3 :   0.1538 0.0000-0.0000  plane waves:    8757
 k-point  4 :   0.2308 0.0000-0.0000  plane waves:    8722
 k-point  5 :   0.3077 0.0000-0.0000  plane waves:    8662
 k-point  6 :   0.3846 0.0000-0.0000  plane waves:    8634
 k-point  7 :   0.4615 0.0000-0.0000  plane waves:    8570
 k-point  8 :   0.0769 0.0769-0.0000  plane waves:    8783
 k-point  9 :   0.1538 0.0769-0.0000  plane waves:    8725
 k-point 10 :   0.2308 0.0769-0.0000  plane waves:    8689
 k-point 11 :   0.3077 0.0769 0.0000  plane waves:    8668
 k-point 12 :   0.3846 0.0769-0.0000  plane waves:    8600
 k-point 13 :   0.4615 0.0769-0.0000  plane waves:    8556
 k-point 14 :   0.1538 0.1538 0.0000  plane waves:    8683
 k-point 15 :   0.2308 0.1538-0.0000  plane waves:    8689
 k-point 16 :   0.3077 0.1538 0.0000  plane waves:    8653
 k-point 17 :   0.3846 0.1538 0.0000  plane waves:    8607
 k-point 18 :   0.2308 0.2308-0.0000  plane waves:    8665
 k-point 19 :   0.3077 0.2308-0.0000  plane waves:    8636
 k-point 20 :   0.3846 0.2308-0.0000  plane waves:    8646
 k-point 21 :   0.3077 0.3077-0.0000  plane waves:    8662

 maximum and minimum number of plane-waves per node :      2218     2120

 maximum number of plane-waves:      8809
 maximum index in each direction: 
   IXMAX=    5   IYMAX=    5   IZMAX=   78
   IXMIN=   -5   IYMIN=   -5   IZMIN=  -78

 NGX is ok and might be reduce to  22
 NGY is ok and might be reduce to  22
 NGZ is ok and might be reduce to 314

 parallel 3D FFT for wavefunctions:
    minimum data exchange during FFTs selected (reduces bandwidth)
 parallel 3D FFT for charge:
    minimum data exchange during FFTs selected (reduces bandwidth)


 total amount of memory used by VASP on root node   148958. kBytes
========================================================================

   base      :      30000. kBytes
   nonl-proj :      15498. kBytes
   fftplans  :      55171. kBytes
   grid      :      22118. kBytes
   one-center:         56. kBytes
   wavefun   :      26115. kBytes
 
     INWAV:  cpu time    0.00: real time    0.00
 Broyden mixing: mesh for mixing (old mesh)
   NGX = 11   NGY = 11   NGZ =157
  (NGX  = 48   NGY  = 48   NGZ  =640)
  gives a total of  18997 points

 initial charge density was supplied:
 charge density of overlapping atoms calculated
 number of electron     107.0000000 magnetization 
 keeping initial charge density in first step


--------------------------------------------------------------------------------------------------------


 Maximum index for augmentation-charges        23388 (set IRDMAX)


--------------------------------------------------------------------------------------------------------


 First call to EWALD:  gamma=   0.259
 Maximum number of real-space cells 6x 6x 1
 Maximum number of reciprocal cells 1x 1x14

 FEWALD executed in parallel
    FEWALD:  cpu time    0.00: real time    0.00


----------------------------------------- Iteration    1(   1)  ---------------------------------------


    POTLOK:  cpu time    0.12: real time    0.12
    SETDIJ:  cpu time    0.13: real time    0.13
     EDDAV:  cpu time    4.66: real time    4.71
       DOS:  cpu time    0.00: real time    0.00
    --------------------------------------------
      LOOP:  cpu time    4.90: real time    4.95

 eigenvalue-minimisations  :  2864
 total energy-change (2. order) : 0.5502415E+03  (-0.4878061E+04)
 number of electron     107.0000000 magnetization 
 augmentation part      107.0000000 magnetization 

 Free energy of the ion-electron system (eV)
  ---------------------------------------------------
  alpha Z        PSCENC =       156.86500764
  Ewald energy   TEWEN  =      8628.77957652
  -Hartree energ DENC   =    -14331.26014992
  -exchange      EXHF   =         0.00000000
  -V(xc)+E(xc)   XCENC  =      -362.02376093
  PAW double counting   =      4928.51229836    -4205.98855578
  entropy T*S    EENTRO =        -0.00669676
  eigenvalues    EBANDS =       374.28814062
  atomic energy  EATOM  =      5361.07568887
  ---------------------------------------------------
  free energy    TOTEN  =       550.24154862 eV

  energy without entropy =      550.24824538  energy(sigma->0) =      550.24489700


--------------------------------------------------------------------------------------------------------




----------------------------------------- Iteration    1(   2)  ---------------------------------------


     EDDAV:  cpu time    5.44: real time    5.45
       DOS:  cpu time    0.00: real time    0.00
    --------------------------------------------
      LOOP:  cpu time    5.44: real time    5.45

 eigenvalue-minimisations  :  3668
 total energy-change (2. order) :-0.6631671E+03  (-0.6344895E+03)
 number of electron     107.0000000 magnetization 
 augmentation part      107.0000000 magnetization 

 Free energy of the ion-electron system (eV)
  ---------------------------------------------------
  alpha Z        PSCENC =       156.86500764
  Ewald energy   TEWEN  =      8628.77957652
  -Hartree energ DENC   =    -14331.26014992
  -exchange      EXHF   =         0.00000000
  -V(xc)+E(xc)   XCENC  =      -362.02376093
  PAW double counting   =      4928.51229836    -4205.98855578
  entropy T*S    EENTRO =        -0.01132491
  eigenvalues    EBANDS =      -288.87429362
  atomic energy  EATOM  =      5361.07568887
  ---------------------------------------------------
  free energy    TOTEN  =      -112.92551377 eV

  energy without entropy =     -112.91418886  energy(sigma->0) =     -112.91985132


--------------------------------------------------------------------------------------------------------




----------------------------------------- Iteration    1(   3)  ---------------------------------------


     EDDAV:  cpu time    5.12: real time    5.13
       DOS:  cpu time    0.00: real time    0.00
    --------------------------------------------
      LOOP:  cpu time    5.12: real time    5.13

 eigenvalue-minimisations  :  3296
 total energy-change (2. order) :-0.5573182E+02  (-0.5540582E+02)
 number of electron     107.0000000 magnetization 
 augmentation part      107.0000000 magnetization 

 Free energy of the ion-electron system (eV)
  ---------------------------------------------------
  alpha Z        PSCENC =       156.86500764
  Ewald energy   TEWEN  =      8628.77957652
  -Hartree energ DENC   =    -14331.26014992
  -exchange      EXHF   =         0.00000000
  -V(xc)+E(xc)   XCENC  =      -362.02376093
  PAW double counting   =      4928.51229836    -4205.98855578
  entropy T*S    EENTRO =        -0.00384352
  eigenvalues    EBANDS =      -344.61359784
  atomic energy  EATOM  =      5361.07568887
  ---------------------------------------------------
  free energy    TOTEN  =      -168.65733660 eV

  energy without entropy =     -168.65349308  energy(sigma->0) =     -168.65541484


--------------------------------------------------------------------------------------------------------




----------------------------------------- Iteration    1(   4)  ---------------------------------------


     EDDAV:  cpu time    5.04: real time    5.05
       DOS:  cpu time    0.00: real time    0.00
    --------------------------------------------
      LOOP:  cpu time    5.04: real time    5.05

 eigenvalue-minimisations  :  3328
 total energy-change (2. order) :-0.6990725E+00  (-0.6977327E+00)
 number of electron     107.0000000 magnetization 
 augmentation part      107.0000000 magnetization 

 Free energy of the ion-electron system (eV)
  ---------------------------------------------------
  alpha Z        PSCENC =       156.86500764
  Ewald energy   TEWEN  =      8628.77957652
  -Hartree energ DENC   =    -14331.26014992
  -exchange      EXHF   =         0.00000000
  -V(xc)+E(xc)   XCENC  =      -362.02376093
  PAW double counting   =      4928.51229836    -4205.98855578
  entropy T*S    EENTRO =        -0.00367271
  eigenvalues    EBANDS =      -345.31284118
  atomic energy  EATOM  =      5361.07568887
  ---------------------------------------------------
  free energy    TOTEN  =      -169.35640912 eV

  energy without entropy =     -169.35273642  energy(sigma->0) =     -169.35457277


--------------------------------------------------------------------------------------------------------




----------------------------------------- Iteration    1(   5)  ---------------------------------------


     EDDAV:  cpu time    5.15: real time    5.16
       DOS:  cpu time    0.00: real time    0.00
    CHARGE:  cpu time    0.42: real time    0.42
    MIXING:  cpu time    0.00: real time    0.00
    --------------------------------------------
      LOOP:  cpu time    5.58: real time    5.58

 eigenvalue-minimisations  :  3408
 total energy-change (2. order) :-0.1055987E-01  (-0.1055361E-01)
 number of electron     107.0000001 magnetization 
 augmentation part        8.5026037 magnetization 

 Broyden mixing:
  rms(total) = 0.23888E+01    rms(broyden)= 0.23883E+01
  rms(prec ) = 0.24451E+01
  weight for this iteration     100.00

 Free energy of the ion-electron system (eV)
  ---------------------------------------------------
  alpha Z        PSCENC =       156.86500764
  Ewald energy   TEWEN  =      8628.77957652
  -Hartree energ DENC   =    -14331.26014992
  -exchange      EXHF   =         0.00000000
  -V(xc)+E(xc)   XCENC  =      -362.02376093
  PAW double counting   =      4928.51229836    -4205.98855578
  entropy T*S    EENTRO =        -0.00366978
  eigenvalues    EBANDS =      -345.32340397
  atomic energy  EATOM  =      5361.07568887
  ---------------------------------------------------
  free energy    TOTEN  =      -169.36696899 eV

  energy without entropy =     -169.36329920  energy(sigma->0) =     -169.36513410


--------------------------------------------------------------------------------------------------------




----------------------------------------- Iteration    1(   6)  ---------------------------------------


    POTLOK:  cpu time    0.11: real time    0.11
    SETDIJ:  cpu time    0.11: real time    0.11
     EDDAV:  cpu time    4.95: real time    4.95
       DOS:  cpu time    0.00: real time    0.00
    CHARGE:  cpu time    0.38: real time    0.39
    MIXING:  cpu time    0.01: real time    0.01
    --------------------------------------------
      LOOP:  cpu time    5.56: real time    5.57

 eigenvalue-minimisations  :  3292
 total energy-change (2. order) : 0.1663050E+02  (-0.9578051E+01)
 number of electron     107.0000002 magnetization 
 augmentation part        6.8764306 magnetization 

 Broyden mixing:
  rms(total) = 0.82307E+00    rms(broyden)= 0.82217E+00
  rms(prec ) = 0.83432E+00
  weight for this iteration     100.00

 eigenvalues of (default mixing * dielectric matrix)
  average eigenvalue GAMMA=   0.8367
  0.8367

 Free energy of the ion-electron system (eV)
  ---------------------------------------------------
  alpha Z        PSCENC =       156.86500764
  Ewald energy   TEWEN  =      8628.77957652
  -Hartree energ DENC   =    -14535.96082228
  -exchange      EXHF   =         0.00000000
  -V(xc)+E(xc)   XCENC  =      -347.60733476
  PAW double counting   =      5855.68261343    -5136.88074475
  entropy T*S    EENTRO =        -0.00837004
  eigenvalues    EBANDS =      -134.68208448
  atomic energy  EATOM  =      5361.07568887
  ---------------------------------------------------
  free energy    TOTEN  =      -152.73646985 eV

  energy without entropy =     -152.72809981  energy(sigma->0) =     -152.73228483


--------------------------------------------------------------------------------------------------------




----------------------------------------- Iteration    1(   7)  ---------------------------------------


    POTLOK:  cpu time    0.10: real time    0.10
    SETDIJ:  cpu time    0.10: real time    0.10
     EDDAV:  cpu time    4.97: real time    4.97
       DOS:  cpu time    0.00: real time    0.00
    CHARGE:  cpu time    0.41: real time    0.41
    MIXING:  cpu time    0.00: real time    0.00
    --------------------------------------------
      LOOP:  cpu time    5.59: real time    5.59

 eigenvalue-minimisations  :  3156
 total energy-change (2. order) : 0.1872688E+00  (-0.2178573E+00)
 number of electron     107.0000002 magnetization 
 augmentation part        6.9255756 magnetization 

 Broyden mixing:
  rms(total) = 0.49527E+00    rms(broyden)= 0.49526E+00
  rms(prec ) = 0.50119E+00
  weight for this iteration     100.00

 eigenvalues of (default mixing * dielectric matrix)
  average eigenvalue GAMMA=   1.5604
  0.9767  2.1441

 Free energy of the ion-electron system (eV)
  ---------------------------------------------------
  alpha Z        PSCENC =       156.86500764
  Ewald energy   TEWEN  =      8628.77957652
  -Hartree energ DENC   =    -14529.23866394
  -exchange      EXHF   =         0.00000000
  -V(xc)+E(xc)   XCENC  =      -347.34574010
  PAW double counting   =      6203.59339604    -5484.27842248
  entropy T*S    EENTRO =        -0.00844070
  eigenvalues    EBANDS =      -141.99160286
  atomic energy  EATOM  =      5361.07568887
  ---------------------------------------------------
  free energy    TOTEN  =      -152.54920101 eV

  energy without entropy =     -152.54076031  energy(sigma->0) =     -152.54498066


--------------------------------------------------------------------------------------------------------




----------------------------------------- Iteration    1(   8)  ---------------------------------------


    POTLOK:  cpu time    0.10: real time    0.10
    SETDIJ:  cpu time    0.11: real time    0.11
     EDDAV:  cpu time    4.96: real time    4.97
       DOS:  cpu time    0.00: real time    0.00
    CHARGE:  cpu time    0.40: real time    0.40
    MIXING:  cpu time    0.00: real time    0.00
    --------------------------------------------
      LOOP:  cpu time    5.57: real time    5.58

 eigenvalue-minimisations  :  3252
 total energy-change (2. order) : 0.9576223E-01  (-0.7720709E-01)
 number of electron     107.0000002 magnetization 
 augmentation part        6.9943188 magnetization 

 Broyden mixing:
  rms(total) = 0.12109E+00    rms(broyden)= 0.12102E+00
  rms(prec ) = 0.12851E+00
  weight for this iteration     100.00

 eigenvalues of (default mixing * dielectric matrix)
  average eigenvalue GAMMA=   1.4237
  2.3152  0.9780  0.9780

 Free energy of the ion-electron system (eV)
  ---------------------------------------------------
  alpha Z        PSCENC =       156.86500764
  Ewald energy   TEWEN  =      8628.77957652
  -Hartree energ DENC   =    -14532.18981957
  -exchange      EXHF   =         0.00000000
  -V(xc)+E(xc)   XCENC  =      -345.91362380
  PAW double counting   =      6735.33516591    -6015.63850059
  entropy T*S    EENTRO =        -0.00855755
  eigenvalues    EBANDS =      -140.75837621
  atomic energy  EATOM  =      5361.07568887
  ---------------------------------------------------
  free energy    TOTEN  =      -152.45343878 eV

  energy without entropy =     -152.44488123  energy(sigma->0) =     -152.44916000


--------------------------------------------------------------------------------------------------------




----------------------------------------- Iteration    1(   9)  ---------------------------------------


    POTLOK:  cpu time    0.10: real time    0.10
    SETDIJ:  cpu time    0.11: real time    0.11
     EDDAV:  cpu time    4.99: real time    5.00
       DOS:  cpu time    0.00: real time    0.00
    CHARGE:  cpu time    0.40: real time    0.40
    MIXING:  cpu time    0.01: real time    0.01
    --------------------------------------------
      LOOP:  cpu time    5.60: real time    5.61

 eigenvalue-minimisations  :  3260
 total energy-change (2. order) : 0.3224982E-01  (-0.1621871E-01)
 number of electron     107.0000002 magnetization 
 augmentation part        6.9584735 magnetization 

 Broyden mixing:
  rms(total) = 0.54314E-01    rms(broyden)= 0.54305E-01
  rms(prec ) = 0.56645E-01
  weight for this iteration     100.00

 eigenvalues of (default mixing * dielectric matrix)
  average eigenvalue GAMMA=   1.4307
  2.4416  0.9132  0.9132  1.4551

 Free energy of the ion-electron system (eV)
  ---------------------------------------------------
  alpha Z        PSCENC =       156.86500764
  Ewald energy   TEWEN  =      8628.77957652
  -Hartree energ DENC   =    -14537.49788762
  -exchange      EXHF   =         0.00000000
  -V(xc)+E(xc)   XCENC  =      -345.34520466
  PAW double counting   =      6771.58843468    -6051.96951701
  entropy T*S    EENTRO =        -0.00830494
  eigenvalues    EBANDS =      -135.90898245
  atomic energy  EATOM  =      5361.07568887
  ---------------------------------------------------
  free energy    TOTEN  =      -152.42118896 eV

  energy without entropy =     -152.41288402  energy(sigma->0) =     -152.41703649


--------------------------------------------------------------------------------------------------------




----------------------------------------- Iteration    1(  10)  ---------------------------------------


    POTLOK:  cpu time    0.10: real time    0.10
    SETDIJ:  cpu time    0.11: real time    0.11
     EDDAV:  cpu time    4.94: real time    4.94
       DOS:  cpu time    0.00: real time    0.00
    CHARGE:  cpu time    0.39: real time    0.39
    MIXING:  cpu time    0.00: real time    0.00
    --------------------------------------------
      LOOP:  cpu time    5.54: real time    5.55

 eigenvalue-minimisations  :  3236
 total energy-change (2. order) :-0.2773610E-02  (-0.8316637E-02)
 number of electron     107.0000002 magnetization 
 augmentation part        6.9374546 magnetization 

 Broyden mixing:
  rms(total) = 0.41458E-01    rms(broyden)= 0.41430E-01
  rms(prec ) = 0.45913E-01
  weight for this iteration     100.00

 eigenvalues of (default mixing * dielectric matrix)
  average eigenvalue GAMMA=   1.2779
  2.4791  1.3823  0.9693  0.7793  0.7793

 Free energy of the ion-electron system (eV)
  ---------------------------------------------------
  alpha Z        PSCENC =       156.86500764
  Ewald energy   TEWEN  =      8628.77957652
  -Hartree energ DENC   =    -14539.06489655
  -exchange      EXHF   =         0.00000000
  -V(xc)+E(xc)   XCENC  =      -345.07911917
  PAW double counting   =      6756.00588508    -6036.41642647
  entropy T*S    EENTRO =        -0.00852094
  eigenvalues    EBANDS =      -134.58115756
  atomic energy  EATOM  =      5361.07568887
  ---------------------------------------------------
  free energy    TOTEN  =      -152.42396257 eV

  energy without entropy =     -152.41544163  energy(sigma->0) =     -152.41970210


--------------------------------------------------------------------------------------------------------




----------------------------------------- Iteration    1(  11)  ---------------------------------------


    POTLOK:  cpu time    0.10: real time    0.10
    SETDIJ:  cpu time    0.11: real time    0.11
     EDDAV:  cpu time    5.43: real time    5.44
       DOS:  cpu time    0.00: real time    0.00
    CHARGE:  cpu time    0.40: real time    0.40
    MIXING:  cpu time    0.00: real time    0.00
    --------------------------------------------
      LOOP:  cpu time    6.04: real time    6.05

 eigenvalue-minimisations  :  3624
 total energy-change (2. order) : 0.3072953E-02  (-0.1202111E-02)
 number of electron     107.0000002 magnetization 
 augmentation part        6.9478433 magnetization 

 Broyden mixing:
  rms(total) = 0.22146E-01    rms(broyden)= 0.22145E-01
  rms(prec ) = 0.25219E-01
  weight for this iteration     100.00

 eigenvalues of (default mixing * dielectric matrix)
  average eigenvalue GAMMA=   1.3630
  2.5602  1.7532  1.0188  1.0188  1.1044  0.7230

 Free energy of the ion-electron system (eV)
  ---------------------------------------------------
  alpha Z        PSCENC =       156.86500764
  Ewald energy   TEWEN  =      8628.77957652
  -Hartree energ DENC   =    -14537.93014566
  -exchange      EXHF   =         0.00000000
  -V(xc)+E(xc)   XCENC  =      -345.11821927
  PAW double counting   =      6748.29031846    -6028.68661113
  entropy T*S    EENTRO =        -0.00828832
  eigenvalues    EBANDS =      -135.68821673
  atomic energy  EATOM  =      5361.07568887
  ---------------------------------------------------
  free energy    TOTEN  =      -152.42088961 eV

  energy without entropy =     -152.41260130  energy(sigma->0) =     -152.41674545


--------------------------------------------------------------------------------------------------------




----------------------------------------- Iteration    1(  12)  ---------------------------------------


    POTLOK:  cpu time    0.10: real time    0.11
    SETDIJ:  cpu time    0.11: real time    0.11
     EDDAV:  cpu time    5.03: real time    5.04
       DOS:  cpu time    0.00: real time    0.00
    CHARGE:  cpu time    0.40: real time    0.40
    MIXING:  cpu time    0.00: real time    0.00
    --------------------------------------------
      LOOP:  cpu time    5.65: real time    5.66

 eigenvalue-minimisations  :  3296
 total energy-change (2. order) : 0.5734473E-03  (-0.1201443E-02)
 number of electron     107.0000002 magnetization 
 augmentation part        6.9479271 magnetization 

 Broyden mixing:
  rms(total) = 0.16897E-01    rms(broyden)= 0.16889E-01
  rms(prec ) = 0.19652E-01
  weight for this iteration     100.00

 eigenvalues of (default mixing * dielectric matrix)
  average eigenvalue GAMMA=   1.3803
  2.7894  2.4977  0.9754  0.9754  0.9036  0.9036  0.6170

 Free energy of the ion-electron system (eV)
  ---------------------------------------------------
  alpha Z        PSCENC =       156.86500764
  Ewald energy   TEWEN  =      8628.77957652
  -Hartree energ DENC   =    -14537.48361241
  -exchange      EXHF   =         0.00000000
  -V(xc)+E(xc)   XCENC  =      -345.05617364
  PAW double counting   =      6723.64631133    -6004.05442021
  entropy T*S    EENTRO =        -0.00817148
  eigenvalues    EBANDS =      -136.18452279
  atomic energy  EATOM  =      5361.07568887
  ---------------------------------------------------
  free energy    TOTEN  =      -152.42031617 eV

  energy without entropy =     -152.41214469  energy(sigma->0) =     -152.41623043


--------------------------------------------------------------------------------------------------------




----------------------------------------- Iteration    1(  13)  ---------------------------------------


    POTLOK:  cpu time    0.10: real time    0.10
    SETDIJ:  cpu time    0.12: real time    0.12
     EDDAV:  cpu time    6.55: real time    6.56
       DOS:  cpu time    0.00: real time    0.00
    CHARGE:  cpu time    0.39: real time    0.39
    MIXING:  cpu time    0.01: real time    0.01
    --------------------------------------------
      LOOP:  cpu time    7.17: real time    7.18

 eigenvalue-minimisations  :  4600
 total energy-change (2. order) : 0.1134897E-02  (-0.1406734E-03)
 number of electron     107.0000002 magnetization 
 augmentation part        6.9504372 magnetization 

 Broyden mixing:
  rms(total) = 0.92416E-02    rms(broyden)= 0.92412E-02
  rms(prec ) = 0.12745E-01
  weight for this iteration     100.00

 eigenvalues of (default mixing * dielectric matrix)
  average eigenvalue GAMMA=   1.3731
  2.8397  2.4542  1.0208  1.0208  1.0892  0.9490  0.9490  0.6618

 Free energy of the ion-electron system (eV)
  ---------------------------------------------------
  alpha Z        PSCENC =       156.86500764
  Ewald energy   TEWEN  =      8628.77957652
  -Hartree energ DENC   =    -14536.77263127
  -exchange      EXHF   =         0.00000000
  -V(xc)+E(xc)   XCENC  =      -345.05787598
  PAW double counting   =      6708.20450330    -5988.61045200
  entropy T*S    EENTRO =        -0.00816427
  eigenvalues    EBANDS =      -136.89483409
  atomic energy  EATOM  =      5361.07568887
  ---------------------------------------------------
  free energy    TOTEN  =      -152.41918127 eV

  energy without entropy =     -152.41101700  energy(sigma->0) =     -152.41509914


--------------------------------------------------------------------------------------------------------




----------------------------------------- Iteration    1(  14)  ---------------------------------------


    POTLOK:  cpu time    0.10: real time    0.10
    SETDIJ:  cpu time    0.11: real time    0.11
     EDDAV:  cpu time    5.49: real time    5.50
       DOS:  cpu time    0.00: real time    0.00
    CHARGE:  cpu time    0.40: real time    0.40
    MIXING:  cpu time    0.00: real time    0.00
    --------------------------------------------
      LOOP:  cpu time    6.10: real time    6.11

 eigenvalue-minimisations  :  3712
 total energy-change (2. order) : 0.5406883E-03  (-0.1920974E-03)
 number of electron     107.0000002 magnetization 
 augmentation part        6.9499292 magnetization 

 Broyden mixing:
  rms(total) = 0.31672E-02    rms(broyden)= 0.31608E-02
  rms(prec ) = 0.83805E-02
  weight for this iteration     100.00

 eigenvalues of (default mixing * dielectric matrix)
  average eigenvalue GAMMA=   1.3329
  2.9167  2.5219  0.9090  0.9090  1.1255  1.1255  0.8966  0.8966  0.6949

 Free energy of the ion-electron system (eV)
  ---------------------------------------------------
  alpha Z        PSCENC =       156.86500764
  Ewald energy   TEWEN  =      8628.77957652
  -Hartree energ DENC   =    -14536.39149833
  -exchange      EXHF   =         0.00000000
  -V(xc)+E(xc)   XCENC  =      -345.05515754
  PAW double counting   =      6707.53507149    -5987.94068449
  entropy T*S    EENTRO =        -0.00817527
  eigenvalues    EBANDS =      -137.27846947
  atomic energy  EATOM  =      5361.07568887
  ---------------------------------------------------
  free energy    TOTEN  =      -152.41864058 eV

  energy without entropy =     -152.41046531  energy(sigma->0) =     -152.41455294


--------------------------------------------------------------------------------------------------------




----------------------------------------- Iteration    1(  15)  ---------------------------------------


    POTLOK:  cpu time    0.11: real time    0.11
    SETDIJ:  cpu time    0.11: real time    0.11
     EDDAV:  cpu time    5.73: real time    5.74
       DOS:  cpu time    0.00: real time    0.00
    CHARGE:  cpu time    0.42: real time    0.42
    MIXING:  cpu time    0.01: real time    0.01
    --------------------------------------------
      LOOP:  cpu time    6.37: real time    6.38

 eigenvalue-minimisations  :  3832
 total energy-change (2. order) : 0.9533833E-03  (-0.6985643E-04)
 number of electron     107.0000002 magnetization 
 augmentation part        6.9503076 magnetization 

 Broyden mixing:
  rms(total) = 0.49783E-02    rms(broyden)= 0.49778E-02
  rms(prec ) = 0.76887E-02
  weight for this iteration     100.00

 eigenvalues of (default mixing * dielectric matrix)
  average eigenvalue GAMMA=   1.4607
  3.1326  2.4882  2.4882  0.9455  0.9455  1.0546  1.0546  0.9099  0.9099  0.6781

 Free energy of the ion-electron system (eV)
  ---------------------------------------------------
  alpha Z        PSCENC =       156.86500764
  Ewald energy   TEWEN  =      8628.77957652
  -Hartree energ DENC   =    -14535.39038986
  -exchange      EXHF   =         0.00000000
  -V(xc)+E(xc)   XCENC  =      -345.05359603
  PAW double counting   =      6705.93735797    -5986.34086473
  entropy T*S    EENTRO =        -0.00806464
  eigenvalues    EBANDS =      -138.28240295
  atomic energy  EATOM  =      5361.07568887
  ---------------------------------------------------
  free energy    TOTEN  =      -152.41768720 eV

  energy without entropy =     -152.40962255  energy(sigma->0) =     -152.41365488


--------------------------------------------------------------------------------------------------------




----------------------------------------- Iteration    1(  16)  ---------------------------------------


    POTLOK:  cpu time    0.11: real time    0.11
    SETDIJ:  cpu time    0.11: real time    0.11
     EDDAV:  cpu time    5.78: real time    5.78
       DOS:  cpu time    0.00: real time    0.00
    CHARGE:  cpu time    0.39: real time    0.39
    MIXING:  cpu time    0.01: real time    0.01
    --------------------------------------------
      LOOP:  cpu time    6.39: real time    6.40

 eigenvalue-minimisations  :  3992
 total energy-change (2. order) : 0.6684312E-03  (-0.7297856E-04)
 number of electron     107.0000002 magnetization 
 augmentation part        6.9498229 magnetization 

 Broyden mixing:
  rms(total) = 0.53958E-02    rms(broyden)= 0.53952E-02
  rms(prec ) = 0.70469E-02
  weight for this iteration     100.00

 eigenvalues of (default mixing * dielectric matrix)
  average eigenvalue GAMMA=   1.5910
  4.4810  2.8593  2.4605  0.9496  0.9496  1.1458  1.1458  0.9834  0.9243  0.9243
  0.6778

 Free energy of the ion-electron system (eV)
  ---------------------------------------------------
  alpha Z        PSCENC =       156.86500764
  Ewald energy   TEWEN  =      8628.77957652
  -Hartree energ DENC   =    -14534.57694186
  -exchange      EXHF   =         0.00000000
  -V(xc)+E(xc)   XCENC  =      -345.04530913
  PAW double counting   =      6709.40653443    -5989.80901963
  entropy T*S    EENTRO =        -0.00802953
  eigenvalues    EBANDS =      -139.10452609
  atomic energy  EATOM  =      5361.07568887
  ---------------------------------------------------
  free energy    TOTEN  =      -152.41701877 eV

  energy without entropy =     -152.40898924  energy(sigma->0) =     -152.41300400


--------------------------------------------------------------------------------------------------------




----------------------------------------- Iteration    1(  17)  ---------------------------------------


    POTLOK:  cpu time    0.10: real time    0.10
    SETDIJ:  cpu time    0.10: real time    0.10
     EDDAV:  cpu time    6.67: real time    6.68
       DOS:  cpu time    0.00: real time    0.00
    CHARGE:  cpu time    0.40: real time    0.40
    MIXING:  cpu time    0.01: real time    0.01
    --------------------------------------------
      LOOP:  cpu time    7.27: real time    7.28

 eigenvalue-minimisations  :  4612
 total energy-change (2. order) : 0.4801973E-03  (-0.1174510E-03)
 number of electron     107.0000002 magnetization 
 augmentation part        6.9495537 magnetization 

 Broyden mixing:
  rms(total) = 0.19199E-02    rms(broyden)= 0.19165E-02
  rms(prec ) = 0.37727E-02
  weight for this iteration     100.00

 eigenvalues of (default mixing * dielectric matrix)
  average eigenvalue GAMMA=   1.6671
  4.9582  2.9971  2.5537  1.9676  0.9404  0.9404  1.0909  1.0909  0.6799  0.9738
  0.9064  0.9064

 Free energy of the ion-electron system (eV)
  ---------------------------------------------------
  alpha Z        PSCENC =       156.86500764
  Ewald energy   TEWEN  =      8628.77957652
  -Hartree energ DENC   =    -14533.67905383
  -exchange      EXHF   =         0.00000000
  -V(xc)+E(xc)   XCENC  =      -345.04426837
  PAW double counting   =      6710.50282211    -5990.90510027
  entropy T*S    EENTRO =        -0.00801744
  eigenvalues    EBANDS =      -140.00319379
  atomic energy  EATOM  =      5361.07568887
  ---------------------------------------------------
  free energy    TOTEN  =      -152.41653857 eV

  energy without entropy =     -152.40852112  energy(sigma->0) =     -152.41252985


--------------------------------------------------------------------------------------------------------




----------------------------------------- Iteration    1(  18)  ---------------------------------------


    POTLOK:  cpu time    0.10: real time    0.10
    SETDIJ:  cpu time    0.11: real time    0.11
     EDDAV:  cpu time    5.50: real time    5.51
       DOS:  cpu time    0.00: real time    0.00
    CHARGE:  cpu time    0.39: real time    0.39
    MIXING:  cpu time    0.01: real time    0.01
    --------------------------------------------
      LOOP:  cpu time    6.11: real time    6.12

 eigenvalue-minimisations  :  3720
 total energy-change (2. order) : 0.1998151E-03  (-0.9251389E-04)
 number of electron     107.0000002 magnetization 
 augmentation part        6.9495255 magnetization 

 Broyden mixing:
  rms(total) = 0.29005E-02    rms(broyden)= 0.28992E-02
  rms(prec ) = 0.38579E-02
  weight for this iteration     100.00

 eigenvalues of (default mixing * dielectric matrix)
  average eigenvalue GAMMA=   1.7767
  6.4589  3.2899  2.5458  2.3693  0.9426  0.9426  1.1348  1.1348  0.9450  0.9450
  0.9606  0.6781  0.7496

 Free energy of the ion-electron system (eV)
  ---------------------------------------------------
  alpha Z        PSCENC =       156.86500764
  Ewald energy   TEWEN  =      8628.77957652
  -Hartree energ DENC   =    -14533.15159899
  -exchange      EXHF   =         0.00000000
  -V(xc)+E(xc)   XCENC  =      -345.04435099
  PAW double counting   =      6710.27243529    -5990.67608405
  entropy T*S    EENTRO =        -0.00801283
  eigenvalues    EBANDS =      -140.52900023
  atomic energy  EATOM  =      5361.07568887
  ---------------------------------------------------
  free energy    TOTEN  =      -152.41633875 eV

  energy without entropy =     -152.40832593  energy(sigma->0) =     -152.41233234


--------------------------------------------------------------------------------------------------------




----------------------------------------- Iteration    1(  19)  ---------------------------------------


    POTLOK:  cpu time    0.10: real time    0.10
    SETDIJ:  cpu time    0.11: real time    0.11
     EDDAV:  cpu time    6.10: real time    6.11
       DOS:  cpu time    0.00: real time    0.00
    CHARGE:  cpu time    0.39: real time    0.39
    MIXING:  cpu time    0.01: real time    0.01
    --------------------------------------------
      LOOP:  cpu time    6.71: real time    6.72

 eigenvalue-minimisations  :  4220
 total energy-change (2. order) : 0.1911272E-03  (-0.3653210E-04)
 number of electron     107.0000002 magnetization 
 augmentation part        6.9500878 magnetization 

 Broyden mixing:
  rms(total) = 0.13503E-02    rms(broyden)= 0.13496E-02
  rms(prec ) = 0.22199E-02
  weight for this iteration     100.00

 eigenvalues of (default mixing * dielectric matrix)
  average eigenvalue GAMMA=   1.7785
  6.8925  3.4095  2.6337  2.3685  0.9486  0.9486  0.6794  1.0495  1.0495  1.0235
  1.0415  1.0415  0.9062  0.9062

 Free energy of the ion-electron system (eV)
  ---------------------------------------------------
  alpha Z        PSCENC =       156.86500764
  Ewald energy   TEWEN  =      8628.77957652
  -Hartree energ DENC   =    -14532.67107558
  -exchange      EXHF   =         0.00000000
  -V(xc)+E(xc)   XCENC  =      -345.04844482
  PAW double counting   =      6709.82913842    -5990.23242063
  entropy T*S    EENTRO =        -0.00797522
  eigenvalues    EBANDS =      -141.00564284
  atomic energy  EATOM  =      5361.07568887
  ---------------------------------------------------
  free energy    TOTEN  =      -152.41614763 eV

  energy without entropy =     -152.40817241  energy(sigma->0) =     -152.41216002


--------------------------------------------------------------------------------------------------------




----------------------------------------- Iteration    1(  20)  ---------------------------------------


    POTLOK:  cpu time    0.10: real time    0.10
    SETDIJ:  cpu time    0.11: real time    0.11
     EDDAV:  cpu time    5.68: real time    5.69
       DOS:  cpu time    0.00: real time    0.00
    CHARGE:  cpu time    0.40: real time    0.40
    MIXING:  cpu time    0.01: real time    0.01
    --------------------------------------------
      LOOP:  cpu time    6.30: real time    6.31

 eigenvalue-minimisations  :  3860
 total energy-change (2. order) : 0.8471676E-04  (-0.2905273E-04)
 number of electron     107.0000002 magnetization 
 augmentation part        6.9499915 magnetization 

 Broyden mixing:
  rms(total) = 0.11600E-02    rms(broyden)= 0.11594E-02
  rms(prec ) = 0.16796E-02
  weight for this iteration     100.00

 eigenvalues of (default mixing * dielectric matrix)
  average eigenvalue GAMMA=   1.8539
  5.8345  5.5997  2.6847  2.1679  1.9008  0.9504  0.9504  1.1692  1.1692  1.0394
  1.0394  0.9034  0.9034  0.6788  0.8169

 Free energy of the ion-electron system (eV)
  ---------------------------------------------------
  alpha Z        PSCENC =       156.86500764
  Ewald energy   TEWEN  =      8628.77957652
  -Hartree energ DENC   =    -14532.46475544
  -exchange      EXHF   =         0.00000000
  -V(xc)+E(xc)   XCENC  =      -345.04594591
  PAW double counting   =      6710.05361039    -5990.45706642
  entropy T*S    EENTRO =        -0.00797309
  eigenvalues    EBANDS =      -141.21420548
  atomic energy  EATOM  =      5361.07568887
  ---------------------------------------------------
  free energy    TOTEN  =      -152.41606291 eV

  energy without entropy =     -152.40808982  energy(sigma->0) =     -152.41207637


--------------------------------------------------------------------------------------------------------




----------------------------------------- Iteration    1(  21)  ---------------------------------------


    POTLOK:  cpu time    0.11: real time    0.11
    SETDIJ:  cpu time    0.11: real time    0.11
     EDDAV:  cpu time    6.01: real time    6.02
       DOS:  cpu time    0.00: real time    0.00
    CHARGE:  cpu time    0.39: real time    0.39
    MIXING:  cpu time    0.01: real time    0.01
    --------------------------------------------
      LOOP:  cpu time    6.63: real time    6.64

 eigenvalue-minimisations  :  4168
 total energy-change (2. order) : 0.7349351E-04  (-0.1234709E-04)
 number of electron     107.0000002 magnetization 
 augmentation part        6.9497449 magnetization 

 Broyden mixing:
  rms(total) = 0.83528E-03    rms(broyden)= 0.83470E-03
  rms(prec ) = 0.11033E-02
  weight for this iteration     100.00

 eigenvalues of (default mixing * dielectric matrix)
  average eigenvalue GAMMA=   2.0650
 10.1712  5.1473  2.8234  2.3546  1.7928  1.3233  1.3233  0.9458  0.9458  0.9866
  0.9866  0.9610  0.9610  0.6785  0.8190  0.8190

 Free energy of the ion-electron system (eV)
  ---------------------------------------------------
  alpha Z        PSCENC =       156.86500764
  Ewald energy   TEWEN  =      8628.77957652
  -Hartree energ DENC   =    -14532.24336970
  -exchange      EXHF   =         0.00000000
  -V(xc)+E(xc)   XCENC  =      -345.04284119
  PAW double counting   =      6711.06743644    -5991.47082180
  entropy T*S    EENTRO =        -0.00797764
  eigenvalues    EBANDS =      -141.43868856
  atomic energy  EATOM  =      5361.07568887
  ---------------------------------------------------
  free energy    TOTEN  =      -152.41598942 eV

  energy without entropy =     -152.40801178  energy(sigma->0) =     -152.41200060


--------------------------------------------------------------------------------------------------------




----------------------------------------- Iteration    1(  22)  ---------------------------------------


    POTLOK:  cpu time    0.11: real time    0.11
    SETDIJ:  cpu time    0.12: real time    0.12
     EDDAV:  cpu time    5.04: real time    5.05
       DOS:  cpu time    0.00: real time    0.00
    CHARGE:  cpu time    0.39: real time    0.39
    MIXING:  cpu time    0.01: real time    0.01
    --------------------------------------------
      LOOP:  cpu time    5.67: real time    5.68

 eigenvalue-minimisations  :  3324
 total energy-change (2. order) : 0.1162507E-04  (-0.1694229E-04)
 number of electron     107.0000002 magnetization 
 augmentation part        6.9495051 magnetization 

 Broyden mixing:
  rms(total) = 0.85182E-03    rms(broyden)= 0.85147E-03
  rms(prec ) = 0.90048E-03
  weight for this iteration     100.00

 eigenvalues of (default mixing * dielectric matrix)
  average eigenvalue GAMMA=   1.9392
 10.0538  5.1379  2.8172  2.3431  1.8338  1.3092  1.3092  0.9461  0.9461  0.9887
  0.9887  0.9604  0.9604  0.6785  0.8167  0.8167  0.0594

 Free energy of the ion-electron system (eV)
  ---------------------------------------------------
  alpha Z        PSCENC =       156.86500764
  Ewald energy   TEWEN  =      8628.77957652
  -Hartree energ DENC   =    -14532.03645277
  -exchange      EXHF   =         0.00000000
  -V(xc)+E(xc)   XCENC  =      -345.04265436
  PAW double counting   =      6710.99159043    -5991.39479965
  entropy T*S    EENTRO =        -0.00796867
  eigenvalues    EBANDS =      -141.64596581
  atomic energy  EATOM  =      5361.07568887
  ---------------------------------------------------
  free energy    TOTEN  =      -152.41597779 eV

  energy without entropy =     -152.40800912  energy(sigma->0) =     -152.41199346


--------------------------------------------------------------------------------------------------------




----------------------------------------- Iteration    1(  23)  ---------------------------------------


    POTLOK:  cpu time    0.10: real time    0.10
    SETDIJ:  cpu time    0.10: real time    0.11
     EDDAV:  cpu time    4.75: real time    4.76
       DOS:  cpu time    0.00: real time    0.00
    CHARGE:  cpu time    0.40: real time    0.40
    MIXING:  cpu time    0.01: real time    0.01
    --------------------------------------------
      LOOP:  cpu time    5.37: real time    5.37

 eigenvalue-minimisations  :  2964
 total energy-change (2. order) :-0.2029690E-04  (-0.2290487E-04)
 number of electron     107.0000002 magnetization 
 augmentation part        6.9499130 magnetization 

 Broyden mixing:
  rms(total) = 0.16540E-02    rms(broyden)= 0.16536E-02
  rms(prec ) = 0.16872E-02
  weight for this iteration     100.00

 eigenvalues of (default mixing * dielectric matrix)
  average eigenvalue GAMMA=   2.0029
 11.2810  5.4216  2.7735  2.1407  1.7549  1.7549  1.5696  0.9411  0.9411  1.0202
  1.0202  0.9589  0.9589  0.6787  0.8069  0.8069  0.6116  0.6116

 Free energy of the ion-electron system (eV)
  ---------------------------------------------------
  alpha Z        PSCENC =       156.86500764
  Ewald energy   TEWEN  =      8628.77957652
  -Hartree energ DENC   =    -14532.00053937
  -exchange      EXHF   =         0.00000000
  -V(xc)+E(xc)   XCENC  =      -345.04525784
  PAW double counting   =      6710.28940886    -5990.69170219
  entropy T*S    EENTRO =        -0.00796732
  eigenvalues    EBANDS =      -141.68021327
  atomic energy  EATOM  =      5361.07568887
  ---------------------------------------------------
  free energy    TOTEN  =      -152.41599809 eV

  energy without entropy =     -152.40803077  energy(sigma->0) =     -152.41201443


--------------------------------------------------------------------------------------------------------




----------------------------------------- Iteration    1(  24)  ---------------------------------------


    POTLOK:  cpu time    0.10: real time    0.10
    SETDIJ:  cpu time    0.11: real time    0.11
     EDDAV:  cpu time    3.85: real time    3.85
       DOS:  cpu time    0.00: real time    0.00
    --------------------------------------------
      LOOP:  cpu time    4.06: real time    4.06

 eigenvalue-minimisations  :  2172
 total energy-change (2. order) : 0.6725441E-05  (-0.1729888E-05)
 number of electron     107.0000002 magnetization 
 augmentation part        6.9499130 magnetization 

 Free energy of the ion-electron system (eV)
  ---------------------------------------------------
  alpha Z        PSCENC =       156.86500764
  Ewald energy   TEWEN  =      8628.77957652
  -Hartree energ DENC   =    -14531.98352686
  -exchange      EXHF   =         0.00000000
  -V(xc)+E(xc)   XCENC  =      -345.04554816
  PAW double counting   =      6711.15543979    -5991.55781695
  entropy T*S    EENTRO =        -0.00796859
  eigenvalues    EBANDS =      -141.69684364
  atomic energy  EATOM  =      5361.07568887
  ---------------------------------------------------
  free energy    TOTEN  =      -152.41599136 eV

  energy without entropy =     -152.40802278  energy(sigma->0) =     -152.41200707


--------------------------------------------------------------------------------------------------------




 average (electrostatic) potential at core
  the test charge radii are     0.7215  1.0714  1.0406
  (the norm of the test charge is              1.0000)
       1 -69.6571       2 -69.6084       3 -69.6003       4 -69.5842       5 -69.5834
       6 -69.6027       7 -69.6140       8 -69.6122       9 -69.5849      10 -69.5986
      11 -69.6577      12 -35.1789      13 -35.1739      14 -35.1730      15 -35.1803
      16 -35.1859      17 -35.1682      18 -35.1863      19 -35.1879      20 -35.1694
      21 -35.1822      22 -73.5542      23 -74.4437      24 -73.5672      25 -73.5343
      26 -74.4440      27 -73.5343      28 -73.5672
 
 
 
 E-fermi :   7.1893     XC(G=0): -10.5937     alpha+bet :-13.2077


 k-point     1 :       0.0000    0.0000    0.0000
  band No.  band energies     occupation 
      1     -13.9294      2.00000
      2     -13.8817      2.00000
      3     -13.7863      2.00000
      4     -13.6677      2.00000
      5     -13.5314      2.00000
      6     -13.3842      2.00000
      7     -13.2437      2.00000
[...]
     23       0.3920      2.00000
     24       0.5172      2.00000
     25       0.6721      2.00000
     26       0.8103      2.00000
     27       0.9593      2.00000
     28       1.0243      2.00000
     29       1.0728      2.00000
     30       1.1328      2.00000
     31       1.1894      2.00000
     32       1.2507      2.00000
     33       1.2656      2.00000
     34       1.3598      2.00000
     35       1.4452      2.00000
     36       1.5366      2.00000
     37       1.6537      2.00000
     38       1.7210      2.00000
     39       1.8505      2.00000
     40       1.9283      2.00000
     41       1.9783      2.00000
     42       2.0775      2.00000
     43       2.1325      2.00000
     44       2.1434      2.00000
     45       2.2318      2.00000
     46       2.3116      2.00000
     47       2.7571      2.00000
     48       3.6656      2.00000
     49       4.7906      2.00000
     50       4.8888      2.00000
     51       5.2126      2.00000
     52       5.6428      2.00000
     53       6.2616      2.00000
     54       6.4850      2.00000
     55       6.7053      2.00000
     56       6.9942      2.00000
     57       7.3876      0.00000
     58       7.9180      0.00000
     59       8.4238      0.00000
     60       8.5974      0.00000
     61       9.4908      0.00000
     62       9.6040      0.00000
     63       9.9209      0.00000
     64      10.8537      0.00000
     65      11.0880      0.00000
     66      11.6354      0.00000
     67      12.2503      0.00000
     68      12.2989      0.00000

 k-point    20 :       0.3846    0.2308   -0.0000
  band No.  band energies     occupation 
      1     -12.6331      2.00000
      2     -12.6188      2.00000
      3     -12.6060      2.00000
      4     -12.5908      2.00000
      5     -12.5716      2.00000
      6     -12.5518      2.00000
      7     -12.5319      2.00000
      8     -12.5180      2.00000
      9     -12.5032      2.00000
     10     -12.3575      2.00000
     11     -12.3502      2.00000
     12      -0.7834      2.00000
     13      -0.7110      2.00000
     14      -0.6111      2.00000
     15      -0.4908      2.00000
     16      -0.3689      2.00000
     17      -0.3389      2.00000
     18      -0.3106      2.00000
     19      -0.2736      2.00000
     20      -0.2716      2.00000
     21      -0.2202      2.00000
     22      -0.2124      2.00000
     23       0.6049      2.00000
     24       0.6268      2.00000
     25       0.6732      2.00000
     26       0.7170      2.00000
     27       0.7362      2.00000
     28       0.7763      2.00000
     29       0.7867      2.00000
     30       0.8895      2.00000
     31       1.0525      2.00000
     32       1.1973      2.00000
     33       1.3091      2.00000
     34       1.4013      2.00000
     35       1.4157      2.00000
     36       1.7062      2.00000
     37       1.7466      2.00000
     38       1.8035      2.00000
     39       1.8477      2.00000
     40       1.9339      2.00000
     41       2.0590      2.00000
     42       2.1343      2.00000
     43       2.1683      2.00000
     44       2.1821      2.00000
     45       3.1194      2.00000
     46       3.1469      2.00000
     47       3.4723      2.00000
     48       3.5538      2.00000
     49       4.0223      2.00000
     50       4.1839      2.00000
     51       4.8449      2.00000
     52       5.1189      2.00000
     53       6.0747      2.00000
     54       6.3435      2.00000
     55       6.5815      2.00000
     56       6.6706      2.00000
     57       7.0404      1.99986
     58       7.7664      0.00000
     59       8.1446      0.00000
     60       8.4984      0.00000
     61       9.4956      0.00000
     62       9.5644      0.00000
     63       9.6921      0.00000
     64      10.7555      0.00000
     65      11.0121      0.00000
     66      11.1585      0.00000
     67      12.2743      0.00000
     68      12.3564      0.00000

 k-point    21 :       0.3077    0.3077   -0.0000
  band No.  band energies     occupation 
      1     -12.5989      2.00000
      2     -12.5865      2.00000
      3     -12.5760      2.00000
      4     -12.5648      2.00000
      5     -12.5516      2.00000
      6     -12.5380      2.00000
      7     -12.5250      2.00000
      8     -12.5177      2.00000
      9     -12.5041      2.00000
     10     -12.3406      2.00000
     11     -12.3334      2.00000
     12      -0.4286      2.00000
     13      -0.4208      2.00000
     14      -0.3736      2.00000
     15      -0.3469      2.00000
     16      -0.3000      2.00000
     17      -0.2441      2.00000
     18      -0.2209      2.00000
     19      -0.1086      2.00000
     20      -0.0173      2.00000
     21       0.0477      2.00000
     22       0.0673      2.00000
     23       0.1585      2.00000
     24       0.2802      2.00000
     25       0.3576      2.00000
     26       0.4169      2.00000
     27       0.4909      2.00000
     28       0.5481      2.00000
     29       0.5901      2.00000
     30       0.7134      2.00000
     31       0.7296      2.00000
     32       0.8518      2.00000
     33       0.8573      2.00000
     34       1.4090      2.00000
     35       1.4205      2.00000
     36       1.7115      2.00000
     37       1.8257      2.00000
     38       1.9109      2.00000
     39       1.9318      2.00000
     40       1.9573      2.00000
     41       1.9968      2.00000
     42       1.9991      2.00000
     43       2.0556      2.00000
     44       2.1405      2.00000
     45       3.0119      2.00000
     46       3.4028      2.00000
     47       3.9805      2.00000
     48       4.6174      2.00000
     49       4.6257      2.00000
     50       4.8298      2.00000
     51       4.9700      2.00000
     52       4.9919      2.00000
     53       5.4491      2.00000
     54       5.5327      2.00000
     55       5.8313      2.00000
     56       6.2739      2.00000
     57       7.0726      1.99620
     58       7.7584      0.00000
     59       7.8781      0.00000
     60       8.1382      0.00000
     61       9.1676      0.00000
     62       9.2455      0.00000
     63       9.6020      0.00000
     64      10.7555      0.00000
     65      10.8347      0.00000
     66      11.2007      0.00000
     67      12.1996      0.00000
     68      12.2649      0.00000


--------------------------------------------------------------------------------------------------------


 soft charge-density along one line, spin component           1
         0         1         2         3         4         5         6         7         8         9
 total charge-density along one line
 
 pseudopotential strength for first ion, spin component:           1
 12.097   0.000 -14.714   0.000  -0.000   0.000  -0.007   0.000   0.000   0.000   0.000   0.000   0.008   0.000  -0.000   0.000
-14.714   0.000  17.914   0.000   0.000   0.000   0.008   0.000  -0.000   0.000  -0.000   0.000  -0.011   0.000   0.000   0.000
 -0.000   0.000   0.000   0.000  -8.229   0.000  -0.000   0.000   0.000   0.000   9.836   0.000   0.000   0.000  -0.000   0.000
 -0.007   0.000   0.008   0.000  -0.000   0.000  -8.239   0.000   0.000   0.000   0.000   0.000   9.850   0.000  -0.000   0.000
  0.000   0.000  -0.000   0.000   0.000   0.000   0.000   0.000  -8.229   0.000  -0.000   0.000  -0.000   0.000   9.836   0.000
  0.000   0.000  -0.000   0.000   9.836   0.000   0.000   0.000  -0.000   0.000 -11.592   0.000  -0.000   0.000   0.000   0.000
  0.008   0.000  -0.011   0.000   0.000   0.000   9.850   0.000  -0.000   0.000  -0.000   0.000 -11.611   0.000   0.000   0.000
 -0.000   0.000   0.000   0.000  -0.000   0.000  -0.000   0.000   9.836   0.000   0.000   0.000   0.000   0.000 -11.592   0.000
 total augmentation occupancy for first ion, spin component:           1
  2.522   0.325   0.000   0.037  -0.000   0.000   0.005  -0.000
  0.325   0.085   0.000   0.021  -0.000   0.000  -0.008   0.000
  0.000   0.000   2.067   0.000   0.000   0.232   0.000   0.000
  0.037   0.021   0.000   2.065  -0.000   0.000   0.242  -0.000
 -0.000  -0.000   0.000  -0.000   2.067   0.000  -0.000   0.232
  0.000   0.000   0.232   0.000   0.000   0.030   0.000   0.000
  0.005  -0.008   0.000   0.242  -0.000   0.000   0.035  -0.000
 -0.000   0.000   0.000  -0.000   0.232   0.000  -0.000   0.030


------------------------ aborting loop because EDIFF is reached ----------------------------------------


    CHARGE:  cpu time    0.38: real time    0.38
    FORLOC:  cpu time    0.04: real time    0.04
    FORNL :  cpu time    3.33: real time    3.34
    STRESS:  cpu time    4.31: real time    4.31
    FORCOR:  cpu time    0.13: real time    0.13
    FORHAR:  cpu time    0.06: real time    0.06
    MIXING:  cpu time    0.00: real time    0.00
    OFIELD:  cpu time    0.00: real time    0.00

  FORCE on cell =-STRESS in cart. coord.  units (eV):
  Direction    XX          YY          ZZ          XY          YZ          ZX
  --------------------------------------------------------------------------------------
  Alpha Z   156.86501   156.86501   156.86501
  Ewald   12204.37210 12204.37259-15112.02444    -0.00017     0.00001    -0.00014
  Hartree 14166.23907 14166.23898-13134.48920    -0.00000     0.00000     0.00004
  E(xc)    -451.37962  -451.37963  -451.36235    -0.00000     0.00000    -0.00000
  Local  -27714.65124-27714.65067 26907.58166    -0.00019    -0.00001     0.00004
  n-local   -75.41829   -92.22736   -81.00848     3.45489    -1.67632     4.80742
  augment    67.34791    67.34765    66.44533     0.00019    -0.00000     0.00000
  Kinetic  1655.80646  1647.48652  1636.56541    -3.02687     0.08840     0.22900
  Fock        0.00000     0.00000     0.00000     0.00000     0.00000     0.00000
  -------------------------------------------------------------------------------------
  Total      -3.38275    -3.38275   -11.42706     0.00000     0.00000     0.00000
  in kB     -16.83586   -16.83585   -56.87215     0.00000     0.00000     0.00000
  external pressure =      -30.18 kB  Pullay stress =        0.00 kB


 VOLUME and BASIS-vectors are now :
 -----------------------------------------------------------------------------
  energy-cutoff  :      520.00
  volume of cell :      321.92
      direct lattice vectors                 reciprocal lattice vectors
     2.575303410 -1.486851677  0.000000000     0.388303761  0.000000000  0.000000000
     0.000000000  2.973703354  0.000000000     0.194151881  0.336281021  0.000000000
    -0.000000000  0.000000000 42.035819197     0.000000000  0.000000000  0.023789235

  length of vectors
     2.973704014  2.973703354 42.035819197     0.388303761  0.388303847  0.023789235


 FORCES acting on ions
    electron-ion (+dipol)            ewald-force                    non-local-force                 convergence-correction
 -----------------------------------------------------------------------------------------------
   0.106E-02 -.183E-02 0.114E+04   0.511E-04 -.602E-04 -.114E+04   -.942E-17 -.833E-16 0.264E+01   -.144E-09 0.183E-09 0.207E-02
   0.300E-08 -.105E-08 0.694E+03   -.734E-07 0.821E-07 -.694E+03   -.238E-18 -.271E-19 0.980E-02   0.266E-09 -.151E-09 0.714E-02
   0.105E-02 -.182E-02 0.463E+03   0.557E-04 -.965E-04 -.463E+03   -.320E-18 -.102E-19 0.157E-01   -.974E-08 0.169E-07 -.111E-01
   0.427E-09 -.169E-09 0.664E-01   -.604E-08 0.665E-08 -.214E-01   -.303E-18 -.102E-19 0.142E-01   -.189E-09 0.145E-09 -.544E-01
   0.105E-02 -.182E-02 -.231E+03   0.557E-04 -.964E-04 0.231E+03   0.238E-19 -.271E-19 -.968E-03   -.113E-08 0.146E-08 -.619E-01
   -.374E-08 0.118E-08 -.694E+03   0.442E-07 -.488E-07 0.694E+03   0.247E-18 0.000E+00 -.117E-01   0.339E-09 -.546E-09 -.958E-02
   0.105E-02 -.183E-02 -.925E+03   0.556E-04 -.958E-04 0.925E+03   0.142E-17 0.434E-18 -.859E-01   -.840E-08 0.146E-07 0.142E-01
   -.105E-02 0.183E-02 0.925E+03   -.556E-04 0.958E-04 -.925E+03   -.902E-18 -.434E-18 0.706E-01   0.261E-08 -.444E-08 0.346E-02
   -.105E-02 0.182E-02 0.231E+03   -.557E-04 0.964E-04 -.231E+03   -.489E-18 0.136E-19 0.231E-01   0.224E-09 -.129E-09 -.272E-01
   -.105E-02 0.182E-02 -.463E+03   -.557E-04 0.965E-04 0.463E+03   0.193E-18 -.474E-19 -.858E-02   0.428E-08 -.730E-08 -.342E-01
   -.106E-02 0.183E-02 -.114E+04   -.511E-04 0.602E-04 0.114E+04   0.258E-17 0.000E+00 -.267E+01   -.539E-08 0.100E-07 0.269E-01
   -.663E-06 0.349E-06 0.345E+03   0.104E-05 -.130E-05 -.345E+03   0.366E-17 -.347E-17 -.548E-01   0.584E-10 -.993E-10 -.149E-04
   -.141E-07 -.120E-07 0.116E+03   0.697E-07 -.786E-07 -.116E+03   0.132E-18 0.108E-18 -.670E-02   0.429E-09 -.806E-09 -.554E-02
   0.480E-07 -.519E-07 -.116E+03   -.567E-07 0.640E-07 0.116E+03   -.133E-18 -.163E-18 0.681E-02   -.441E-09 0.790E-09 -.175E-01
   0.629E-06 -.281E-06 -.345E+03   -.106E-05 0.133E-05 0.345E+03   0.673E-18 0.694E-17 0.544E-01   0.795E-09 -.147E-08 0.862E-02
   0.428E-04 -.742E-04 0.193E+03   -.480E-04 0.831E-04 -.193E+03   0.176E-18 0.217E-18 -.767E-02   -.514E-09 0.992E-09 0.608E-04
   0.428E-04 -.742E-04 -.385E+02   -.479E-04 0.830E-04 0.385E+02   -.244E-19 -.136E-19 0.114E-02   -.115E-09 0.268E-09 -.205E-01
   0.428E-04 -.742E-04 -.270E+03   -.480E-04 0.830E-04 0.270E+03   -.372E-19 -.108E-18 0.664E-02   -.591E-10 0.230E-09 0.258E-02
   -.429E-04 0.742E-04 0.270E+03   0.480E-04 -.830E-04 -.270E+03   0.425E-19 0.434E-18 -.119E-01   0.545E-09 -.101E-08 0.217E-02
   -.428E-04 0.741E-04 0.385E+02   0.479E-04 -.830E-04 -.385E+02   -.555E-21 -.678E-20 0.155E-03   -.492E-10 0.374E-10 -.143E-01
   -.428E-04 0.742E-04 -.193E+03   0.480E-04 -.831E-04 0.193E+03   -.115E-18 0.542E-19 0.563E-02   0.350E-09 -.729E-09 -.674E-02
   -.511E-09 0.823E-09 -.222E-01   0.176E-09 -.175E-09 0.693E-02   0.391E-20 0.508E-20 -.147E-03   -.885E-13 -.804E-12 0.154E-01
   0.898E-05 -.267E-05 0.604E+03   -.219E-04 0.230E-04 -.610E+03   -.146E-15 -.555E-16 0.602E+01   0.405E-09 -.757E-09 0.128E-02
   0.161E-04 -.279E-04 0.427E+03   -.346E-05 0.576E-05 -.427E+03   -.328E-18 -.347E-17 0.920E-01   -.215E-10 0.394E-10 0.625E-02
   -.153E-04 0.264E-04 0.210E+03   0.304E-05 -.517E-05 -.211E+03   -.301E-17 -.347E-17 0.259E+00   0.107E-10 -.179E-10 0.119E-01
   -.899E-05 0.267E-05 -.604E+03   0.219E-04 -.231E-04 0.610E+03   0.183E-15 -.139E-16 -.601E+01   0.935E-09 -.167E-08 0.133E-01
   0.153E-04 -.264E-04 -.210E+03   -.304E-05 0.517E-05 0.211E+03   0.288E-17 0.347E-17 -.259E+00   0.834E-12 -.190E-11 0.167E-01
   -.161E-04 0.279E-04 -.427E+03   0.346E-05 -.576E-05 0.427E+03   0.339E-18 -.694E-17 -.950E-01   0.734E-12 0.792E-13 0.152E-01
 -----------------------------------------------------------------------------------------------
   0.539E-07 -.131E-06 0.126E+00   0.836E-13 -.607E-13 0.682E-12   0.335E-16 -.159E-15 -.796E-02   -.150E-07 0.265E-07 -.116E+00
 
 
 POSITION                                       TOTAL-FORCE (eV/Angst)
 -----------------------------------------------------------------------------------
      0.85843      1.48685      9.50955         0.000000      0.000000      0.002111
     -0.00000     -0.00000     14.54410        -0.000000     -0.000000      0.004933
      0.85843      1.48685     17.04565        -0.000000     -0.000000      0.009898
     -0.00000     -0.00000     22.04956        -0.000000     -0.000000      0.004630
      0.85843      1.48685     24.55198         0.000000      0.000000     -0.005598
     -0.00000     -0.00000     29.55472         0.000000     -0.000000     -0.002233
      0.85843      1.48685     32.05693         0.000000     -0.000000     -0.004765
      1.71687     -0.00000     12.04203         0.000000     -0.000000      0.000795
      1.71687     -0.00000     19.54705        -0.000000      0.000000      0.013024
      1.71687     -0.00000     27.05327         0.000000     -0.000000     -0.004965
      1.71687     -0.00000     34.58980         0.000000      0.000000     -0.014689
     -0.00000     -0.00000     10.79368        -0.000000     -0.000000      0.008824
     -0.00000     -0.00000     18.29709         0.000000     -0.000000     -0.010772
     -0.00000     -0.00000     25.80202        -0.000000     -0.000000      0.005161
     -0.00000     -0.00000     33.30521         0.000000     -0.000000      0.000086
      1.71687     -0.00000     15.79563         0.000000     -0.000000     -0.006891
      1.71687     -0.00000     23.30075         0.000000     -0.000000     -0.006664
      1.71687     -0.00000     30.80524         0.000000     -0.000000     -0.000862
      0.85843      1.48685     13.29402         0.000000     -0.000000     -0.001179
      0.85843      1.48685     20.79848         0.000000     -0.000000     -0.003215
      0.85843      1.48685     28.30344        -0.000000     -0.000000      0.005714
     -0.00000     -0.00000      1.03156         0.000000     -0.000000     -0.000085
     -0.00000     -0.00000      8.02421        -0.000000     -0.000000      0.010654
      1.71687     -0.00000      5.75606        -0.000000     -0.000000      0.001140
      0.85843      1.48685      3.37763        -0.000000     -0.000000      0.002082
     -0.00000     -0.00000     36.07451         0.000000     -0.000000     -0.002581
      1.71687     -0.00000     40.72136         0.000000     -0.000000     -0.002323
      0.85843      1.48685     38.34300         0.000000     -0.000000     -0.002231
 -----------------------------------------------------------------------------------
    total drift:                                0.000000     -0.000000      0.002179


--------------------------------------------------------------------------------------------------------



  FREE ENERGIE OF THE ION-ELECTRON SYSTEM (eV)
  ---------------------------------------------------
  free  energy   TOTEN  =      -152.43544954 eV

  energy  without entropy=     -152.43231661  energy(sigma->0) =     -152.43388308
 
 d Force = 0.9247358E-04[ 0.295E-04, 0.155E-03]  d Energy = 0.8958313E-04 0.289E-05
 d Force =-0.6701836E+01[-0.670E+01,-0.670E+01]  d Ewald  =-0.6701836E+01-0.249E-07


--------------------------------------------------------------------------------------------------------


    POTLOK:  cpu time    0.21: real time    0.21


--------------------------------------------------------------------------------------------------------


 Conjugate gradient step on ions:
 trial-energy change:   -0.000090  1 .order   -0.000092   -0.000155   -0.000030
  (g-gl).g = 0.108E-03      g.g   = 0.150E-03  gl.gl    = 0.243E-03
 g(Force)  = 0.150E-03   g(Stress)= 0.000E+00 ortho     =-0.287E-05
 gamma     =   0.44649
 trial     =   1.04279
 opt step  =   1.28732  (harmonic =   1.28732) maximal distance =0.00155518
 next E    =  -152.435456   (d E  =  -0.00010)


--------------------------------------------------------------------------------------------------------


  
 reached required accuracy - stopping structural energy minimisation
     LOOP+:  cpu time   34.31: real time   34.35
    4ORBIT:  cpu time    0.00: real time    0.00

 total amount of memory used by VASP on root node   148958. kBytes
========================================================================

   base      :      30000. kBytes
   nonl-proj :      15498. kBytes
   fftplans  :      55171. kBytes
   grid      :      22118. kBytes
   one-center:         56. kBytes
   wavefun   :      26115. kBytes
 
  
  
 General timing and accounting informations for this job:
 ========================================================
  
                  Total CPU time used (sec):     1604.046
                            User time (sec):     1585.248
                          System time (sec):       18.797
                         Elapsed time (sec):     1605.963
  
                   Maximum memory used (kb):      255716.
                   Average memory used (kb):           0.
  
                          Minor page faults:       370035
                          Major page faults:            0
                 Voluntary context switches:          172
