       N       E                     dE             d eps       ncg     rms          rms(c)
DAV:   1     0.511894074637E+03    0.51189E+03   -0.44195E+04  2704   0.134E+03
DAV:   2    -0.100417826309E+03   -0.61231E+03   -0.58273E+03  3520   0.260E+02
DAV:   3    -0.157177631662E+03   -0.56760E+02   -0.56445E+02  3168   0.862E+01
DAV:   4    -0.157891681859E+03   -0.71405E+00   -0.71282E+00  3136   0.105E+01
DAV:   5    -0.157902233515E+03   -0.10552E-01   -0.10548E-01  3184   0.126E+00    0.236E+01
DAV:   6    -0.140865801454E+03    0.17036E+02   -0.94107E+01  3216   0.334E+01    0.793E+00
DAV:   7    -0.140888222424E+03   -0.22421E-01   -0.37799E+00  2984   0.656E+00    0.499E+00
DAV:   8    -0.140728698555E+03    0.15952E+00   -0.88157E-01  3096   0.457E+00    0.137E+00
DAV:   9    -0.140674508682E+03    0.54190E-01   -0.19470E-01  3056   0.194E+00    0.661E-01
DAV:  10    -0.140667123524E+03    0.73852E-02   -0.65969E-02  3016   0.910E-01    0.308E-01
DAV:  11    -0.140657926584E+03    0.91969E-02   -0.14491E-02  3208   0.745E-01    0.208E-01
DAV:  12    -0.140652547420E+03    0.53792E-02   -0.54315E-03  3512   0.487E-01    0.169E-01
DAV:  13    -0.140641564904E+03    0.10983E-01   -0.12203E-02  4096   0.100E+00    0.109E-01
DAV:  14    -0.140638008430E+03    0.35565E-02   -0.85812E-03  3152   0.558E-01    0.147E-01
DAV:  15    -0.140628905736E+03    0.91027E-02   -0.12630E-02  4000   0.122E+00    0.184E-01
DAV:  16    -0.140622459631E+03    0.64461E-02   -0.10120E-02  3632   0.130E+00    0.167E-01
DAV:  17    -0.140620096091E+03    0.23635E-02   -0.16211E-02  3352   0.912E-01    0.831E-02
DAV:  18    -0.140618951659E+03    0.11444E-02   -0.62647E-03  3216   0.679E-01    0.140E-01
DAV:  19    -0.140617303649E+03    0.16480E-02   -0.45125E-03  4208   0.822E-01    0.554E-02
DAV:  20    -0.140617273169E+03    0.30480E-04   -0.45009E-03  3032   0.462E-01    0.476E-02
DAV:  21    -0.140617295611E+03   -0.22442E-04   -0.13604E-03  2960   0.204E-01    0.417E-02
DAV:  22    -0.140617262844E+03    0.32767E-04   -0.30423E-04  2936   0.869E-02    0.166E-02
DAV:  23    -0.140617251230E+03    0.11614E-04   -0.31155E-05  2464   0.894E-02    0.116E-02
DAV:  24    -0.140617258667E+03   -0.74364E-05   -0.11474E-04  2704   0.507E-02    0.144E-02
DAV:  25    -0.140617258077E+03    0.59006E-06   -0.13872E-05  1704   0.157E-02
   1 F= -.14061726E+03 E0= -.14061458E+03  d E =-.140617E+03
       N       E                     dE             d eps       ncg     rms          rms(c)
DAV:   1    -0.140615043665E+03    0.22150E-02   -0.16545E+00  2704   0.492E+00    0.275E-01
DAV:   2    -0.140619684078E+03   -0.46404E-02   -0.68044E-02  2960   0.816E-01    0.222E-01
DAV:   3    -0.140618617274E+03    0.10668E-02   -0.11147E-03  3136   0.178E-01    0.148E-01
DAV:   4    -0.140617578828E+03    0.10384E-02   -0.31843E-03  3048   0.294E-01    0.425E-02
DAV:   5    -0.140617510606E+03    0.68222E-04   -0.10344E-03  3016   0.136E-01    0.320E-02
DAV:   6    -0.140617399539E+03    0.11107E-03   -0.12147E-04  3032   0.639E-02    0.258E-02
DAV:   7    -0.140617325356E+03    0.74183E-04   -0.79526E-05  3088   0.587E-02    0.158E-02
DAV:   8    -0.140617139475E+03    0.18588E-03   -0.12067E-04  3616   0.129E-01    0.115E-02
DAV:   9    -0.140617074776E+03    0.64700E-04   -0.10761E-04  3008   0.792E-02    0.122E-02
DAV:  10    -0.140616962147E+03    0.11263E-03   -0.11707E-04  3544   0.169E-01    0.106E-02
DAV:  11    -0.140616939200E+03    0.22947E-04   -0.17217E-04  3040   0.938E-02    0.842E-03
DAV:  12    -0.140616908105E+03    0.31095E-04   -0.79366E-05  3288   0.118E-01    0.917E-03
DAV:  13    -0.140616898332E+03    0.97731E-05   -0.73235E-05  2664   0.694E-02
   2 F= -.14061690E+03 E0= -.14061444E+03  d E =0.359745E-03
       N       E                     dE             d eps       ncg     rms          rms(c)
DAV:   1    -0.140621540159E+03   -0.46321E-02   -0.41821E-01  2688   0.248E+00    0.138E-01
DAV:   2    -0.140622619783E+03   -0.10796E-02   -0.16697E-02  2952   0.418E-01    0.109E-01
DAV:   3    -0.140622340882E+03    0.27890E-03   -0.29037E-04  3160   0.952E-02    0.728E-02
DAV:   4    -0.140622066904E+03    0.27398E-03   -0.74922E-04  3072   0.153E-01    0.202E-02
DAV:   5    -0.140622051326E+03    0.15579E-04   -0.27463E-04  3008   0.736E-02    0.158E-02
DAV:   6    -0.140622021243E+03    0.30082E-04   -0.35352E-05  2816   0.379E-02    0.122E-02
DAV:   7    -0.140622007719E+03    0.13525E-04   -0.16330E-05  2096   0.276E-02    0.872E-03
DAV:   8    -0.140621976930E+03    0.30789E-04   -0.24497E-05  2496   0.508E-02    0.469E-03
DAV:   9    -0.140621962159E+03    0.14770E-04   -0.32732E-05  2592   0.408E-02    0.594E-03
DAV:  10    -0.140621957066E+03    0.50928E-05   -0.17145E-05  2056   0.227E-02
   3 F= -.14062196E+03 E0= -.14061937E+03  d E =-.469899E-02
       N       E                     dE             d eps       ncg     rms          rms(c)
DAV:   1    -0.140623049634E+03   -0.10875E-02   -0.18080E-01  2704   0.172E+00    0.701E-02
DAV:   2    -0.140623435615E+03   -0.38598E-03   -0.47826E-03  3008   0.242E-01    0.444E-02
DAV:   3    -0.140623386521E+03    0.49094E-04   -0.85014E-05  3104   0.447E-02    0.285E-02
DAV:   4    -0.140623349267E+03    0.37254E-04   -0.53593E-05  2808   0.366E-02    0.127E-02
DAV:   5    -0.140623325979E+03    0.23288E-04   -0.19688E-05  2400   0.356E-02    0.569E-03
DAV:   6    -0.140623303685E+03    0.22294E-04   -0.16824E-05  2112   0.365E-02    0.460E-03
DAV:   7    -0.140623285053E+03    0.18632E-04   -0.10010E-05  1800   0.354E-02    0.367E-03
DAV:   8    -0.140623238788E+03    0.46265E-04   -0.36321E-05  2776   0.101E-01    0.579E-03
DAV:   9    -0.140623223604E+03    0.15185E-04   -0.49069E-05  2592   0.585E-02    0.600E-03
DAV:  10    -0.140623207834E+03    0.15770E-04   -0.18941E-05  2272   0.798E-02    0.335E-03
DAV:  11    -0.140623205637E+03    0.21968E-05   -0.49653E-05  2680   0.640E-02
   4 F= -.14062321E+03 E0= -.14062065E+03  d E =-.124857E-02
       N       E                     dE             d eps       ncg     rms          rms(c)
DAV:   1    -0.140623475879E+03   -0.26805E-03   -0.18182E-01  2728   0.169E+00    0.706E-02
DAV:   2    -0.140623843321E+03   -0.36744E-03   -0.45155E-03  2960   0.231E-01    0.404E-02
DAV:   3    -0.140623805486E+03    0.37835E-04   -0.90862E-05  3088   0.443E-02    0.260E-02
DAV:   4    -0.140623782992E+03    0.22494E-04   -0.31142E-05  2480   0.300E-02    0.129E-02
DAV:   5    -0.140623764958E+03    0.18034E-04   -0.21311E-05  2384   0.332E-02    0.507E-03
DAV:   6    -0.140623754083E+03    0.10875E-04   -0.17402E-05  2016   0.269E-02    0.408E-03
DAV:   7    -0.140623750548E+03    0.35350E-05   -0.71732E-06  1672   0.136E-02
   5 F= -.14062375E+03 E0= -.14062125E+03  d E =-.179348E-02
       N       E                     dE             d eps       ncg     rms          rms(c)
DAV:   1    -0.140624523218E+03   -0.76914E-03   -0.28439E-01  2688   0.206E+00    0.810E-02
DAV:   2    -0.140625086035E+03   -0.56282E-03   -0.67807E-03  2928   0.280E-01    0.463E-02
DAV:   3    -0.140625035784E+03    0.50251E-04   -0.86542E-05  3136   0.504E-02    0.314E-02
DAV:   4    -0.140625007391E+03    0.28393E-04   -0.12746E-04  3000   0.559E-02    0.110E-02
DAV:   5    -0.140625007614E+03   -0.22298E-06   -0.33471E-05  2504   0.235E-02    0.671E-03
DAV:   6    -0.140625006469E+03    0.11447E-05   -0.16403E-05  1880   0.195E-02
   6 F= -.14062501E+03 E0= -.14062253E+03  d E =-.125592E-02
       N       E                     dE             d eps       ncg     rms          rms(c)
DAV:   1    -0.140624371233E+03    0.63638E-03   -0.93712E-01  2688   0.374E+00    0.148E-01
DAV:   2    -0.140626183349E+03   -0.18121E-02   -0.22020E-02  2904   0.506E-01    0.817E-02
DAV:   3    -0.140626026961E+03    0.15639E-03   -0.29681E-04  3160   0.919E-02    0.557E-02
DAV:   4    -0.140625941952E+03    0.85009E-04   -0.37707E-04  3024   0.100E-01    0.197E-02
DAV:   5    -0.140625945275E+03   -0.33226E-05   -0.10998E-04  2904   0.427E-02    0.127E-02
DAV:   6    -0.140625944600E+03    0.67485E-06   -0.49922E-05  2528   0.303E-02
   7 F= -.14062594E+03 E0= -.14062353E+03  d E =-.219405E-02
       N       E                     dE             d eps       ncg     rms          rms(c)
DAV:   1    -0.140626503066E+03   -0.55779E-03   -0.24674E-02  2704   0.625E-01    0.283E-02
DAV:   2    -0.140626547801E+03   -0.44735E-04   -0.51945E-04  2968   0.788E-02    0.147E-02
DAV:   3    -0.140626544958E+03    0.28429E-05   -0.11086E-05  1800   0.184E-02    0.944E-03
DAV:   4    -0.140626542439E+03    0.25181E-05   -0.51958E-06  1616   0.156E-02    0.415E-03
DAV:   5    -0.140626540101E+03    0.23386E-05   -0.21281E-06  1664   0.137E-02    0.217E-03
DAV:   6    -0.140626538401E+03    0.16994E-05   -0.24984E-06  1608   0.109E-02
   8 F= -.14062654E+03 E0= -.14062416E+03  d E =-.593801E-03
       N       E                     dE             d eps       ncg     rms          rms(c)
DAV:   1    -0.140627292448E+03   -0.75235E-03   -0.22202E-01  2688   0.188E+00    0.838E-02
DAV:   2    -0.140627697959E+03   -0.40551E-03   -0.50238E-03  2984   0.255E-01    0.452E-02
DAV:   3    -0.140627668068E+03    0.29891E-04   -0.13984E-04  3104   0.569E-02    0.303E-02
DAV:   4    -0.140627643489E+03    0.24579E-04   -0.54067E-05  2872   0.385E-02    0.159E-02
DAV:   5    -0.140627619023E+03    0.24465E-04   -0.10257E-05  1936   0.345E-02    0.726E-03
DAV:   6    -0.140627600636E+03    0.18387E-04   -0.26087E-05  2416   0.341E-02    0.635E-03
DAV:   7    -0.140627574777E+03    0.25859E-04   -0.81291E-06  1888   0.440E-02    0.448E-03
DAV:   8    -0.140627537590E+03    0.37187E-04   -0.35060E-05  2736   0.860E-02    0.106E-02
DAV:   9    -0.140627527825E+03    0.97653E-05   -0.41790E-05  2560   0.452E-02
   9 F= -.14062753E+03 E0= -.14062529E+03  d E =-.158322E-02
       N       E                     dE             d eps       ncg     rms          rms(c)
DAV:   1    -0.140627568891E+03   -0.31301E-04   -0.40252E-02  2736   0.807E-01    0.337E-02
DAV:   2    -0.140627635468E+03   -0.66577E-04   -0.90067E-04  2992   0.111E-01    0.202E-02
DAV:   3    -0.140627628560E+03    0.69083E-05   -0.29049E-05  2472   0.277E-02    0.143E-02
DAV:   4    -0.140627620620E+03    0.79401E-05   -0.14269E-05  1712   0.240E-02    0.733E-03
DAV:   5    -0.140627612268E+03    0.83523E-05   -0.43588E-06  1696   0.251E-02    0.466E-03
DAV:   6    -0.140627604973E+03    0.72946E-05   -0.65440E-06  1752   0.241E-02
  10 F= -.14062760E+03 E0= -.14062542E+03  d E =-.166037E-02
       N       E                     dE             d eps       ncg     rms          rms(c)
DAV:   1    -0.140628131895E+03   -0.51963E-03   -0.10937E-01  2712   0.144E+00    0.448E-02
DAV:   2    -0.140628347761E+03   -0.21587E-03   -0.24064E-03  2968   0.197E-01    0.242E-02
DAV:   3    -0.140628334368E+03    0.13392E-04   -0.31795E-05  2576   0.279E-02    0.163E-02
DAV:   4    -0.140628325312E+03    0.90567E-05   -0.24484E-05  2216   0.289E-02    0.568E-03
DAV:   5    -0.140628325274E+03    0.38170E-07   -0.12917E-05  1664   0.185E-02    0.448E-03
DAV:   6    -0.140628325005E+03    0.26885E-06   -0.36585E-06  1608   0.977E-03
  11 F= -.14062833E+03 E0= -.14062618E+03  d E =-.720032E-03
       N       E                     dE             d eps       ncg     rms          rms(c)
DAV:   1    -0.140628294673E+03    0.30600E-04   -0.97911E-01  2712   0.432E+00    0.133E-01
DAV:   2    -0.140630162761E+03   -0.18681E-02   -0.20674E-02  2952   0.575E-01    0.719E-02
DAV:   3    -0.140630036785E+03    0.12598E-03   -0.21877E-04  3272   0.761E-02    0.484E-02
DAV:   4    -0.140629952254E+03    0.84531E-04   -0.25422E-04  3192   0.958E-02    0.149E-02
DAV:   5    -0.140629954651E+03   -0.23969E-05   -0.11534E-04  2880   0.459E-02    0.120E-02
DAV:   6    -0.140629948984E+03    0.56678E-05   -0.15448E-05  1712   0.204E-02
  12 F= -.14062995E+03 E0= -.14062794E+03  d E =-.234401E-02
       N       E                     dE             d eps       ncg     rms          rms(c)
DAV:   1    -0.140623876586E+03    0.60781E-02   -0.39143E+00  2712   0.864E+00    0.262E-01
DAV:   2    -0.140631350480E+03   -0.74739E-02   -0.82708E-02  2944   0.115E+00    0.147E-01
DAV:   3    -0.140630814873E+03    0.53561E-03   -0.87043E-04  3256   0.153E-01    0.983E-02
DAV:   4    -0.140630434604E+03    0.38027E-03   -0.10038E-03  3184   0.190E-01    0.308E-02
DAV:   5    -0.140630418210E+03    0.16394E-04   -0.47049E-04  3048   0.973E-02    0.223E-02
DAV:   6    -0.140630378346E+03    0.39864E-04   -0.65235E-05  2832   0.484E-02    0.101E-02
DAV:   7    -0.140630343242E+03    0.35104E-04   -0.12430E-05  1840   0.397E-02    0.951E-03
DAV:   8    -0.140630290667E+03    0.52575E-04   -0.50330E-05  2840   0.677E-02    0.679E-03
DAV:   9    -0.140630236867E+03    0.53800E-04   -0.43862E-05  2904   0.802E-02    0.902E-03
DAV:  10    -0.140630194189E+03    0.42677E-04   -0.47394E-05  2984   0.893E-02    0.698E-03
DAV:  11    -0.140630158919E+03    0.35270E-04   -0.50463E-05  2928   0.120E-01    0.820E-03
DAV:  12    -0.140630153040E+03    0.58789E-05   -0.10148E-04  2776   0.806E-02    0.476E-03
DAV:  13    -0.140630156874E+03   -0.38343E-05   -0.62879E-05  2448   0.271E-02
  13 F= -.14063016E+03 E0= -.14062836E+03  d E =-.255190E-02
       N       E                     dE             d eps       ncg     rms          rms(c)
DAV:   1    -0.140629455280E+03    0.69776E-03   -0.66460E-01  2704   0.356E+00    0.109E-01
DAV:   2    -0.140630713374E+03   -0.12581E-02   -0.14013E-02  2968   0.473E-01    0.591E-02
DAV:   3    -0.140630624863E+03    0.88511E-04   -0.14515E-04  3264   0.647E-02    0.402E-02
DAV:   4    -0.140630559654E+03    0.65209E-04   -0.19397E-04  3160   0.869E-02    0.113E-02
DAV:   5    -0.140630561861E+03   -0.22070E-05   -0.91394E-05  2784   0.417E-02    0.107E-02
DAV:   6    -0.140630558257E+03    0.36041E-05   -0.72243E-06  1616   0.131E-02
  14 F= -.14063056E+03 E0= -.14062867E+03  d E =-.295328E-02
       N       E                     dE             d eps       ncg     rms          rms(c)
DAV:   1    -0.140630873557E+03   -0.31170E-03   -0.20955E-01  2704   0.198E+00    0.672E-02
DAV:   2    -0.140631337266E+03   -0.46371E-03   -0.51429E-03  2872   0.280E-01    0.356E-02
DAV:   3    -0.140631311610E+03    0.25656E-04   -0.60340E-05  3112   0.370E-02    0.246E-02
DAV:   4    -0.140631295855E+03    0.15755E-04   -0.83961E-05  2856   0.463E-02    0.969E-03
DAV:   5    -0.140631296261E+03   -0.40609E-06   -0.19669E-05  2024   0.196E-02    0.790E-03
DAV:   6    -0.140631295731E+03    0.53042E-06   -0.12892E-05  1496   0.168E-02
  15 F= -.14063130E+03 E0= -.14062943E+03  d E =-.737474E-03
       N       E                     dE             d eps       ncg     rms          rms(c)
DAV:   1    -0.140628760851E+03    0.25354E-02   -0.18823E+00  2696   0.594E+00    0.196E-01
DAV:   2    -0.140632907400E+03   -0.41465E-02   -0.45322E-02  2872   0.828E-01    0.106E-01
DAV:   3    -0.140632661802E+03    0.24560E-03   -0.44998E-04  3304   0.107E-01    0.716E-02
DAV:   4    -0.140632496303E+03    0.16550E-03   -0.69798E-04  3016   0.144E-01    0.236E-02
DAV:   5    -0.140632501542E+03   -0.52393E-05   -0.21357E-04  2920   0.604E-02    0.189E-02
DAV:   6    -0.140632492789E+03    0.87533E-05   -0.10149E-04  2928   0.458E-02    0.141E-02
DAV:   7    -0.140632484796E+03    0.79923E-05   -0.90260E-06  1672   0.219E-02
  16 F= -.14063248E+03 E0= -.14063069E+03  d E =-.192654E-02
       N       E                     dE             d eps       ncg     rms          rms(c)
DAV:   1    -0.140632153554E+03    0.33923E-03   -0.19534E-01  2696   0.192E+00    0.624E-02
DAV:   2    -0.140632572017E+03   -0.41846E-03   -0.46222E-03  2888   0.264E-01    0.335E-02
DAV:   3    -0.140632542105E+03    0.29913E-04   -0.41588E-05  3040   0.335E-02    0.230E-02
DAV:   4    -0.140632512139E+03    0.29966E-04   -0.71185E-05  2912   0.522E-02    0.674E-03
DAV:   5    -0.140632508785E+03    0.33537E-05   -0.28973E-05  2480   0.238E-02    0.600E-03
DAV:   6    -0.140632498130E+03    0.10654E-04   -0.19128E-05  2120   0.312E-02    0.902E-03
DAV:   7    -0.140632491921E+03    0.62093E-05   -0.59430E-06  1672   0.188E-02
  17 F= -.14063249E+03 E0= -.14063072E+03  d E =-.193366E-02
       N       E                     dE             d eps       ncg     rms          rms(c)
DAV:   1    -0.140633094284E+03   -0.59615E-03   -0.30487E-01  2688   0.246E+00    0.704E-02
DAV:   2    -0.140633705162E+03   -0.61088E-03   -0.65290E-03  2944   0.332E-01    0.383E-02
DAV:   3    -0.140633677067E+03    0.28094E-04   -0.77428E-05  3184   0.419E-02    0.266E-02
DAV:   4    -0.140633653941E+03    0.23127E-04   -0.79816E-05  2984   0.527E-02    0.103E-02
DAV:   5    -0.140633653551E+03    0.38968E-06   -0.32451E-05  2376   0.286E-02    0.912E-03
DAV:   6    -0.140633651649E+03    0.19022E-05   -0.13512E-05  1608   0.205E-02
  18 F= -.14063365E+03 E0= -.14063192E+03  d E =-.115973E-02
       N       E                     dE             d eps       ncg     rms          rms(c)
DAV:   1    -0.140630522411E+03    0.31311E-02   -0.27446E+00  2688   0.739E+00    0.220E-01
DAV:   2    -0.140636082428E+03   -0.55600E-02   -0.60362E-02  2960   0.101E+00    0.117E-01
DAV:   3    -0.140635829579E+03    0.25285E-03   -0.83749E-04  3272   0.130E-01    0.818E-02
DAV:   4    -0.140635639821E+03    0.18976E-03   -0.80028E-04  3128   0.145E-01    0.357E-02
DAV:   5    -0.140635625409E+03    0.14413E-04   -0.22980E-04  3152   0.779E-02    0.319E-02
DAV:   6    -0.140635606126E+03    0.19282E-04   -0.18707E-04  3024   0.727E-02    0.137E-02
DAV:   7    -0.140635600005E+03    0.61214E-05   -0.26288E-05  2344   0.279E-02
  19 F= -.14063560E+03 E0= -.14063400E+03  d E =-.310808E-02
       N       E                     dE             d eps       ncg     rms          rms(c)
DAV:   1    -0.140635072041E+03    0.53409E-03   -0.34224E-01  2688   0.261E+00    0.795E-02
DAV:   2    -0.140635776186E+03   -0.70414E-03   -0.77418E-03  2968   0.359E-01    0.415E-02
DAV:   3    -0.140635739553E+03    0.36633E-04   -0.10663E-04  3240   0.466E-02    0.293E-02
DAV:   4    -0.140635706712E+03    0.32842E-04   -0.12116E-04  3096   0.558E-02    0.145E-02
DAV:   5    -0.140635701826E+03    0.48857E-05   -0.31587E-05  2464   0.303E-02    0.134E-02
DAV:   6    -0.140635695785E+03    0.60411E-05   -0.28675E-05  2304   0.299E-02
  20 F= -.14063570E+03 E0= -.14063414E+03  d E =-.320386E-02
       N       E                     dE             d eps       ncg     rms          rms(c)
DAV:   1    -0.140636109729E+03   -0.40790E-03   -0.47727E-01  2704   0.308E+00    0.958E-02
DAV:   2    -0.140637092708E+03   -0.98298E-03   -0.10777E-02  2968   0.425E-01    0.487E-02
DAV:   3    -0.140637050425E+03    0.42283E-04   -0.17714E-04  3264   0.614E-02    0.341E-02
DAV:   4    -0.140637016793E+03    0.33633E-04   -0.10922E-04  2960   0.538E-02    0.153E-02
DAV:   5    -0.140637006697E+03    0.10096E-04   -0.30971E-05  2360   0.401E-02    0.123E-02
DAV:   6    -0.140636996547E+03    0.10150E-04   -0.34405E-05  2304   0.439E-02    0.619E-03
DAV:   7    -0.140636994108E+03    0.24387E-05   -0.19464E-05  1960   0.210E-02
  21 F= -.14063699E+03 E0= -.14063548E+03  d E =-.129832E-02
       N       E                     dE             d eps       ncg     rms          rms(c)
DAV:   1    -0.140633698735E+03    0.32978E-02   -0.24546E+00  2704   0.699E+00    0.214E-01
DAV:   2    -0.140638707926E+03   -0.50092E-02   -0.55085E-02  2976   0.968E-01    0.112E-01
DAV:   3    -0.140638478375E+03    0.22955E-03   -0.95983E-04  3280   0.145E-01    0.786E-02
DAV:   4    -0.140638296388E+03    0.18199E-03   -0.49989E-04  3096   0.120E-01    0.353E-02
DAV:   5    -0.140638235226E+03    0.61161E-04   -0.16949E-04  3336   0.102E-01    0.258E-02
DAV:   6    -0.140638190528E+03    0.44698E-04   -0.18690E-04  3184   0.105E-01    0.151E-02
DAV:   7    -0.140638181164E+03    0.93649E-05   -0.98008E-05  2712   0.465E-02
  22 F= -.14063818E+03 E0= -.14063676E+03  d E =-.248538E-02
       N       E                     dE             d eps       ncg     rms          rms(c)
DAV:   1    -0.140636591793E+03    0.15987E-02   -0.15560E+00  2704   0.560E+00    0.177E-01
DAV:   2    -0.140640006577E+03   -0.34148E-02   -0.37823E-02  2936   0.793E-01    0.913E-02
DAV:   3    -0.140639829189E+03    0.17739E-03   -0.60209E-04  3288   0.110E-01    0.635E-02
DAV:   4    -0.140639706877E+03    0.12231E-03   -0.33766E-04  3000   0.816E-02    0.258E-02
DAV:   5    -0.140639685216E+03    0.21661E-04   -0.10281E-04  3072   0.639E-02    0.166E-02
DAV:   6    -0.140639678056E+03    0.71600E-05   -0.97045E-05  2784   0.670E-02
  23 F= -.14063968E+03 E0= -.14063828E+03  d E =-.149689E-02
       N       E                     dE             d eps       ncg     rms          rms(c)
DAV:   1    -0.140637576172E+03    0.21090E-02   -0.12252E+00  2704   0.496E+00    0.156E-01
DAV:   2    -0.140640276746E+03   -0.27006E-02   -0.29694E-02  2928   0.700E-01    0.818E-02
DAV:   3    -0.140640127106E+03    0.14964E-03   -0.38812E-04  3296   0.886E-02    0.563E-02
DAV:   4    -0.140640018328E+03    0.10878E-03   -0.35071E-04  3040   0.910E-02    0.204E-02
DAV:   5    -0.140640009488E+03    0.88395E-05   -0.10486E-04  2968   0.521E-02    0.147E-02
DAV:   6    -0.140640003045E+03    0.64428E-05   -0.79984E-05  2704   0.502E-02
  24 F= -.14064000E+03 E0= -.14063862E+03  d E =-.182188E-02
       N       E                     dE             d eps       ncg     rms          rms(c)
DAV:   1    -0.140639946693E+03    0.62796E-04   -0.55963E-01  2736   0.331E+00    0.948E-02
DAV:   2    -0.140641108366E+03   -0.11617E-02   -0.12323E-02  2912   0.451E-01    0.526E-02
DAV:   3    -0.140641045916E+03    0.62450E-04   -0.12579E-04  3208   0.543E-02    0.353E-02
DAV:   4    -0.140640988180E+03    0.57737E-04   -0.14590E-04  2992   0.866E-02    0.928E-03
DAV:   5    -0.140640987777E+03    0.40248E-06   -0.92860E-05  2824   0.427E-02    0.111E-02
DAV:   6    -0.140640986516E+03    0.12610E-05   -0.46042E-06  1576   0.831E-03
  25 F= -.14064099E+03 E0= -.14063963E+03  d E =-.983471E-03
       N       E                     dE             d eps       ncg     rms          rms(c)
DAV:   1    -0.140633308701E+03    0.76791E-02   -0.50341E+00  2728   0.994E+00    0.286E-01
DAV:   2    -0.140643812375E+03   -0.10504E-01   -0.11176E-01  2936   0.136E+00    0.160E-01
DAV:   3    -0.140643237647E+03    0.57473E-03   -0.11610E-03  3296   0.167E-01    0.108E-01
DAV:   4    -0.140642712297E+03    0.52535E-03   -0.12806E-03  3152   0.270E-01    0.310E-02
DAV:   5    -0.140642711981E+03    0.31620E-06   -0.93366E-04  2992   0.140E-01    0.359E-02
DAV:   6    -0.140642697496E+03    0.14485E-04   -0.54494E-05  2504   0.286E-02    0.344E-02
DAV:   7    -0.140642671926E+03    0.25570E-04   -0.13324E-05  1624   0.148E-02    0.263E-02
DAV:   8    -0.140642546199E+03    0.12573E-03   -0.47161E-04  2816   0.107E-01    0.425E-02
DAV:   9    -0.140642465566E+03    0.80633E-04   -0.17003E-04  3144   0.960E-02    0.148E-02
DAV:  10    -0.140642415825E+03    0.49741E-04   -0.18313E-04  3664   0.111E-01    0.230E-02
DAV:  11    -0.140642339324E+03    0.76501E-04   -0.11879E-04  3896   0.151E-01    0.345E-02
DAV:  12    -0.140642214560E+03    0.12476E-03   -0.12637E-04  3152   0.180E-01    0.269E-02
DAV:  13    -0.140642150475E+03    0.64086E-04   -0.55647E-04  3040   0.160E-01    0.385E-02
DAV:  14    -0.140642113115E+03    0.37360E-04   -0.18659E-04  3784   0.177E-01    0.272E-02
DAV:  15    -0.140642132558E+03   -0.19443E-04   -0.53477E-04  2688   0.756E-02    0.225E-02
DAV:  16    -0.140642120860E+03    0.11697E-04   -0.57491E-05  2672   0.495E-02    0.349E-03
DAV:  17    -0.140642121357E+03   -0.49675E-06   -0.14450E-05  1840   0.228E-02
  26 F= -.14064212E+03 E0= -.14064079E+03  d E =-.211831E-02
       N       E                     dE             d eps       ncg     rms          rms(c)
DAV:   1    -0.140643200544E+03   -0.10797E-02   -0.16909E-01  2744   0.179E+00    0.557E-02
DAV:   2    -0.140643523363E+03   -0.32282E-03   -0.40317E-03  3000   0.261E-01    0.389E-02
DAV:   3    -0.140643487112E+03    0.36251E-04   -0.85914E-05  3144   0.462E-02    0.291E-02
DAV:   4    -0.140643444309E+03    0.42803E-04   -0.75501E-05  2792   0.593E-02    0.129E-02
DAV:   5    -0.140643428530E+03    0.15779E-04   -0.58633E-05  2984   0.465E-02    0.128E-02
DAV:   6    -0.140643421056E+03    0.74747E-05   -0.36962E-05  2432   0.300E-02
  27 F= -.14064342E+03 E0= -.14064210E+03  d E =-.129970E-02
       N       E                     dE             d eps       ncg     rms          rms(c)
DAV:   1    -0.140643523156E+03   -0.94625E-04   -0.13322E-01  2744   0.159E+00    0.495E-02
DAV:   2    -0.140643766317E+03   -0.24316E-03   -0.32178E-03  3000   0.232E-01    0.347E-02
DAV:   3    -0.140643727730E+03    0.38587E-04   -0.67520E-05  3040   0.428E-02    0.257E-02
DAV:   4    -0.140643663580E+03    0.64150E-04   -0.86002E-05  2888   0.712E-02    0.116E-02
DAV:   5    -0.140643644115E+03    0.19465E-04   -0.67501E-05  2984   0.449E-02    0.137E-02
DAV:   6    -0.140643636168E+03    0.79478E-05   -0.23495E-05  2168   0.226E-02
  28 F= -.14064364E+03 E0= -.14064233E+03  d E =-.151481E-02
       N       E                     dE             d eps       ncg     rms          rms(c)
DAV:   1    -0.140644356292E+03   -0.71218E-03   -0.63201E-02  2872   0.111E+00    0.378E-02
DAV:   2    -0.140644467005E+03   -0.11071E-03   -0.17744E-03  3040   0.178E-01    0.288E-02
DAV:   3    -0.140644438753E+03    0.28252E-04   -0.60358E-05  2912   0.410E-02    0.209E-02
DAV:   4    -0.140644381523E+03    0.57230E-04   -0.98911E-05  2944   0.668E-02    0.133E-02
DAV:   5    -0.140644356851E+03    0.24673E-04   -0.42207E-05  2648   0.441E-02    0.180E-02
DAV:   6    -0.140644341636E+03    0.15215E-04   -0.21593E-05  1928   0.282E-02    0.118E-02
DAV:   7    -0.140644301326E+03    0.40310E-04   -0.10455E-05  1832   0.492E-02    0.854E-03
DAV:   8    -0.140644216649E+03    0.84677E-04   -0.10294E-04  3480   0.138E-01    0.129E-02
DAV:   9    -0.140644170349E+03    0.46300E-04   -0.11368E-04  3352   0.112E-01    0.101E-02
DAV:  10    -0.140644114040E+03    0.56309E-04   -0.12670E-04  3688   0.224E-01    0.167E-02
DAV:  11    -0.140644124979E+03   -0.10939E-04   -0.23302E-04  2800   0.856E-02    0.173E-02
DAV:  12    -0.140644122387E+03    0.25922E-05   -0.51675E-05  2432   0.307E-02
  29 F= -.14064412E+03 E0= -.14064281E+03  d E =-.486219E-03
       N       E                     dE             d eps       ncg     rms          rms(c)
DAV:   1    -0.140644195594E+03   -0.70615E-04   -0.92182E-03  2840   0.423E-01    0.160E-02
DAV:   2    -0.140644211065E+03   -0.15471E-04   -0.22927E-04  3008   0.649E-02    0.976E-03
DAV:   3    -0.140644208942E+03    0.21236E-05   -0.12118E-05  1616   0.189E-02    0.701E-03
DAV:   4    -0.140644207278E+03    0.16641E-05   -0.62893E-06  1600   0.142E-02    0.330E-03
DAV:   5    -0.140644205711E+03    0.15665E-05   -0.24271E-06  1584   0.123E-02    0.228E-03
DAV:   6    -0.140644203893E+03    0.18182E-05   -0.16550E-06  1608   0.155E-02
  30 F= -.14064420E+03 E0= -.14064288E+03  d E =-.567725E-03
       N       E                     dE             d eps       ncg     rms          rms(c)
DAV:   1    -0.140644136752E+03    0.68959E-04   -0.37120E-02  2856   0.850E-01    0.291E-02
DAV:   2    -0.140644210082E+03   -0.73330E-04   -0.10182E-03  3040   0.135E-01    0.207E-02
DAV:   3    -0.140644198435E+03    0.11647E-04   -0.30734E-05  2480   0.293E-02    0.154E-02
DAV:   4    -0.140644181376E+03    0.17059E-04   -0.42745E-05  2640   0.386E-02    0.784E-03
DAV:   5    -0.140644172530E+03    0.88463E-05   -0.13022E-05  1632   0.293E-02    0.101E-02
DAV:   6    -0.140644162382E+03    0.10148E-04   -0.65893E-06  1672   0.283E-02    0.702E-03
DAV:   7    -0.140644148323E+03    0.14059E-04   -0.84188E-06  1760   0.397E-02    0.395E-03
DAV:   8    -0.140644129587E+03    0.18736E-04   -0.13772E-05  2048   0.597E-02    0.411E-03
DAV:   9    -0.140644100829E+03    0.28758E-04   -0.69447E-05  3104   0.133E-01    0.113E-02
DAV:  10    -0.140644093537E+03    0.72920E-05   -0.69280E-05  2792   0.817E-02
  31 F= -.14064409E+03 E0= -.14064276E+03  d E =-.457369E-03
       N       E                     dE             d eps       ncg     rms          rms(c)
DAV:   1    -0.140644195407E+03   -0.94579E-04   -0.18061E-02  2840   0.594E-01    0.223E-02
DAV:   2    -0.140644227654E+03   -0.32247E-04   -0.47721E-04  3048   0.956E-02    0.126E-02
DAV:   3    -0.140644225057E+03    0.25965E-05   -0.21989E-05  1920   0.224E-02    0.942E-03
DAV:   4    -0.140644221697E+03    0.33605E-05   -0.80675E-06  1600   0.151E-02    0.456E-03
DAV:   5    -0.140644218308E+03    0.33884E-05   -0.50115E-06  1640   0.182E-02    0.411E-03
DAV:   6    -0.140644215849E+03    0.24597E-05   -0.33561E-06  1592   0.174E-02
  32 F= -.14064422E+03 E0= -.14064290E+03  d E =-.579681E-03
       N       E                     dE             d eps       ncg     rms          rms(c)
DAV:   1    -0.140644409814E+03   -0.19151E-03   -0.19016E-01  2720   0.194E+00    0.691E-02
DAV:   2    -0.140644847415E+03   -0.43760E-03   -0.53536E-03  2960   0.289E-01    0.458E-02
DAV:   3    -0.140644790908E+03    0.56507E-04   -0.75952E-05  3152   0.499E-02    0.310E-02
DAV:   4    -0.140644738170E+03    0.52738E-04   -0.15497E-04  3064   0.717E-02    0.104E-02
DAV:   5    -0.140644730779E+03    0.73916E-05   -0.52333E-05  2824   0.324E-02    0.799E-03
DAV:   6    -0.140644718458E+03    0.12320E-04   -0.23917E-05  2320   0.300E-02    0.768E-03
DAV:   7    -0.140644707808E+03    0.10651E-04   -0.60687E-06  1744   0.242E-02    0.823E-03
DAV:   8    -0.140644698985E+03    0.88229E-05   -0.76493E-06  1712   0.228E-02
  33 F= -.14064470E+03 E0= -.14064335E+03  d E =-.483136E-03
       N       E                     dE             d eps       ncg     rms          rms(c)
DAV:   1    -0.140644668188E+03    0.39620E-04   -0.53121E-04  2968   0.128E-01    0.679E-03
DAV:   2    -0.140644673987E+03   -0.57991E-05   -0.97687E-05  2744   0.407E-02    0.881E-03
DAV:   3    -0.140644672517E+03    0.14704E-05   -0.34651E-06  1584   0.858E-03    0.599E-03
DAV:   4    -0.140644668900E+03    0.36172E-05   -0.44146E-06  1616   0.115E-02    0.243E-03
DAV:   5    -0.140644664986E+03    0.39139E-05   -0.29329E-06  1608   0.179E-02    0.443E-03
DAV:   6    -0.140644658297E+03    0.66892E-05   -0.31550E-06  1696   0.364E-02
  34 F= -.14064466E+03 E0= -.14064330E+03  d E =-.442448E-03
       N       E                     dE             d eps       ncg     rms          rms(c)
DAV:   1    -0.140644892986E+03   -0.22800E-03   -0.44795E-02  2920   0.906E-01    0.271E-02
DAV:   2    -0.140644977994E+03   -0.85007E-04   -0.10379E-03  3016   0.130E-01    0.181E-02
DAV:   3    -0.140644965916E+03    0.12078E-04   -0.12532E-05  1744   0.217E-02    0.128E-02
DAV:   4    -0.140644944471E+03    0.21445E-04   -0.24539E-05  2320   0.433E-02    0.512E-03
DAV:   5    -0.140644939119E+03    0.53517E-05   -0.17884E-05  1720   0.256E-02    0.433E-03
DAV:   6    -0.140644934991E+03    0.41278E-05   -0.61379E-06  1600   0.164E-02
  35 F= -.14064493E+03 E0= -.14064358E+03  d E =-.276694E-03
       N       E                     dE             d eps       ncg     rms          rms(c)
DAV:   1    -0.140644959565E+03   -0.20446E-04   -0.70300E-02  2920   0.113E+00    0.329E-02
DAV:   2    -0.140645081611E+03   -0.12205E-03   -0.15903E-03  3008   0.163E-01    0.225E-02
DAV:   3    -0.140645057796E+03    0.23815E-04   -0.25014E-05  2248   0.319E-02    0.160E-02
DAV:   4    -0.140645011307E+03    0.46490E-04   -0.30751E-05  2408   0.580E-02    0.741E-03
DAV:   5    -0.140644988873E+03    0.22434E-04   -0.32170E-05  2336   0.448E-02    0.608E-03
DAV:   6    -0.140644967884E+03    0.20989E-04   -0.17082E-05  2056   0.427E-02    0.592E-03
DAV:   7    -0.140644908860E+03    0.59023E-04   -0.27010E-05  2432   0.109E-01    0.845E-03
DAV:   8    -0.140644838014E+03    0.70847E-04   -0.13269E-04  3328   0.179E-01    0.738E-03
DAV:   9    -0.140644826792E+03    0.11222E-04   -0.12824E-04  2872   0.976E-02    0.685E-03
DAV:  10    -0.140644828208E+03   -0.14159E-05   -0.81157E-05  2640   0.406E-02
  36 F= -.14064483E+03 E0= -.14064346E+03  d E =-.169911E-03
       N       E                     dE             d eps       ncg     rms          rms(c)
DAV:   1    -0.140644883082E+03   -0.56290E-04   -0.11615E-02  3016   0.458E-01    0.155E-02
DAV:   2    -0.140644907116E+03   -0.24034E-04   -0.29792E-04  2992   0.667E-02    0.115E-02
DAV:   3    -0.140644903094E+03    0.40218E-05   -0.36036E-06  1568   0.149E-02    0.800E-03
DAV:   4    -0.140644897753E+03    0.53412E-05   -0.90345E-06  1680   0.301E-02    0.221E-03
DAV:   5    -0.140644897672E+03    0.81488E-07   -0.12553E-05  1584   0.164E-02    0.373E-03
DAV:   6    -0.140644897281E+03    0.39081E-06   -0.16462E-06  1480   0.548E-03
  37 F= -.14064490E+03 E0= -.14064353E+03  d E =-.238984E-03
       N       E                     dE             d eps       ncg     rms          rms(c)
DAV:   1    -0.140644918709E+03   -0.21037E-04   -0.64183E-03  2936   0.341E-01    0.104E-02
DAV:   2    -0.140644928680E+03   -0.99707E-05   -0.14226E-04  2896   0.485E-02    0.690E-03
DAV:   3    -0.140644925862E+03    0.28181E-05   -0.18195E-06  1584   0.113E-02    0.515E-03
DAV:   4    -0.140644920118E+03    0.57441E-05   -0.32867E-06  1616   0.242E-02    0.226E-03
DAV:   5    -0.140644917688E+03    0.24295E-05   -0.67840E-06  1632   0.176E-02    0.263E-03
DAV:   6    -0.140644917059E+03    0.62947E-06   -0.29898E-06  1560   0.800E-03
  38 F= -.14064492E+03 E0= -.14064355E+03  d E =-.258762E-03
       N       E                     dE             d eps       ncg     rms          rms(c)
DAV:   1    -0.140644917564E+03    0.12429E-06   -0.15878E-03  2952   0.171E-01    0.493E-03
DAV:   2    -0.140644918354E+03   -0.79013E-06   -0.34580E-05  2352   0.264E-02    0.378E-03
DAV:   3    -0.140644916692E+03    0.16620E-05   -0.16968E-06  1584   0.914E-03    0.295E-03
DAV:   4    -0.140644913535E+03    0.31565E-05   -0.49603E-07  1584   0.121E-02    0.204E-03
DAV:   5    -0.140644906495E+03    0.70403E-05   -0.29361E-06  1688   0.307E-02    0.218E-03
DAV:   6    -0.140644904627E+03    0.18680E-05   -0.66660E-06  1600   0.155E-02
  39 F= -.14064490E+03 E0= -.14064354E+03  d E =-.246330E-03
       N       E                     dE             d eps       ncg     rms          rms(c)
DAV:   1    -0.140644994245E+03   -0.87750E-04   -0.11100E-02  2688   0.419E-01    0.197E-02
DAV:   2    -0.140645023703E+03   -0.29459E-04   -0.42127E-04  2944   0.692E-02    0.153E-02
DAV:   3    -0.140645018039E+03    0.56645E-05   -0.53595E-06  1688   0.130E-02    0.111E-02
DAV:   4    -0.140645008456E+03    0.95831E-05   -0.27850E-05  2488   0.312E-02    0.506E-03
DAV:   5    -0.140645008289E+03    0.16722E-06   -0.94503E-06  1664   0.117E-02    0.566E-03
DAV:   6    -0.140645006157E+03    0.21312E-05   -0.30630E-06  1560   0.112E-02
  40 F= -.14064501E+03 E0= -.14064364E+03  d E =-.101530E-03
       N       E                     dE             d eps       ncg     rms          rms(c)
DAV:   1    -0.140645004588E+03    0.37004E-05   -0.59313E-04  2864   0.103E-01    0.974E-03
DAV:   2    -0.140645003055E+03    0.15327E-05   -0.30402E-05  2504   0.257E-02    0.661E-03
DAV:   3    -0.140645001269E+03    0.17863E-05   -0.93702E-06  1576   0.138E-02    0.326E-03
DAV:   4    -0.140645000151E+03    0.11180E-05   -0.14068E-06  1552   0.833E-03    0.253E-03
DAV:   5    -0.140644996082E+03    0.40695E-05   -0.19127E-06  1696   0.189E-02    0.311E-03
DAV:   6    -0.140644991500E+03    0.45816E-05   -0.37695E-06  1704   0.249E-02
  41 F= -.14064499E+03 E0= -.14064362E+03  d E =-.868730E-04
       N       E                     dE             d eps       ncg     rms          rms(c)
DAV:   1    -0.140645092888E+03   -0.96806E-04   -0.27691E-03  2936   0.223E-01    0.952E-03
DAV:   2    -0.140645094708E+03   -0.18205E-05   -0.75821E-05  2984   0.383E-02    0.563E-03
DAV:   3    -0.140645092802E+03    0.19063E-05   -0.54458E-06  1624   0.128E-02    0.427E-03
DAV:   4    -0.140645090502E+03    0.22997E-05   -0.10867E-06  1584   0.971E-03    0.282E-03
DAV:   5    -0.140645086541E+03    0.39612E-05   -0.20322E-06  1608   0.181E-02    0.235E-03
DAV:   6    -0.140645084441E+03    0.20995E-05   -0.28686E-06  1584   0.149E-02
  42 F= -.14064508E+03 E0= -.14064370E+03  d E =-.929414E-04
       N       E                     dE             d eps       ncg     rms          rms(c)
DAV:   1    -0.140645221708E+03   -0.13517E-03   -0.24980E-02  2928   0.675E-01    0.252E-02
DAV:   2    -0.140645266000E+03   -0.44292E-04   -0.79553E-04  3008   0.115E-01    0.192E-02
DAV:   3    -0.140645253694E+03    0.12305E-04   -0.27359E-05  2096   0.229E-02    0.142E-02
DAV:   4    -0.140645236425E+03    0.17269E-04   -0.24067E-05  2128   0.278E-02    0.669E-03
DAV:   5    -0.140645227159E+03    0.92662E-05   -0.85882E-06  1640   0.251E-02    0.575E-03
DAV:   6    -0.140645213177E+03    0.13981E-04   -0.20021E-05  2064   0.528E-02    0.527E-03
DAV:   7    -0.140645205498E+03    0.76798E-05   -0.15751E-05  1864   0.323E-02
  43 F= -.14064521E+03 E0= -.14064378E+03  d E =-.213998E-03
       N       E                     dE             d eps       ncg     rms          rms(c)
DAV:   1    -0.140645309858E+03   -0.96680E-04   -0.13181E-03  2800   0.149E-01    0.785E-03
DAV:   2    -0.140645311064E+03   -0.12059E-05   -0.58531E-05  2944   0.302E-02    0.611E-03
DAV:   3    -0.140645309353E+03    0.17103E-05   -0.25514E-06  1632   0.881E-03    0.450E-03
DAV:   4    -0.140645305265E+03    0.40883E-05   -0.34760E-06  1608   0.173E-02    0.236E-03
DAV:   5    -0.140645303729E+03    0.15356E-05   -0.29921E-06  1584   0.107E-02    0.356E-03
DAV:   6    -0.140645302918E+03    0.81133E-06   -0.11716E-06  1552   0.656E-03
  44 F= -.14064530E+03 E0= -.14064386E+03  d E =-.974204E-04
       N       E                     dE             d eps       ncg     rms          rms(c)
DAV:   1    -0.140645561711E+03   -0.25798E-03   -0.11743E-02  2840   0.443E-01    0.220E-02
DAV:   2    -0.140645587915E+03   -0.26204E-04   -0.49251E-04  2984   0.804E-02    0.158E-02
DAV:   3    -0.140645582741E+03    0.51740E-05   -0.20330E-05  2024   0.183E-02    0.105E-02
DAV:   4    -0.140645581240E+03    0.15008E-05   -0.17572E-05  1640   0.200E-02    0.434E-03
DAV:   5    -0.140645581089E+03    0.15098E-06   -0.37461E-06  1456   0.853E-03    0.311E-03
DAV:   6    -0.140645580852E+03    0.23687E-06   -0.12128E-06  1440   0.736E-03
  45 F= -.14064558E+03 E0= -.14064409E+03  d E =-.375355E-03
       N       E                     dE             d eps       ncg     rms          rms(c)
DAV:   1    -0.140645781597E+03   -0.20051E-03   -0.46845E-02  2832   0.882E-01    0.442E-02
DAV:   2    -0.140645864153E+03   -0.82556E-04   -0.17942E-03  2960   0.155E-01    0.289E-02
DAV:   3    -0.140645845724E+03    0.18429E-04   -0.85039E-05  2592   0.376E-02    0.194E-02
DAV:   4    -0.140645836818E+03    0.89055E-05   -0.42417E-05  2744   0.331E-02    0.103E-02
DAV:   5    -0.140645832040E+03    0.47788E-05   -0.81784E-06  1640   0.215E-02    0.556E-03
DAV:   6    -0.140645826375E+03    0.56647E-05   -0.55167E-06  1688   0.277E-02
  46 F= -.14064583E+03 E0= -.14064423E+03  d E =-.620877E-03
       N       E                     dE             d eps       ncg     rms          rms(c)
DAV:   1    -0.140645895097E+03   -0.63057E-04   -0.82627E-04  2768   0.123E-01    0.597E-03
DAV:   2    -0.140645894000E+03    0.10973E-05   -0.32765E-05  2552   0.258E-02    0.425E-03
DAV:   3    -0.140645892052E+03    0.19481E-05   -0.32710E-06  1608   0.112E-02    0.298E-03
DAV:   4    -0.140645889875E+03    0.21768E-05   -0.62768E-07  1584   0.101E-02    0.231E-03
DAV:   5    -0.140645882831E+03    0.70435E-05   -0.22553E-06  1648   0.316E-02    0.186E-03
DAV:   6    -0.140645878771E+03    0.40609E-05   -0.69156E-06  1792   0.257E-02
  47 F= -.14064588E+03 E0= -.14064427E+03  d E =-.523956E-04
       N       E                     dE             d eps       ncg     rms          rms(c)
DAV:   1    -0.140646041053E+03   -0.15822E-03   -0.74486E-03  2880   0.369E-01    0.162E-02
DAV:   2    -0.140646055791E+03   -0.14738E-04   -0.28667E-04  2984   0.664E-02    0.107E-02
DAV:   3    -0.140646052296E+03    0.34954E-05   -0.12586E-05  1928   0.147E-02    0.698E-03
DAV:   4    -0.140646049115E+03    0.31808E-05   -0.28781E-06  1624   0.125E-02    0.415E-03
DAV:   5    -0.140646045505E+03    0.36099E-05   -0.29783E-06  1624   0.190E-02    0.206E-03
DAV:   6    -0.140646043184E+03    0.23211E-05   -0.33215E-06  1600   0.173E-02
  48 F= -.14064604E+03 E0= -.14064441E+03  d E =-.216809E-03
       N       E                     dE             d eps       ncg     rms          rms(c)
DAV:   1    -0.140646230824E+03   -0.18532E-03   -0.29990E-02  2792   0.733E-01    0.317E-02
DAV:   2    -0.140646279874E+03   -0.49050E-04   -0.10164E-03  2968   0.123E-01    0.195E-02
DAV:   3    -0.140646267539E+03    0.12335E-04   -0.45342E-05  2320   0.322E-02    0.135E-02
DAV:   4    -0.140646257353E+03    0.10186E-04   -0.94996E-06  1736   0.264E-02    0.897E-03
DAV:   5    -0.140646243841E+03    0.13511E-04   -0.13147E-05  1928   0.425E-02    0.362E-03
DAV:   6    -0.140646239322E+03    0.45198E-05   -0.16132E-05  1880   0.279E-02
  49 F= -.14064624E+03 E0= -.14064455E+03  d E =-.412947E-03
       N       E                     dE             d eps       ncg     rms          rms(c)
DAV:   1    -0.140646028988E+03    0.21485E-03   -0.11993E-01  2816   0.147E+00    0.628E-02
DAV:   2    -0.140646225587E+03   -0.19660E-03   -0.39895E-03  2968   0.244E-01    0.392E-02
DAV:   3    -0.140646177863E+03    0.47724E-04   -0.17450E-04  3160   0.637E-02    0.274E-02
DAV:   4    -0.140646138450E+03    0.39413E-04   -0.37356E-05  2584   0.508E-02    0.185E-02
DAV:   5    -0.140646090477E+03    0.47973E-04   -0.47150E-05  2880   0.773E-02    0.768E-03
DAV:   6    -0.140646073598E+03    0.16879E-04   -0.48938E-05  2600   0.521E-02    0.651E-03
DAV:   7    -0.140646051379E+03    0.22219E-04   -0.13715E-05  1824   0.533E-02    0.577E-03
DAV:   8    -0.140646030568E+03    0.20811E-04   -0.12729E-05  1976   0.541E-02    0.607E-03
DAV:   9    -0.140645989882E+03    0.40686E-04   -0.66857E-05  2936   0.124E-01    0.878E-03
DAV:  10    -0.140645981515E+03    0.83671E-05   -0.53012E-05  2576   0.568E-02
  50 F= -.14064598E+03 E0= -.14064421E+03  d E =-.155140E-03
       N       E                     dE             d eps       ncg     rms          rms(c)
DAV:   1    -0.140646176297E+03   -0.18642E-03   -0.57522E-02  2904   0.101E+00    0.437E-02
DAV:   2    -0.140646273008E+03   -0.96711E-04   -0.18419E-03  2960   0.164E-01    0.262E-02
DAV:   3    -0.140646254505E+03    0.18503E-04   -0.83416E-05  2976   0.424E-02    0.177E-02
DAV:   4    -0.140646240668E+03    0.13836E-04   -0.15711E-05  2032   0.297E-02    0.122E-02
DAV:   5    -0.140646225768E+03    0.14901E-04   -0.26215E-05  2400   0.474E-02    0.498E-03
DAV:   6    -0.140646224261E+03    0.15064E-05   -0.22670E-05  1912   0.270E-02
  51 F= -.14064622E+03 E0= -.14064450E+03  d E =-.397886E-03
       N       E                     dE             d eps       ncg     rms          rms(c)
DAV:   1    -0.140646411014E+03   -0.18525E-03   -0.50534E-03  2752   0.262E-01    0.158E-02
DAV:   2    -0.140646420678E+03   -0.96643E-05   -0.22195E-04  2936   0.490E-02    0.995E-03
DAV:   3    -0.140646418236E+03    0.24428E-05   -0.94691E-06  1888   0.122E-02    0.673E-03
DAV:   4    -0.140646416175E+03    0.20606E-05   -0.45098E-06  1616   0.139E-02    0.297E-03
DAV:   5    -0.140646415092E+03    0.10834E-05   -0.25427E-06  1560   0.114E-02    0.220E-03
DAV:   6    -0.140646414133E+03    0.95889E-06   -0.11839E-06  1600   0.119E-02
  52 F= -.14064641E+03 E0= -.14064467E+03  d E =-.189871E-03
       N       E                     dE             d eps       ncg     rms          rms(c)
DAV:   1    -0.140646686263E+03   -0.27117E-03   -0.45687E-02  2760   0.785E-01    0.449E-02
DAV:   2    -0.140646790099E+03   -0.10384E-03   -0.19543E-03  2952   0.141E-01    0.302E-02
DAV:   3    -0.140646774731E+03    0.15368E-04   -0.68780E-05  2520   0.273E-02    0.208E-02
DAV:   4    -0.140646765051E+03    0.96795E-05   -0.37732E-05  2688   0.282E-02    0.108E-02
DAV:   5    -0.140646760492E+03    0.45592E-05   -0.11114E-05  1784   0.168E-02    0.605E-03
DAV:   6    -0.140646755670E+03    0.48224E-05   -0.42747E-06  1664   0.230E-02
  53 F= -.14064676E+03 E0= -.14064496E+03  d E =-.531408E-03
       N       E                     dE             d eps       ncg     rms          rms(c)
DAV:   1    -0.140646775031E+03   -0.14539E-04   -0.10990E-02  2760   0.385E-01    0.217E-02
DAV:   2    -0.140646798237E+03   -0.23206E-04   -0.45638E-04  2928   0.685E-02    0.148E-02
DAV:   3    -0.140646793485E+03    0.47520E-05   -0.15099E-05  2048   0.144E-02    0.105E-02
DAV:   4    -0.140646787255E+03    0.62295E-05   -0.91097E-06  1688   0.192E-02    0.485E-03
DAV:   5    -0.140646783431E+03    0.38246E-05   -0.56022E-06  1672   0.152E-02    0.350E-03
DAV:   6    -0.140646777003E+03    0.64276E-05   -0.34681E-06  1648   0.275E-02
  54 F= -.14064678E+03 E0= -.14064497E+03  d E =-.552742E-03
       N       E                     dE             d eps       ncg     rms          rms(c)
DAV:   1    -0.140647218777E+03   -0.43535E-03   -0.29298E-02  2960   0.741E-01    0.324E-02
DAV:   2    -0.140647266609E+03   -0.47833E-04   -0.93974E-04  2984   0.126E-01    0.192E-02
DAV:   3    -0.140647251901E+03    0.14708E-04   -0.41485E-05  2680   0.342E-02    0.142E-02
DAV:   4    -0.140647237510E+03    0.14391E-04   -0.13098E-05  1752   0.289E-02    0.837E-03
DAV:   5    -0.140647222180E+03    0.15330E-04   -0.13853E-05  1928   0.406E-02    0.498E-03
DAV:   6    -0.140647215485E+03    0.66954E-05   -0.14318E-05  1840   0.304E-02
  55 F= -.14064722E+03 E0= -.14064539E+03  d E =-.438482E-03
       N       E                     dE             d eps       ncg     rms          rms(c)
DAV:   1    -0.140647376359E+03   -0.15418E-03   -0.50095E-02  2936   0.971E-01    0.428E-02
DAV:   2    -0.140647457680E+03   -0.81321E-04   -0.16518E-03  2992   0.170E-01    0.260E-02
DAV:   3    -0.140647430431E+03    0.27249E-04   -0.76533E-05  2984   0.464E-02    0.195E-02
DAV:   4    -0.140647402554E+03    0.27877E-04   -0.22672E-05  2128   0.381E-02    0.118E-02
DAV:   5    -0.140647372276E+03    0.30278E-04   -0.26550E-05  2280   0.558E-02    0.736E-03
DAV:   6    -0.140647357439E+03    0.14837E-04   -0.24861E-05  2056   0.446E-02    0.546E-03
DAV:   7    -0.140647335478E+03    0.21960E-04   -0.21583E-05  2248   0.646E-02    0.651E-03
DAV:   8    -0.140647324006E+03    0.11473E-04   -0.22801E-05  2064   0.406E-02    0.701E-03
DAV:   9    -0.140647311989E+03    0.12016E-04   -0.38076E-05  2376   0.449E-02    0.104E-02
DAV:  10    -0.140647284322E+03    0.27667E-04   -0.44053E-05  2744   0.130E-01    0.180E-02
DAV:  11    -0.140647274360E+03    0.99619E-05   -0.52401E-05  2688   0.599E-02
  56 F= -.14064727E+03 E0= -.14064544E+03  d E =-.497357E-03
       N       E                     dE             d eps       ncg     rms          rms(c)
DAV:   1    -0.140647294153E+03   -0.98309E-05   -0.32690E-03  2800   0.246E-01    0.153E-02
DAV:   2    -0.140647295222E+03   -0.10691E-05   -0.10724E-04  3024   0.489E-02    0.861E-03
DAV:   3    -0.140647293537E+03    0.16851E-05   -0.25270E-05  2144   0.251E-02    0.504E-03
DAV:   4    -0.140647292654E+03    0.88247E-06   -0.36291E-06  1600   0.861E-03    0.330E-03
DAV:   5    -0.140647291035E+03    0.16194E-05   -0.25971E-06  1656   0.105E-02    0.232E-03
DAV:   6    -0.140647290021E+03    0.10136E-05   -0.16200E-06  1632   0.118E-02
  57 F= -.14064729E+03 E0= -.14064546E+03  d E =-.513018E-03
       N       E                     dE             d eps       ncg     rms          rms(c)
DAV:   1    -0.140647290300E+03    0.73529E-06   -0.19561E-04  2640   0.620E-02    0.285E-03
DAV:   2    -0.140647290690E+03   -0.39015E-06   -0.91729E-06  1672   0.134E-02    0.211E-03
DAV:   3    -0.140647290535E+03    0.15468E-06   -0.90775E-07  1504   0.425E-03    0.168E-03
DAV:   4    -0.140647290317E+03    0.21856E-06   -0.28481E-07  1440   0.310E-03    0.908E-04
DAV:   5    -0.140647290142E+03    0.17430E-06   -0.19012E-07  1536   0.397E-03    0.584E-04
DAV:   6    -0.140647290004E+03    0.13887E-06   -0.22990E-07  1480   0.582E-03
  58 F= -.14064729E+03 E0= -.14064546E+03  d E =-.513000E-03
       N       E                     dE             d eps       ncg     rms          rms(c)
DAV:   1    -0.140647364739E+03   -0.74596E-04   -0.50415E-03  2704   0.291E-01    0.133E-02
DAV:   2    -0.140647378793E+03   -0.14054E-04   -0.18210E-04  2952   0.490E-02    0.905E-03
DAV:   3    -0.140647376737E+03    0.20560E-05   -0.31621E-06  1600   0.957E-03    0.624E-03
DAV:   4    -0.140647374954E+03    0.17834E-05   -0.62424E-06  1584   0.127E-02    0.228E-03
DAV:   5    -0.140647374652E+03    0.30166E-06   -0.18101E-06  1512   0.716E-03    0.167E-03
DAV:   6    -0.140647373926E+03    0.72638E-06   -0.10230E-06  1608   0.113E-02
  59 F= -.14064737E+03 E0= -.14064554E+03  d E =-.839221E-04
