       N       E                     dE             d eps       ncg     rms          rms(c)
DAV:   1     0.533421263347E+03    0.53342E+03   -0.33864E+04  2000   0.127E+03
DAV:   2    -0.579519379774E+02   -0.59137E+03   -0.56986E+03  2680   0.293E+02
DAV:   3    -0.120671567232E+03   -0.62720E+02   -0.62317E+02  2390   0.101E+02
DAV:   4    -0.121945059460E+03   -0.12735E+01   -0.12710E+01  2690   0.165E+01
DAV:   5    -0.121965276202E+03   -0.20217E-01   -0.20212E-01  2490   0.194E+00
DAV:   6    -0.121965820875E+03   -0.54467E-03   -0.54454E-03  2650   0.307E-01
DAV:   7    -0.121965839339E+03   -0.18464E-04   -0.18463E-04  2470   0.511E-02
DAV:   8    -0.121965839954E+03   -0.61527E-06   -0.61514E-06  1960   0.951E-03    0.221E+01
RMM:   9    -0.107318324779E+03    0.14648E+02   -0.69777E+01  2000   0.298E+01    0.707E+00
RMM:  10    -0.107047246839E+03    0.27108E+00   -0.62783E-01  2006   0.311E+00    0.459E+00
RMM:  11    -0.106967867420E+03    0.79379E-01   -0.57974E-01  2000   0.457E+00    0.100E+00
RMM:  12    -0.106943287307E+03    0.24580E-01   -0.69255E-02  2004   0.942E-01    0.379E-01
RMM:  13    -0.106948056631E+03   -0.47693E-02   -0.82113E-02  2000   0.102E+00    0.459E-01
RMM:  14    -0.106942806281E+03    0.52503E-02   -0.22993E-02  2004   0.567E-01    0.277E-02
RMM:  15    -0.106942816553E+03   -0.10272E-04   -0.30701E-04  1820   0.628E-02    0.164E-02
RMM:  16    -0.106942824940E+03   -0.83872E-05   -0.48012E-05  1711   0.253E-02
   1 F= -.10694282E+03 E0= -.10694105E+03  d E =-.106943E+03
       N       E                     dE             d eps       ncg     rms          rms(c)
DAV:   1    -0.106964020482E+03   -0.21204E-01   -0.42496E+00  2350   0.987E+00
DAV:   2    -0.106973367327E+03   -0.93468E-02   -0.93467E-02  2350   0.130E+00
DAV:   3    -0.106973412601E+03   -0.45274E-04   -0.45274E-04  2540   0.921E-02
DAV:   4    -0.106973413215E+03   -0.61417E-06   -0.61426E-06  1940   0.102E-02
DAV:   5    -0.106973413291E+03   -0.76230E-07   -0.76530E-07  1580   0.331E-03
DAV:   6    -0.106973413314E+03   -0.22192E-07   -0.22241E-07  1490   0.162E-03
DAV:   7    -0.106973413322E+03   -0.78689E-08   -0.72702E-08  1450   0.894E-04
DAV:   8    -0.106973413324E+03   -0.20082E-08   -0.24610E-08  1420   0.488E-04    0.216E-01
RMM:   9    -0.106967280464E+03    0.61329E-02   -0.67100E-03  1999   0.221E-01    0.109E-01
RMM:  10    -0.106965122938E+03    0.21575E-02   -0.51056E-03  1988   0.191E-01    0.338E-02
RMM:  11    -0.106964942524E+03    0.18041E-03   -0.42674E-04  1830   0.519E-02    0.220E-02
RMM:  12    -0.106964898699E+03    0.43825E-04   -0.99876E-05  1753   0.260E-02    0.777E-03
RMM:  13    -0.106964902067E+03   -0.33677E-05   -0.24285E-05  1366   0.149E-02
   2 F= -.10696490E+03 E0= -.10696313E+03  d E =-.220771E-01
       N       E                     dE             d eps       ncg     rms          rms(c)
DAV:   1    -0.106965207317E+03   -0.30862E-03   -0.82111E-02  2270   0.137E+00
DAV:   2    -0.106965393225E+03   -0.18591E-03   -0.18591E-03  2320   0.179E-01
DAV:   3    -0.106965393958E+03   -0.73374E-06   -0.73382E-06  2030   0.123E-02
DAV:   4    -0.106965394035E+03   -0.76736E-07   -0.76864E-07  1470   0.370E-03
DAV:   5    -0.106965394053E+03   -0.18150E-07   -0.17850E-07  1450   0.167E-03
DAV:   6    -0.106965394058E+03   -0.43219E-08   -0.48298E-08  1450   0.828E-04
DAV:   7    -0.106965394059E+03   -0.17426E-08   -0.14130E-08  1450   0.422E-04
DAV:   8    -0.106965394060E+03   -0.23283E-09   -0.44110E-09  1420   0.226E-04    0.302E-02
RMM:   9    -0.106965272364E+03    0.12170E-03   -0.13036E-04  1761   0.305E-02    0.154E-02
RMM:  10    -0.106965228050E+03    0.44314E-04   -0.11738E-04  1752   0.294E-02    0.457E-03
RMM:  11    -0.106965225765E+03    0.22847E-05   -0.53708E-06  1199   0.684E-03
   3 F= -.10696523E+03 E0= -.10696345E+03  d E =-.224008E-01
       N       E                     dE             d eps       ncg     rms          rms(c)
DAV:   1    -0.106966248622E+03   -0.10206E-02   -0.22158E-01  2100   0.236E+00
DAV:   2    -0.106966736204E+03   -0.48758E-03   -0.48758E-03  2380   0.313E-01
DAV:   3    -0.106966737888E+03   -0.16837E-05   -0.16839E-05  1940   0.193E-02
DAV:   4    -0.106966737999E+03   -0.11131E-06   -0.11085E-06  1530   0.483E-03
DAV:   5    -0.106966738021E+03   -0.21537E-07   -0.21935E-07  1450   0.192E-03
DAV:   6    -0.106966738027E+03   -0.59044E-08   -0.55521E-08  1360   0.904E-04
DAV:   7    -0.106966738028E+03   -0.14188E-08   -0.15503E-08  1330   0.455E-04
DAV:   8    -0.106966738029E+03   -0.42928E-09   -0.46607E-09  1300   0.238E-04    0.450E-02
RMM:   9    -0.106966581668E+03    0.15636E-03   -0.22204E-04  1853   0.445E-02    0.208E-02
RMM:  10    -0.106966530958E+03    0.50710E-04   -0.14234E-04  1795   0.332E-02    0.820E-03
RMM:  11    -0.106966525715E+03    0.52430E-05   -0.15007E-05  1295   0.117E-02
   4 F= -.10696653E+03 E0= -.10696475E+03  d E =-.129995E-02
       N       E                     dE             d eps       ncg     rms          rms(c)
DAV:   1    -0.106966589233E+03   -0.58275E-04   -0.45208E-02  2280   0.107E+00
DAV:   2    -0.106966699079E+03   -0.10985E-03   -0.10985E-03  2360   0.148E-01
DAV:   3    -0.106966699424E+03   -0.34545E-06   -0.34528E-06  1860   0.899E-03
DAV:   4    -0.106966699461E+03   -0.36769E-07   -0.37029E-07  1450   0.260E-03
DAV:   5    -0.106966699469E+03   -0.85938E-08   -0.83836E-08  1430   0.112E-03
DAV:   6    -0.106966699472E+03   -0.22083E-08   -0.22388E-08  1420   0.538E-04
DAV:   7    -0.106966699472E+03   -0.44020E-09   -0.65090E-09  1310   0.274E-04
DAV:   8    -0.106966699472E+03   -0.32287E-09   -0.20143E-09  1250   0.146E-04    0.208E-02
RMM:   9    -0.106966665539E+03    0.33934E-04   -0.46309E-05  1645   0.204E-02    0.983E-03
RMM:  10    -0.106966653993E+03    0.11546E-04   -0.31615E-05  1521   0.161E-02    0.380E-03
RMM:  11    -0.106966652877E+03    0.11160E-05   -0.37478E-06  1168   0.613E-03
   5 F= -.10696665E+03 E0= -.10696488E+03  d E =-.142711E-02
       N       E                     dE             d eps       ncg     rms          rms(c)
DAV:   1    -0.106966940876E+03   -0.28688E-03   -0.11964E-01  2120   0.174E+00
DAV:   2    -0.106967189907E+03   -0.24903E-03   -0.24903E-03  2370   0.232E-01
DAV:   3    -0.106967190670E+03   -0.76284E-06   -0.76314E-06  1960   0.133E-02
DAV:   4    -0.106967190736E+03   -0.65897E-07   -0.65526E-07  1440   0.352E-03
DAV:   5    -0.106967190750E+03   -0.14258E-07   -0.14497E-07  1380   0.148E-03
DAV:   6    -0.106967190754E+03   -0.41509E-08   -0.38350E-08  1330   0.705E-04
DAV:   7    -0.106967190756E+03   -0.11169E-08   -0.11022E-08  1320   0.358E-04
DAV:   8    -0.106967190756E+03   -0.17462E-09   -0.33715E-09  1280   0.191E-04    0.311E-02
RMM:   9    -0.106967129969E+03    0.60787E-04   -0.90389E-05  1804   0.292E-02    0.154E-02
RMM:  10    -0.106967112687E+03    0.17282E-04   -0.67666E-05  1774   0.249E-02    0.475E-03
RMM:  11    -0.106967112016E+03    0.67164E-06   -0.38840E-06  1218   0.656E-03
   6 F= -.10696711E+03 E0= -.10696534E+03  d E =-.459139E-03
       N       E                     dE             d eps       ncg     rms          rms(c)
DAV:   1    -0.106967121827E+03   -0.91395E-05   -0.30200E-02  2210   0.874E-01
DAV:   2    -0.106967185886E+03   -0.64059E-04   -0.64059E-04  2400   0.117E-01
DAV:   3    -0.106967186072E+03   -0.18626E-06   -0.18637E-06  1610   0.676E-03
DAV:   4    -0.106967186097E+03   -0.25126E-07   -0.24925E-07  1410   0.210E-03
DAV:   5    -0.106967186103E+03   -0.60427E-08   -0.59910E-08  1340   0.921E-04
DAV:   6    -0.106967186105E+03   -0.13533E-08   -0.16510E-08  1240   0.453E-04
DAV:   7    -0.106967186105E+03   -0.49477E-09   -0.48783E-09  1210   0.233E-04
DAV:   8    -0.106967186105E+03   -0.33106E-09   -0.15324E-09  1210   0.126E-04    0.158E-02
RMM:   9    -0.106967170290E+03    0.15815E-04   -0.21794E-05  1289   0.147E-02    0.786E-03
RMM:  10    -0.106967165687E+03    0.46034E-05   -0.19346E-05  1260   0.139E-02
   7 F= -.10696717E+03 E0= -.10696540E+03  d E =-.512810E-03
       N       E                     dE             d eps       ncg     rms          rms(c)
DAV:   1    -0.106967251933E+03   -0.81643E-04   -0.61634E-02  2010   0.125E+00
DAV:   2    -0.106967370814E+03   -0.11888E-03   -0.11888E-03  2380   0.161E-01
DAV:   3    -0.106967371240E+03   -0.42647E-06   -0.42708E-06  1640   0.992E-03
DAV:   4    -0.106967371291E+03   -0.51235E-07   -0.50928E-07  1420   0.298E-03
DAV:   5    -0.106967371304E+03   -0.12114E-07   -0.12431E-07  1340   0.131E-03
DAV:   6    -0.106967371308E+03   -0.39909E-08   -0.34957E-08  1270   0.649E-04
DAV:   7    -0.106967371309E+03   -0.98589E-09   -0.10508E-08  1270   0.335E-04
DAV:   8    -0.106967371309E+03   -0.27649E-09   -0.33446E-09  1240   0.183E-04    0.216E-02
RMM:   9    -0.106967345487E+03    0.25822E-04   -0.38293E-05  1635   0.196E-02    0.106E-02
RMM:  10    -0.106967338896E+03    0.65906E-05   -0.33566E-05  1581   0.181E-02
   8 F= -.10696734E+03 E0= -.10696557E+03  d E =-.173209E-03
       N       E                     dE             d eps       ncg     rms          rms(c)
DAV:   1    -0.106967213781E+03    0.13171E-03   -0.14384E-01  2000   0.191E+00
DAV:   2    -0.106967489129E+03   -0.27535E-03   -0.27535E-03  2420   0.246E-01
DAV:   3    -0.106967490070E+03   -0.94143E-06   -0.94137E-06  1840   0.145E-02
DAV:   4    -0.106967490145E+03   -0.74906E-07   -0.74978E-07  1450   0.384E-03
DAV:   5    -0.106967490161E+03   -0.16262E-07   -0.16354E-07  1420   0.160E-03
DAV:   6    -0.106967490166E+03   -0.48167E-08   -0.43604E-08  1270   0.766E-04
DAV:   7    -0.106967490167E+03   -0.80399E-09   -0.12683E-08  1260   0.393E-04
DAV:   8    -0.106967490167E+03   -0.61118E-09   -0.39464E-09  1240   0.210E-04    0.320E-02
RMM:   9    -0.106967432056E+03    0.58112E-04   -0.87169E-05  1800   0.293E-02    0.157E-02
RMM:  10    -0.106967416919E+03    0.15137E-04   -0.76388E-05  1820   0.268E-02    0.377E-03
RMM:  11    -0.106967416976E+03   -0.57204E-07   -0.19312E-06  1206   0.500E-03
   9 F= -.10696742E+03 E0= -.10696565E+03  d E =-.251289E-03
       N       E                     dE             d eps       ncg     rms          rms(c)
DAV:   1    -0.106967420767E+03   -0.38486E-05   -0.58993E-02  2000   0.121E+00
DAV:   2    -0.106967532760E+03   -0.11199E-03   -0.11199E-03  2390   0.157E-01
DAV:   3    -0.106967533251E+03   -0.49142E-06   -0.49109E-06  1610   0.104E-02
DAV:   4    -0.106967533311E+03   -0.59921E-07   -0.59962E-07  1450   0.310E-03
DAV:   5    -0.106967533326E+03   -0.14756E-07   -0.14719E-07  1340   0.135E-03
DAV:   6    -0.106967533330E+03   -0.38817E-08   -0.40583E-08  1330   0.659E-04
DAV:   7    -0.106967533331E+03   -0.10414E-08   -0.11815E-08  1290   0.331E-04
DAV:   8    -0.106967533331E+03   -0.59208E-09   -0.36256E-09  1250   0.178E-04    0.206E-02
RMM:   9    -0.106967512980E+03    0.20352E-04   -0.22668E-05  1343   0.163E-02    0.110E-02
RMM:  10    -0.106967506317E+03    0.66628E-05   -0.29493E-05  1489   0.181E-02
  10 F= -.10696751E+03 E0= -.10696574E+03  d E =-.893411E-04
       N       E                     dE             d eps       ncg     rms          rms(c)
DAV:   1    -0.106967496938E+03    0.16042E-04   -0.43351E-03  2310   0.329E-01
DAV:   2    -0.106967505259E+03   -0.83207E-05   -0.83206E-05  2400   0.428E-02
DAV:   3    -0.106967505291E+03   -0.32669E-07   -0.32301E-07  1490   0.273E-03
DAV:   4    -0.106967505296E+03   -0.49258E-08   -0.48927E-08  1400   0.877E-04
DAV:   5    -0.106967505297E+03   -0.10477E-08   -0.12404E-08  1300   0.389E-04
DAV:   6    -0.106967505298E+03   -0.24738E-09   -0.34945E-09  1270   0.193E-04
DAV:   7    -0.106967505298E+03   -0.61846E-10   -0.10416E-09  1220   0.983E-05
DAV:   8    -0.106967505298E+03   -0.94587E-10   -0.32857E-10  1190   0.537E-05    0.570E-03
RMM:   9    -0.106967503807E+03    0.14909E-05   -0.14567E-06   851   0.446E-03
  11 F= -.10696750E+03 E0= -.10696573E+03  d E =-.868311E-04
       N       E                     dE             d eps       ncg     rms          rms(c)
DAV:   1    -0.106967468308E+03    0.36990E-04   -0.38635E-02  2000   0.988E-01
DAV:   2    -0.106967545187E+03   -0.76879E-04   -0.76879E-04  2440   0.130E-01
DAV:   3    -0.106967545457E+03   -0.27004E-06   -0.26996E-06  1490   0.782E-03
DAV:   4    -0.106967545493E+03   -0.36150E-07   -0.36181E-07  1420   0.245E-03
DAV:   5    -0.106967545502E+03   -0.90486E-08   -0.88554E-08  1300   0.108E-03
DAV:   6    -0.106967545505E+03   -0.24011E-08   -0.24556E-08  1240   0.531E-04
DAV:   7    -0.106967545505E+03   -0.65938E-09   -0.72256E-09  1230   0.270E-04
DAV:   8    -0.106967545505E+03    0.20009E-09   -0.22389E-09  1170   0.146E-04    0.173E-02
RMM:   9    -0.106967531884E+03    0.13621E-04   -0.17457E-05  1213   0.142E-02    0.922E-03
RMM:  10    -0.106967528426E+03    0.34585E-05   -0.17786E-05  1232   0.149E-02
  12 F= -.10696753E+03 E0= -.10696576E+03  d E =-.246191E-04
       N       E                     dE             d eps       ncg     rms          rms(c)
DAV:   1    -0.106967534236E+03   -0.23520E-05   -0.27762E-03  2180   0.264E-01
DAV:   2    -0.106967539710E+03   -0.54732E-05   -0.54732E-05  2310   0.348E-02
DAV:   3    -0.106967539737E+03   -0.27416E-07   -0.27303E-07  1340   0.239E-03
DAV:   4    -0.106967539741E+03   -0.42701E-08   -0.44539E-08  1200   0.783E-04
DAV:   5    -0.106967539743E+03   -0.11141E-08   -0.11496E-08  1170   0.356E-04
DAV:   6    -0.106967539743E+03   -0.46475E-09   -0.33125E-09  1150   0.178E-04
DAV:   7    -0.106967539743E+03   -0.40018E-10   -0.10199E-09  1150   0.925E-05
DAV:   8    -0.106967539743E+03   -0.35743E-09   -0.33419E-10  1120   0.506E-05    0.466E-03
RMM:   9    -0.106967538504E+03    0.12398E-05   -0.15849E-06   808   0.422E-03
  13 F= -.10696754E+03 E0= -.10696577E+03  d E =-.346967E-04
