 vasp.5.4.4.18Apr17-6-g9f103f2a35 (build Nov 15 2019 10:10:58) complex          
  
 executed on             LinuxIFC date 2024.07.29  10:40:06
 running on   20 total cores
 distrk:  each k-point on   20 cores,    1 groups
 distr:  one band on NCORES_PER_BAND=   4 cores,    5 groups


--------------------------------------------------------------------------------------------------------


 INCAR:
 POTCAR:    PAW_PBE O 08Apr2002                   
 POTCAR:    PAW_PBE Mg 13Apr2007                  
 POTCAR:    PAW_PBE O 08Apr2002                   
   VRHFIN =O: s2p4                                                              
   LEXCH  = PE                                                                  
   EATOM  =   432.3788 eV,   31.7789 Ry                                         
                                                                                
   TITEL  = PAW_PBE O 08Apr2002                                                 
   LULTRA =        F    use ultrasoft PP ?                                      
   IUNSCR =        1    unscreen: 0-lin 1-nonlin 2-no                           
   RPACOR =    1.200    partial core radius                                     
   POMASS =   16.000; ZVAL   =    6.000    mass and valenz                      
   RCORE  =    1.520    outmost cutoff radius                                   
   RWIGS  =    1.550; RWIGS  =    0.820    wigner-seitz radius (au A)           
   ENMAX  =  400.000; ENMIN  =  300.000 eV                                      
   ICORE  =        2    local potential                                         
   LCOR   =        T    correct aug charges                                     
   LPAW   =        T    paw PP                                                  
   EAUG   =  605.392                                                            
   DEXC   =    0.000                                                            
   RMAX   =    1.553    core radius for proj-oper                               
   RAUG   =    1.300    factor for augmentation sphere                          
   RDEP   =    1.550    radius for radial grids                                 
   RDEPT  =    1.329    core radius for aug-charge                              
                                                                                
   Atomic configuration                                                         
    4 entries                                                                   
     n  l   j            E        occ.                                          
     1  0  0.50      -514.6923   2.0000                                         
     2  0  0.50       -23.9615   2.0000                                         
     2  1  0.50        -9.0305   4.0000                                         
     3  2  1.50        -9.5241   0.0000                                         
   Description                                                                  
     l       E           TYP  RCUT    TYP  RCUT                                 
     0    -23.9615318     23  1.200                                             
     0     -9.5240782     23  1.200                                             
     1     -9.0304911     23  1.520                                             
     1      8.1634956     23  1.520                                             
     2     -9.5240782      7  1.500                                             
  local pseudopotential read in
  partial core-charges read in
  partial kinetic energy density read in
  kinetic energy density of atom read in
  atomic valenz-charges read in
  non local Contribution for L=           0  read in
    real space projection operators read in
  non local Contribution for L=           0  read in
    real space projection operators read in
  non local Contribution for L=           1  read in
    real space projection operators read in
  non local Contribution for L=           1  read in
    real space projection operators read in
    PAW grid and wavefunctions read in
 
   number of l-projection  operators is LMAX  =           4
   number of lm-projection operators is LMMAX =           8
 
 POTCAR:    PAW_PBE Mg 13Apr2007                  
   VRHFIN =Mg: s2p0                                                             
   LEXCH  = PE                                                                  
   EATOM  =    23.0369 eV,    1.6932 Ry                                         
                                                                                
   TITEL  = PAW_PBE Mg 13Apr2007                                                
   LULTRA =        F    use ultrasoft PP ?                                      
   IUNSCR =        1    unscreen: 0-lin 1-nonlin 2-no                           
   RPACOR =    1.500    partial core radius                                     
   POMASS =   24.305; ZVAL   =    2.000    mass and valenz                      
   RCORE  =    2.000    outmost cutoff radius                                   
   RWIGS  =    2.880; RWIGS  =    1.524    wigner-seitz radius (au A)           
   ENMAX  =  200.000; ENMIN  =  100.000 eV                                      
   RCLOC  =    1.506    cutoff for local pot                                    
   LCOR   =        T    correct aug charges                                     
   LPAW   =        T    paw PP                                                  
   EAUG   =  454.734                                                            
   DEXC   =    0.000                                                            
   RMAX   =    2.045    core radius for proj-oper                               
   RAUG   =    1.300    factor for augmentation sphere                          
   RDEP   =    2.025    radius for radial grids                                 
   RDEPT  =    1.942    core radius for aug-charge                              
                                                                                
   Atomic configuration                                                         
    6 entries                                                                   
     n  l   j            E        occ.                                          
     1  0  0.50     -1259.6230   2.0000                                         
     2  0  0.50       -79.8442   2.0000                                         
     2  1  1.50       -46.6121   6.0000                                         
     3  0  0.50        -4.7055   2.0000                                         
     3  1  0.50        -1.3660   0.0000                                         
     3  2  1.50        -1.3606   0.0000                                         
   Description                                                                  
     l       E           TYP  RCUT    TYP  RCUT                                 
     0     -4.7054661     23  2.000                                             
     0     27.2116520     23  2.000                                             
     1      1.3605826     23  2.000                                             
     1     27.2116520     23  2.000                                             
     2     -1.3605826     23  2.000                                             
  local pseudopotential read in
  partial core-charges read in
  partial kinetic energy density read in
  atomic valenz-charges read in
  non local Contribution for L=           0  read in
    real space projection operators read in
  non local Contribution for L=           0  read in
    real space projection operators read in
  non local Contribution for L=           1  read in
    real space projection operators read in
  non local Contribution for L=           1  read in
    real space projection operators read in
  non local Contribution for L=           2  read in
    real space projection operators read in
    PAW grid and wavefunctions read in
 
   number of l-projection  operators is LMAX  =           5
   number of lm-projection operators is LMMAX =          13
 
 Optimization of the real space projectors (new method)

 maximal supplied QI-value         = 24.76
 optimisation between [QCUT,QGAM] = [ 11.64, 28.96] = [ 37.91,234.92] Ry 
 Optimized for a Real-space Cutoff    0.91 Angstroem

   l    n(q)    QCUT    max X(q) W(low)/X(q) W(high)/X(q)  e(spline) 
   0      8    11.635    20.381    0.20E-03    0.22E-03    0.69E-07
   0      8    11.635    15.268    0.22E-03    0.24E-03    0.73E-07
   1      7    11.635     5.964    0.40E-03    0.67E-03    0.12E-06
   1      7    11.635     5.382    0.33E-03    0.56E-03    0.11E-06
 Optimization of the real space projectors (new method)

 maximal supplied QI-value         = 18.90
 optimisation between [QCUT,QGAM] = [ 11.53, 29.10] = [ 37.21,237.16] Ry 
 Optimized for a Real-space Cutoff    1.12 Angstroem

   l    n(q)    QCUT    max X(q) W(low)/X(q) W(high)/X(q)  e(spline) 
   0     10    11.527    28.265    0.21E-03    0.84E-05    0.64E-06
   0     10    11.527    10.429    0.17E-03    0.65E-05    0.50E-06
   1      9    11.527    13.073    0.75E-04    0.28E-03    0.46E-06
   1      9    11.527     9.625    0.62E-04    0.23E-03    0.39E-06
   2      9    11.527     4.652    0.39E-03    0.81E-04    0.28E-06
  PAW_PBE O 08Apr2002                   :
 energy of atom  1       EATOM= -432.3788
 kinetic energy error for atom=    0.0208 (will be added to EATOM!!)
  PAW_PBE Mg 13Apr2007                  :
 energy of atom  2       EATOM=  -23.0369
 kinetic energy error for atom=    0.0000 (will be added to EATOM!!)
 
 
 POSCAR: MgO(1 1 1 (2)                           
  positions in direct lattice
  No initial velocities read in
 exchange correlation table for  LEXCH =        8
   RHO(1)=    0.500       N(1)  =     2000
   RHO(2)=  100.500       N(2)  =     4000

 VTST: version 3.2, (02/03/18)

 CHAIN: initializing optimizer
 
 OPT: Using VASP Conjugate-Gradient optimizer
 CHAIN: Read ICHAIN            0
 
 POSCAR: MgO(1 1 1 (2)                           
  positions in direct lattice
  No initial velocities read in
 


--------------------------------------------------------------------------------------------------------


 ion  position               nearest neighbor table
   1  0.000  0.000  0.126-  17 2.12  14 2.12  17 2.12  17 2.12  14 2.12  14 2.12
   2  0.333  0.667  0.192-  11 2.12  11 2.12  11 2.12  14 2.12  14 2.12  14 2.12
   3  0.000  0.000  0.325-  15 2.12  18 2.12  15 2.12  15 2.12  18 2.12  18 2.12
   4  0.333  0.667  0.391-  15 2.12  15 2.12  15 2.12  12 2.12  12 2.12  12 2.12
   5  0.000  0.000  0.523-  16 2.12  16 2.12  16 2.12  19 2.12  19 2.12  19 2.12
   6  0.333  0.667  0.589-  13 2.12  16 2.12  16 2.12  13 2.12  13 2.12  16 2.12
   7  0.667  0.333  0.060-  17 2.12  17 2.12  17 2.12  10 2.12  10 2.12  10 2.12
   8  0.667  0.333  0.259-  11 2.12  11 2.12  11 2.12  18 2.12  18 2.12  18 2.12
   9  0.667  0.333  0.457-  12 2.12  19 2.12  19 2.12  12 2.12  12 2.12  19 2.12
  10  0.000  0.000  0.027-   7 2.12   7 2.12   7 2.12  17 3.00  17 3.00  17 3.00
  11  0.000  0.000  0.225-   2 2.12   8 2.12   2 2.12   2 2.12   8 2.12   8 2.12  14 3.00  18 3.00
                            14 3.00  14 3.00  18 3.00  18 3.00
  12  0.000  0.000  0.424-   9 2.12   9 2.12   9 2.12   4 2.12   4 2.12   4 2.12  19 3.00  19 3.00
                            19 3.00  15 3.00  15 3.00  15 3.00
  13  0.000  0.000  0.622-   6 2.12   6 2.12   6 2.12  16 3.00  16 3.00  16 3.00
  14  0.667  0.333  0.159-   1 2.12   1 2.12   1 2.12   2 2.12   2 2.12   2 2.12  17 3.00  17 3.00
                            17 3.00  11 3.00  11 3.00  11 3.00
  15  0.667  0.333  0.358-   3 2.12   4 2.12   4 2.12   3 2.12   3 2.12   4 2.12  18 3.00  18 3.00
                            18 3.00  12 3.00  12 3.00  12 3.00
  16  0.667  0.333  0.556-   5 2.12   6 2.12   6 2.12   5 2.12   5 2.12   6 2.12  13 3.00  13 3.00
                            13 3.00  19 3.00  19 3.00  19 3.00
  17  0.333  0.667  0.093-   1 2.12   7 2.12   7 2.12   1 2.12   1 2.12   7 2.12  14 3.00  14 3.00
                            14 3.00  10 3.00  10 3.00  10 3.00
  18  0.333  0.667  0.292-   3 2.12   3 2.12   3 2.12   8 2.12   8 2.12   8 2.12  15 3.00  15 3.00
                            15 3.00  11 3.00  11 3.00  11 3.00
  19  0.333  0.667  0.490-   9 2.12   9 2.12   9 2.12   5 2.12   5 2.12   5 2.12  12 3.00  12 3.00
                            12 3.00  16 3.00  16 3.00  16 3.00
 
  LATTYP: Found a hexagonal cell.
 ALAT       =     3.0044062036
 C/A-ratio  =    12.3411345745
  
  Lattice vectors:
  
 A1 = (   2.1244360000,  -2.1244360000,   0.0000000000)
 A2 = (   0.0000000000,   2.1244360000,  -2.1244360000)
 A3 = (  21.4068670000,  21.4068670000,  21.4068670000)


Analysis of symmetry for initial positions (statically):
=====================================================================
 Subroutine PRICEL returns:
 Original cell was already a primitive cell.
 

 Routine SETGRP: Setting up the symmetry group for a 
 hexagonal supercell.


 Subroutine GETGRP returns: Found 12 space group operations
 (whereof  6 operations were pure point group operations)
 out of a pool of 24 trial point group operations.


The static configuration has the point symmetry C_3v.
 The point group associated with its full space group is D_3d.


Analysis of symmetry for dynamics (positions and initial velocities):
=====================================================================
 Subroutine PRICEL returns:
 Original cell was already a primitive cell.
 

 Routine SETGRP: Setting up the symmetry group for a 
 hexagonal supercell.


 Subroutine GETGRP returns: Found 12 space group operations
 (whereof  6 operations were pure point group operations)
 out of a pool of 24 trial point group operations.


The dynamic configuration has the point symmetry C_3v.
 The point group associated with its full space group is D_3d.


Analysis of constrained symmetry for selective dynamics:
=====================================================================
 Subroutine PRICEL returns:
 Original cell was already a primitive cell.
 

 Routine SETGRP: Setting up the symmetry group for a 
 hexagonal supercell.


 Subroutine GETGRP returns: Found 12 space group operations
 (whereof  6 operations were pure point group operations)
 out of a pool of 24 trial point group operations.


The constrained configuration has the point symmetry C_3v.
 The point group associated with its full space group is D_3d.


 Subroutine INISYM returns: Found 12 space group operations
 (whereof  6 operations are pure point group operations),
 and found     1 'primitive' translations

 
 
 KPOINTS: K-Spacing Value to Generate K-Mesh: 0.02

Automatic generation of k-mesh.
Space group operators:
 irot       det(A)        alpha          n_x          n_y          n_z        tau_x        tau_y        tau_z
    1     1.000000     0.000000     1.000000     0.000000     0.000000     0.000000     0.000000     0.000000
    2     1.000000   120.000000    -0.577350    -0.577350    -0.577350     0.000000     0.000000     0.000000
    3     1.000000   120.000000     0.577350     0.577350     0.577350     0.000000     0.000000     0.000000
    4    -1.000000   180.000000     0.707107    -0.707107    -0.000000     0.000000     0.000000     0.000000
    5    -1.000000   180.000000    -0.000000    -0.707107     0.707107     0.000000     0.000000     0.000000
    6    -1.000000   180.000000     0.707107     0.000000    -0.707107     0.000000     0.000000     0.000000
    7    -1.000000     0.000000     1.000000     0.000000     0.000000     0.000000     0.000000     0.649385
    8    -1.000000   120.000000    -0.577350    -0.577350    -0.577350     0.000000     0.000000     0.649385
    9    -1.000000   120.000000     0.577350     0.577350     0.577350     0.000001     0.000000     0.649385
   10     1.000000   180.000000     0.707107    -0.707107    -0.000000     0.000001     0.000000     0.649385
   11     1.000000   180.000000    -0.000000    -0.707107     0.707107     0.000000     0.000000     0.649385
   12     1.000000   180.000000     0.707107     0.000000    -0.707107     0.000000     0.000000     0.649385
 
 Subroutine IBZKPT returns following result:
 ===========================================
 
 Found     20 irreducible k-points:
 
 Following reciprocal coordinates:
            Coordinates               Weight
  0.062500  0.062500  0.000000     48.000000
  0.187500  0.062500 -0.000000     96.000000
  0.312500  0.062500  0.000000     96.000000
  0.437500  0.062500 -0.000000     96.000000
 -0.437500  0.062500  0.000000     96.000000
 -0.312500  0.062500  0.000000     96.000000
 -0.187500  0.062500 -0.000000     96.000000
 -0.062500  0.062500 -0.000000     48.000000
  0.187500  0.187500  0.000000     48.000000
  0.312500  0.187500  0.000000     96.000000
  0.437500  0.187500  0.000000     96.000000
 -0.437500  0.187500 -0.000000     96.000000
 -0.312500  0.187500  0.000000     96.000000
 -0.187500  0.187500  0.000000     48.000000
  0.312500  0.312500  0.000000     48.000000
  0.437500  0.312500  0.000000     96.000000
 -0.437500  0.312500 -0.000000     96.000000
 -0.312500  0.312500  0.000000     48.000000
  0.437500  0.437500  0.000000     48.000000
 -0.437500  0.437500  0.000000     48.000000
 
 Following cartesian coordinates:
            Coordinates               Weight
  0.029420  0.000000 -0.029420     48.000000
  0.068646 -0.019613 -0.049033     96.000000
  0.107872 -0.039226 -0.068646     96.000000
  0.147098 -0.058839 -0.088259     96.000000
 -0.127485  0.078452  0.049033     96.000000
 -0.088259  0.058839  0.029420     96.000000
 -0.049033  0.039226  0.009807     96.000000
 -0.009807  0.019613 -0.009807     48.000000
  0.088259  0.000000 -0.088259     48.000000
  0.127485 -0.019613 -0.107872     96.000000
  0.166711 -0.039226 -0.127485     96.000000
 -0.107872  0.098065  0.009807     96.000000
 -0.068646  0.078452 -0.009807     96.000000
 -0.029420  0.058839 -0.029420     48.000000
  0.147098  0.000000 -0.147098     48.000000
  0.186324 -0.019613 -0.166711     96.000000
 -0.088259  0.117678 -0.029420     96.000000
 -0.049033  0.098065 -0.049033     48.000000
  0.205937  0.000000 -0.205937     48.000000
 -0.068646  0.137291 -0.068646     48.000000
 


--------------------------------------------------------------------------------------------------------




 Dimension of arrays:
   k-points           NKPTS =     20   k-points in BZ     NKDIM =     20   number of bands    NBANDS=     50
   number of dos      NEDOS =    301   number of ions     NIONS =     19
   non local maximal  LDIM  =      5   non local SUM 2l+1 LMDIM =     13
   total plane-waves  NPLWV = 161280
   max r-space proj   IRMAX =   3350   max aug-charges    IRDMAX=   7703
   dimension x,y,z NGX =    24 NGY =   24 NGZ =  280
   dimension x,y,z NGXF=    32 NGYF=   32 NGZF=  400
   support grid    NGXF=    32 NGYF=   32 NGZF=  400
   ions per type =               9  10
   NGX,Y,Z   is equivalent  to a cutoff of  13.28, 13.28, 12.55 a.u.
   NGXF,Y,Z  is equivalent  to a cutoff of  17.71, 17.71, 17.93 a.u.

 SYSTEM =  Al110                                   
 POSCAR =  MgO(1 1 1 (2)                           

 Startparameter for this run:
   NWRITE =      2    write-flag & timer
   PREC   = h         normal or accurate (medium, high low for compatibility)
   ISTART =      0    job   : 0-new  1-cont  2-samecut
   ICHARG =      2    charge: 1-file 2-atom 10-const
   ISPIN  =      1    spin polarized calculation?
   LNONCOLLINEAR =      F non collinear calculations
   LSORBIT =      F    spin-orbit coupling
   INIWAV =      1    electr: 0-lowe 1-rand  2-diag
   LASPH  =      F    aspherical Exc in radial PAW
   METAGGA=      F    non-selfconsistent MetaGGA calc.

 Electronic Relaxation 1
   ENCUT  =  520.0 eV  38.22 Ry    6.18 a.u.   5.59  5.59 68.94*2*pi/ulx,y,z
   ENINI  =  520.0     initial cutoff
   ENAUG  =  605.4 eV  augmentation charge cutoff
   NELM   =    100;   NELMIN=  6; NELMDL=  8     # of ELM steps 
   EDIFF  = 0.1E-04   stopping-criterion for ELM
   LREAL  =      T    real-space projection
   NLSPLINE    = F    spline interpolate recip. space projectors
   LCOMPAT=      F    compatible to vasp.4.4
   GGA_COMPAT  = T    GGA compatible to vasp.4.4-vasp.4.6
   LMAXPAW     = -100 max onsite density
   LMAXMIX     =    2 max onsite mixed and CHGCAR
   VOSKOWN=      0    Vosko Wilk Nusair interpolation
   ROPT   =   -0.00040  -0.00040
 Ionic relaxation
   EDIFFG = -.1E-01   stopping-criterion for IOM
   NSW    =    500    number of steps for IOM
   NBLOCK =      1;   KBLOCK =    500    inner block; outer block 
   IBRION =      2    ionic relax: 0-MD 1-quasi-New 2-CG
   NFREE  =      1    steps in history (QN), initial steepest desc. (CG)
   ISIF   =      2    stress and relaxation
   IWAVPR =     11    prediction:  0-non 1-charg 2-wave 3-comb
   ISYM   =      2    0-nonsym 1-usesym 2-fastsym
   LCORR  =      T    Harris-Foulkes like correction to forces

   POTIM  = 0.5000    time-step for ionic-motion
   TEIN   =    0.0    initial temperature
   TEBEG  =    0.0;   TEEND  =   0.0 temperature during run
   SMASS  =  -3.00    Nose mass-parameter (am)
   estimated Nose-frequenzy (Omega)   =  0.10E-29 period in steps =****** mass=  -0.206E-27a.u.
   SCALEE = 1.0000    scale energy and forces
   NPACO  =    256;   APACO  = 16.0  distance and # of slots for P.C.
   PSTRESS=    0.0 pullay stress

  Mass of Ions in am
   POMASS =  16.00 24.30
  Ionic Valenz
   ZVAL   =   6.00  2.00
  Atomic Wigner-Seitz radii
   RWIGS  =  -1.00 -1.00
  virtual crystal weights 
   VCA    =   1.00  1.00
   NELECT =      74.0000    total number of electrons
   NUPDOWN=      -1.0000    fix difference up-down

 DOS related values:
   EMIN   =  10.00;   EMAX   =-10.00  energy-range for DOS
   EFERMI =   0.00
   ISMEAR =     0;   SIGMA  =   0.05  broadening in eV -4-tet -1-fermi 0-gaus

 Electronic relaxation 2 (details)
   IALGO  =     68    algorithm
   LDIAG  =      T    sub-space diagonalisation (order eigenvalues)
   LSUBROT=      F    optimize rotation matrix (better conditioning)
   TURBO    =      0    0=normal 1=particle mesh
   IRESTART =      0    0=no restart 2=restart with 2 vectors
   NREBOOT  =      0    no. of reboots
   NMIN     =      0    reboot dimension
   EREF     =   0.00    reference energy to select bands
   IMIX   =      4    mixing-type and parameters
     AMIX     =   0.40;   BMIX     =  1.00
     AMIX_MAG =   1.60;   BMIX_MAG =  1.00
     AMIN     =   0.10
     WC   =   100.;   INIMIX=   1;  MIXPRE=   1;  MAXMIX= -45

 Intra band minimization:
   WEIMIN = 0.0010     energy-eigenvalue tresh-hold
   EBREAK =  0.50E-07  absolut break condition
   DEPER  =   0.30     relativ break condition  

   TIME   =   0.40     timestep for ELM

  volume/ion in A,a.u.               =      15.25       102.94
  Fermi-wavevector in a.u.,A,eV,Ry     =   1.038560  1.962593 14.675332  1.078606
  Thomas-Fermi vector in A             =   2.173050
 
 Write flags
   LWAVE        =      F    write WAVECAR
   LDOWNSAMPLE  =      F    k-point downsampling of WAVECAR
   LCHARG       =      F    write CHGCAR
   LVTOT        =      F    write LOCPOT, total local potential
   LVHAR        =      F    write LOCPOT, Hartree potential only
   LELF         =      F    write electronic localiz. function (ELF)
   LORBIT       =      0    0 simple, 1 ext, 2 COOP (PROOUT), +10 PAW based schemes


 Dipole corrections
   LMONO  =      F    monopole corrections only (constant potential shift)
   LDIPOL =      F    correct potential (dipole corrections)
   IDIPOL =      0    1-x, 2-y, 3-z, 4-all directions 
   EPSILON=  1.0000000 bulk dielectric constant

 Exchange correlation treatment:
   GGA     =    --    GGA type
   LEXCH   =     8    internal setting for exchange type
   VOSKOWN=      0    Vosko Wilk Nusair interpolation
   LHFCALC =     F    Hartree Fock is set to
   LHFONE  =     F    Hartree Fock one center treatment
   AEXX    =    0.0000 exact exchange contribution

 Linear response parameters
   LEPSILON=     F    determine dielectric tensor
   LRPA    =     F    only Hartree local field effects (RPA)
   LNABLA  =     F    use nabla operator in PAW spheres
   LVEL    =     F    velocity operator in full k-point grid
   LINTERFAST=   F  fast interpolation
   KINTER  =     0    interpolate to denser k-point grid
   CSHIFT  =0.1000    complex shift for real part using Kramers Kronig
   OMEGAMAX=  -1.0    maximum frequency
   DEG_THRESHOLD= 0.2000000E-02 threshold for treating states as degnerate
   RTIME   =   -0.100 relaxation time in fs
  (WPLASMAI=    0.000 imaginary part of plasma frequency in eV, 0.658/RTIME)
   DFIELD  = 0.0000000 0.0000000 0.0000000 field for delta impulse in time
 
 Orbital magnetization related:
   ORBITALMAG=     F  switch on orbital magnetization
   LCHIMAG   =     F  perturbation theory with respect to B field
   DQ        =  0.001000  dq finite difference perturbation B field
   LLRAUG    =     F  two centre corrections for induced B field



--------------------------------------------------------------------------------------------------------


 conjugate gradient relaxation of ions
   using selective dynamics as specified on POSCAR
 charge density and potential will be updated during run
 non-spin polarized calculation
 RMM-DIIS sequential band-by-band and
  variant of blocked Davidson during initial phase
 perform sub-space diagonalisation
    before iterative eigenvector-optimisation
 modified Broyden-mixing scheme, WC =      100.0
 initial mixing is a Kerker type mixing with AMIX =  0.4000 and BMIX =      1.0000
 Hartree-type preconditioning will be used
 using additional bands           13
 real space projection scheme for non local part
 use partial core corrections
 calculate Harris-corrections to forces 
   (improved forces if not selfconsistent)
 use gradient corrections 
 use of overlap-Matrix (Vanderbilt PP)
 Gauss-broadening in eV      SIGMA  =   0.05


--------------------------------------------------------------------------------------------------------


  energy-cutoff  :      520.00
  volume of cell :      289.84
      direct lattice vectors                 reciprocal lattice vectors
     2.124436000 -2.124436000  0.000000000     0.313808779 -0.156904389 -0.156904389
     0.000000000  2.124436000 -2.124436000     0.156904389  0.156904389 -0.313808779
    21.406867000 21.406867000 21.406867000     0.015571327  0.015571327  0.015571327

  length of vectors
     3.004406204  3.004406204 37.077781275     0.384335692  0.384335692  0.026970330


 
 k-points in units of 2pi/SCALE and weight: K-Spacing Value to Generate K-Mesh: 0.02
   0.02941957  0.00000000 -0.02941957       0.031
   0.06864567 -0.01961305 -0.04903262       0.062
   0.10787177 -0.03922610 -0.06864567       0.062
   0.14709787 -0.05883915 -0.08825872       0.062
  -0.12748482  0.07845219  0.04903262       0.062
  -0.08825872  0.05883915  0.02941957       0.062
  -0.04903262  0.03922610  0.00980652       0.062
  -0.00980652  0.01961305 -0.00980652       0.031
   0.08825872  0.00000000 -0.08825872       0.031
   0.12748482 -0.01961305 -0.10787177       0.062
   0.16671091 -0.03922610 -0.12748482       0.062
  -0.10787177  0.09806524  0.00980652       0.062
  -0.06864567  0.07845219 -0.00980652       0.062
  -0.02941957  0.05883915 -0.02941957       0.031
   0.14709787  0.00000000 -0.14709787       0.031
   0.18632396 -0.01961305 -0.16671091       0.062
  -0.08825872  0.11767829 -0.02941957       0.062
  -0.04903262  0.09806524 -0.04903262       0.031
   0.20593701  0.00000000 -0.20593701       0.031
  -0.06864567  0.13729134 -0.06864567       0.031
 
 k-points in reciprocal lattice and weights: K-Spacing Value to Generate K-Mesh: 0.02
   0.06250000  0.06250000  0.00000000       0.031
   0.18750000  0.06250000 -0.00000000       0.062
   0.31250000  0.06250000  0.00000000       0.062
   0.43750000  0.06250000 -0.00000000       0.062
  -0.43750000  0.06250000  0.00000000       0.062
  -0.31250000  0.06250000  0.00000000       0.062
  -0.18750000  0.06250000 -0.00000000       0.062
  -0.06250000  0.06250000 -0.00000000       0.031
   0.18750000  0.18750000  0.00000000       0.031
   0.31250000  0.18750000  0.00000000       0.062
   0.43750000  0.18750000  0.00000000       0.062
  -0.43750000  0.18750000 -0.00000000       0.062
  -0.31250000  0.18750000  0.00000000       0.062
  -0.18750000  0.18750000  0.00000000       0.031
   0.31250000  0.31250000  0.00000000       0.031
   0.43750000  0.31250000  0.00000000       0.062
  -0.43750000  0.31250000 -0.00000000       0.062
  -0.31250000  0.31250000  0.00000000       0.031
   0.43750000  0.43750000  0.00000000       0.031
  -0.43750000  0.43750000  0.00000000       0.031
 
 position of ions in fractional coordinates (direct lattice) 
   0.00000000  0.00000000  0.12621100
   0.33333300  0.66666700  0.19237200
   0.00000000  0.00000000  0.32469300
   0.33333300  0.66666700  0.39085300
   0.00000000  0.00000000  0.52317500
   0.33333300  0.66666700  0.58933500
   0.66666700  0.33333300  0.06005100
   0.66666700  0.33333300  0.25853200
   0.66666700  0.33333300  0.45701400
   0.00000000  0.00000000  0.02697000
   0.00000000  0.00000000  0.22545200
   0.00000000  0.00000000  0.42393400
   0.00000000  0.00000000  0.62241500
   0.66666700  0.33333300  0.15929100
   0.66666700  0.33333300  0.35777300
   0.66666700  0.33333300  0.55625500
   0.33333300  0.66666700  0.09313100
   0.33333300  0.66666700  0.29161300
   0.33333300  0.66666700  0.49009400
 
 position of ions in cartesian coordinates  (Angst):
   2.70178209  2.70178209  2.70178209
   4.82622644  4.82622857  2.70179044
   6.95065987  6.95065987  6.95065987
   9.07508281  9.07508494  6.95064681
  11.19953764 11.19953764 11.19953764
  13.32396059 13.32396271 11.19952459
   2.70179515  0.57735702  0.57735915
   6.95065151  4.82621339  4.82621551
  11.19952929  9.07509117  9.07509329
   0.57734320  0.57734320  0.57734320
   4.82622098  4.82622098  4.82622098
   9.07509875  9.07509875  9.07509875
  13.32395512 13.32395512 13.32395512
   4.82621263  2.70177450  2.70177663
   9.07509040  6.95065228  6.95065440
  13.32396818 11.19953005 11.19953218
   2.70178756  2.70178968  0.57735156
   6.95066533  6.95066746  4.82622933
  11.19952170 11.19952383  9.07508570
 


--------------------------------------------------------------------------------------------------------


 k-point  1 :   0.0625 0.0625 0.0000  plane waves:    7893
 k-point  2 :   0.1875 0.0625-0.0000  plane waves:    7842
 k-point  3 :   0.3125 0.0625 0.0000  plane waves:    7784
 k-point  4 :   0.4375 0.0625-0.0000  plane waves:    7763
 k-point  5 :  -0.4375 0.0625 0.0000  plane waves:    7771
 k-point  6 :  -0.3125 0.0625 0.0000  plane waves:    7819
 k-point  7 :  -0.1875 0.0625-0.0000  plane waves:    7861
 k-point  8 :  -0.0625 0.0625-0.0000  plane waves:    7903
 k-point  9 :   0.1875 0.1875 0.0000  plane waves:    7811
 k-point 10 :   0.3125 0.1875 0.0000  plane waves:    7788
 k-point 11 :   0.4375 0.1875 0.0000  plane waves:    7755
 k-point 12 :  -0.4375 0.1875-0.0000  plane waves:    7798
 k-point 13 :  -0.3125 0.1875 0.0000  plane waves:    7832
 k-point 14 :  -0.1875 0.1875 0.0000  plane waves:    7864
 k-point 15 :   0.3125 0.3125 0.0000  plane waves:    7792
 k-point 16 :   0.4375 0.3125 0.0000  plane waves:    7770
 k-point 17 :  -0.4375 0.3125-0.0000  plane waves:    7791
 k-point 18 :  -0.3125 0.3125 0.0000  plane waves:    7802
 k-point 19 :   0.4375 0.4375 0.0000  plane waves:    7742
 k-point 20 :  -0.4375 0.4375 0.0000  plane waves:    7786

 maximum and minimum number of plane-waves per node :      1994     1924

 maximum number of plane-waves:      7903
 maximum index in each direction: 
   IXMAX=    6   IYMAX=    5   IZMAX=   68
   IXMIN=   -6   IYMIN=   -6   IZMIN=  -68


 real space projection operators:
  total allocation   :       4214.33 KBytes
  max/ min on nodes  :       1064.12       1036.92


 parallel 3D FFT for wavefunctions:
    minimum data exchange during FFTs selected (reduces bandwidth)
 parallel 3D FFT for charge:
    minimum data exchange during FFTs selected (reduces bandwidth)


 total amount of memory used by VASP MPI-rank0    44144. kBytes
=======================================================================

   base      :      30000. kBytes
   nonlr-proj:       2381. kBytes
   fftplans  :       2110. kBytes
   grid      :       3053. kBytes
   one-center:         40. kBytes
   wavefun   :       6560. kBytes
 
     INWAV:  cpu time    0.0000: real time    0.0001
 Broyden mixing: mesh for mixing (old mesh)
   NGX = 11   NGY = 11   NGZ =137
  (NGX  = 32   NGY  = 32   NGZ  =400)
  gives a total of  16577 points

 initial charge density was supplied:
 charge density of overlapping atoms calculated
 number of electron      74.0000000 magnetization 
 keeping initial charge density in first step


--------------------------------------------------------------------------------------------------------


 Maximum index for non-local projection operator          825
 Maximum index for augmentation-charges          557 (set IRDMAX)


--------------------------------------------------------------------------------------------------------


 First call to EWALD:  gamma=   0.268
 Maximum number of real-space cells 6x 6x 1
 Maximum number of reciprocal cells 2x 2x13

    FEWALD:  cpu time    0.0016: real time    0.0017


--------------------------------------- Iteration      1(   1)  ---------------------------------------


    POTLOK:  cpu time    0.0160: real time    0.0161
    SETDIJ:  cpu time    0.0040: real time    0.0040
     EDDAV:  cpu time    2.4415: real time    2.6455
       DOS:  cpu time    0.0009: real time    0.0016
    --------------------------------------------
      LOOP:  cpu time    2.4624: real time    2.6673

 eigenvalue-minimisations  :  2000
 total energy-change (2. order) : 0.5334213E+03  (-0.3386433E+04)
 number of electron      74.0000000 magnetization 
 augmentation part       74.0000000 magnetization 

 Free energy of the ion-electron system (eV)
  ---------------------------------------------------
  alpha Z        PSCENC =       110.66729910
  Ewald energy   TEWEN  =     26483.33851024
  -Hartree energ DENC   =    -30414.47700959
  -exchange      EXHF   =         0.00000000
  -V(xc)+E(xc)   XCENC  =      -233.92419226
  PAW double counting   =      3772.01224470    -3269.57291537
  entropy T*S    EENTRO =        -0.00470101
  eigenvalues    EBANDS =       -36.20848884
  atomic energy  EATOM  =      4121.59051638
  Solvation  Ediel_sol  =         0.00000000
  ---------------------------------------------------
  free energy    TOTEN  =       533.42126335 eV

  energy without entropy =      533.42596436  energy(sigma->0) =      533.42361385


--------------------------------------------------------------------------------------------------------




--------------------------------------- Iteration      1(   2)  ---------------------------------------


     EDDAV:  cpu time    2.5880: real time    2.6857
       DOS:  cpu time    0.0008: real time    0.0007
    --------------------------------------------
      LOOP:  cpu time    2.5887: real time    2.6865

 eigenvalue-minimisations  :  2680
 total energy-change (2. order) :-0.5913732E+03  (-0.5698639E+03)
 number of electron      74.0000000 magnetization 
 augmentation part       74.0000000 magnetization 

 Free energy of the ion-electron system (eV)
  ---------------------------------------------------
  alpha Z        PSCENC =       110.66729910
  Ewald energy   TEWEN  =     26483.33851024
  -Hartree energ DENC   =    -30414.47700959
  -exchange      EXHF   =         0.00000000
  -V(xc)+E(xc)   XCENC  =      -233.92419226
  PAW double counting   =      3772.01224470    -3269.57291537
  entropy T*S    EENTRO =        -0.00178718
  eigenvalues    EBANDS =      -627.58460400
  atomic energy  EATOM  =      4121.59051638
  Solvation  Ediel_sol  =         0.00000000
  ---------------------------------------------------
  free energy    TOTEN  =       -57.95193798 eV

  energy without entropy =      -57.95015080  energy(sigma->0) =      -57.95104439


--------------------------------------------------------------------------------------------------------




--------------------------------------- Iteration      1(   3)  ---------------------------------------


     EDDAV:  cpu time    2.5927: real time    2.7878
       DOS:  cpu time    0.0008: real time    0.0009
    --------------------------------------------
      LOOP:  cpu time    2.5936: real time    2.7886

 eigenvalue-minimisations  :  2390
 total energy-change (2. order) :-0.6271963E+02  (-0.6231652E+02)
 number of electron      74.0000000 magnetization 
 augmentation part       74.0000000 magnetization 

 Free energy of the ion-electron system (eV)
  ---------------------------------------------------
  alpha Z        PSCENC =       110.66729910
  Ewald energy   TEWEN  =     26483.33851024
  -Hartree energ DENC   =    -30414.47700959
  -exchange      EXHF   =         0.00000000
  -V(xc)+E(xc)   XCENC  =      -233.92419226
  PAW double counting   =      3772.01224470    -3269.57291537
  entropy T*S    EENTRO =        -0.00476043
  eigenvalues    EBANDS =      -690.30125999
  atomic energy  EATOM  =      4121.59051638
  Solvation  Ediel_sol  =         0.00000000
  ---------------------------------------------------
  free energy    TOTEN  =      -120.67156723 eV

  energy without entropy =     -120.66680680  energy(sigma->0) =     -120.66918702


--------------------------------------------------------------------------------------------------------




--------------------------------------- Iteration      1(   4)  ---------------------------------------


     EDDAV:  cpu time    2.8020: real time    2.9945
       DOS:  cpu time    0.0008: real time    0.0011
    --------------------------------------------
      LOOP:  cpu time    2.8028: real time    2.9955

 eigenvalue-minimisations  :  2690
 total energy-change (2. order) :-0.1273492E+01  (-0.1270980E+01)
 number of electron      74.0000000 magnetization 
 augmentation part       74.0000000 magnetization 

 Free energy of the ion-electron system (eV)
  ---------------------------------------------------
  alpha Z        PSCENC =       110.66729910
  Ewald energy   TEWEN  =     26483.33851024
  -Hartree energ DENC   =    -30414.47700959
  -exchange      EXHF   =         0.00000000
  -V(xc)+E(xc)   XCENC  =      -233.92419226
  PAW double counting   =      3772.01224470    -3269.57291537
  entropy T*S    EENTRO =        -0.00477960
  eigenvalues    EBANDS =      -691.57473305
  atomic energy  EATOM  =      4121.59051638
  Solvation  Ediel_sol  =         0.00000000
  ---------------------------------------------------
  free energy    TOTEN  =      -121.94505946 eV

  energy without entropy =     -121.94027986  energy(sigma->0) =     -121.94266966


--------------------------------------------------------------------------------------------------------




--------------------------------------- Iteration      1(   5)  ---------------------------------------


     EDDAV:  cpu time    2.5100: real time    2.5670
       DOS:  cpu time    0.0021: real time    0.0020
    --------------------------------------------
      LOOP:  cpu time    2.5120: real time    2.5691

 eigenvalue-minimisations  :  2490
 total energy-change (2. order) :-0.2021674E-01  (-0.2021183E-01)
 number of electron      74.0000000 magnetization 
 augmentation part       74.0000000 magnetization 

 Free energy of the ion-electron system (eV)
  ---------------------------------------------------
  alpha Z        PSCENC =       110.66729910
  Ewald energy   TEWEN  =     26483.33851024
  -Hartree energ DENC   =    -30414.47700959
  -exchange      EXHF   =         0.00000000
  -V(xc)+E(xc)   XCENC  =      -233.92419226
  PAW double counting   =      3772.01224470    -3269.57291537
  entropy T*S    EENTRO =        -0.00477361
  eigenvalues    EBANDS =      -691.59495579
  atomic energy  EATOM  =      4121.59051638
  Solvation  Ediel_sol  =         0.00000000
  ---------------------------------------------------
  free energy    TOTEN  =      -121.96527620 eV

  energy without entropy =     -121.96050259  energy(sigma->0) =     -121.96288940


--------------------------------------------------------------------------------------------------------




--------------------------------------- Iteration      1(   6)  ---------------------------------------


     EDDAV:  cpu time    2.6385: real time    3.1113
       DOS:  cpu time    0.0008: real time    0.0008
    --------------------------------------------
      LOOP:  cpu time    2.6393: real time    3.1120

 eigenvalue-minimisations  :  2650
 total energy-change (2. order) :-0.5446731E-03  (-0.5445405E-03)
 number of electron      74.0000000 magnetization 
 augmentation part       74.0000000 magnetization 

 Free energy of the ion-electron system (eV)
  ---------------------------------------------------
  alpha Z        PSCENC =       110.66729910
  Ewald energy   TEWEN  =     26483.33851024
  -Hartree energ DENC   =    -30414.47700959
  -exchange      EXHF   =         0.00000000
  -V(xc)+E(xc)   XCENC  =      -233.92419226
  PAW double counting   =      3772.01224470    -3269.57291537
  entropy T*S    EENTRO =        -0.00477313
  eigenvalues    EBANDS =      -691.59550094
  atomic energy  EATOM  =      4121.59051638
  Solvation  Ediel_sol  =         0.00000000
  ---------------------------------------------------
  free energy    TOTEN  =      -121.96582087 eV

  energy without entropy =     -121.96104774  energy(sigma->0) =     -121.96343431


--------------------------------------------------------------------------------------------------------




--------------------------------------- Iteration      1(   7)  ---------------------------------------


     EDDAV:  cpu time    2.4252: real time    2.4363
       DOS:  cpu time    0.0008: real time    0.0008
    --------------------------------------------
      LOOP:  cpu time    2.4260: real time    2.4371

 eigenvalue-minimisations  :  2470
 total energy-change (2. order) :-0.1846447E-04  (-0.1846284E-04)
 number of electron      74.0000000 magnetization 
 augmentation part       74.0000000 magnetization 

 Free energy of the ion-electron system (eV)
  ---------------------------------------------------
  alpha Z        PSCENC =       110.66729910
  Ewald energy   TEWEN  =     26483.33851024
  -Hartree energ DENC   =    -30414.47700959
  -exchange      EXHF   =         0.00000000
  -V(xc)+E(xc)   XCENC  =      -233.92419226
  PAW double counting   =      3772.01224470    -3269.57291537
  entropy T*S    EENTRO =        -0.00477312
  eigenvalues    EBANDS =      -691.59551941
  atomic energy  EATOM  =      4121.59051638
  Solvation  Ediel_sol  =         0.00000000
  ---------------------------------------------------
  free energy    TOTEN  =      -121.96583934 eV

  energy without entropy =     -121.96106622  energy(sigma->0) =     -121.96345278


--------------------------------------------------------------------------------------------------------




--------------------------------------- Iteration      1(   8)  ---------------------------------------


     EDDAV:  cpu time    2.1942: real time    2.2085
       DOS:  cpu time    0.0008: real time    0.0008
    CHARGE:  cpu time    0.0829: real time    0.0832
    MIXING:  cpu time    0.0011: real time    0.0011
    --------------------------------------------
      LOOP:  cpu time    2.2790: real time    2.2937

 eigenvalue-minimisations  :  1960
 total energy-change (2. order) :-0.6152695E-06  (-0.6151383E-06)
 number of electron      74.0000017 magnetization 
 augmentation part        7.2223043 magnetization 

 Broyden mixing:
  rms(total) = 0.22132E+01    rms(broyden)= 0.22127E+01
  rms(prec ) = 0.22890E+01
  weight for this iteration     100.00

 Free energy of the ion-electron system (eV)
  ---------------------------------------------------
  alpha Z        PSCENC =       110.66729910
  Ewald energy   TEWEN  =     26483.33851024
  -Hartree energ DENC   =    -30414.47700959
  -exchange      EXHF   =         0.00000000
  -V(xc)+E(xc)   XCENC  =      -233.92419226
  PAW double counting   =      3772.01224470    -3269.57291537
  entropy T*S    EENTRO =        -0.00477312
  eigenvalues    EBANDS =      -691.59552003
  atomic energy  EATOM  =      4121.59051638
  Solvation  Ediel_sol  =         0.00000000
  ---------------------------------------------------
  free energy    TOTEN  =      -121.96583995 eV

  energy without entropy =     -121.96106683  energy(sigma->0) =     -121.96345339


--------------------------------------------------------------------------------------------------------




--------------------------------------- Iteration      1(   9)  ---------------------------------------


    POTLOK:  cpu time    0.0106: real time    0.0107
    SETDIJ:  cpu time    0.0026: real time    0.0031
    EDDIAG:  cpu time    0.3060: real time    0.3167
  RMM-DIIS:  cpu time    1.3102: real time    1.3616
    ORTHCH:  cpu time    0.0357: real time    0.0359
       DOS:  cpu time    0.0008: real time    0.0008
    CHARGE:  cpu time    0.0824: real time    0.0828
    MIXING:  cpu time    0.0010: real time    0.0010
    --------------------------------------------
      LOOP:  cpu time    1.7493: real time    1.8126

 eigenvalue-minimisations  :  2000
 total energy-change (2. order) : 0.1464752E+02  (-0.6977681E+01)
 number of electron      74.0000014 magnetization 
 augmentation part        5.9401931 magnetization 

 Broyden mixing:
  rms(total) = 0.70741E+00    rms(broyden)= 0.70649E+00
  rms(prec ) = 0.71531E+00
  weight for this iteration     100.00

 eigenvalues of (default mixing * dielectric matrix)
  average eigenvalue GAMMA=   0.8467
  0.8467

 Free energy of the ion-electron system (eV)
  ---------------------------------------------------
  alpha Z        PSCENC =       110.66729910
  Ewald energy   TEWEN  =     26483.33851024
  -Hartree energ DENC   =    -30667.16573384
  -exchange      EXHF   =         0.00000000
  -V(xc)+E(xc)   XCENC  =      -221.79347401
  PAW double counting   =      4422.27198987    -3922.94731524
  entropy T*S    EENTRO =        -0.00364489
  eigenvalues    EBANDS =      -433.27647240
  atomic energy  EATOM  =      4121.59051638
  Solvation  Ediel_sol  =         0.00000000
  ---------------------------------------------------
  free energy    TOTEN  =      -107.31832478 eV

  energy without entropy =     -107.31467989  energy(sigma->0) =     -107.31650233


--------------------------------------------------------------------------------------------------------




--------------------------------------- Iteration      1(  10)  ---------------------------------------


    POTLOK:  cpu time    0.0110: real time    0.0112
    SETDIJ:  cpu time    0.0023: real time    0.0023
    EDDIAG:  cpu time    0.3139: real time    0.3153
  RMM-DIIS:  cpu time    1.3604: real time    1.3676
    ORTHCH:  cpu time    0.0327: real time    0.0328
       DOS:  cpu time    0.0008: real time    0.0008
    CHARGE:  cpu time    0.0809: real time    0.0811
    MIXING:  cpu time    0.0008: real time    0.0008
    --------------------------------------------
      LOOP:  cpu time    1.8028: real time    1.8119

 eigenvalue-minimisations  :  2006
 total energy-change (2. order) : 0.2710779E+00  (-0.6278300E-01)
 number of electron      74.0000014 magnetization 
 augmentation part        5.9350936 magnetization 

 Broyden mixing:
  rms(total) = 0.45890E+00    rms(broyden)= 0.45886E+00
  rms(prec ) = 0.46486E+00
  weight for this iteration     100.00

 eigenvalues of (default mixing * dielectric matrix)
  average eigenvalue GAMMA=   1.6581
  1.0101  2.3061

 Free energy of the ion-electron system (eV)
  ---------------------------------------------------
  alpha Z        PSCENC =       110.66729910
  Ewald energy   TEWEN  =     26483.33851024
  -Hartree energ DENC   =    -30658.51454220
  -exchange      EXHF   =         0.00000000
  -V(xc)+E(xc)   XCENC  =      -221.44102403
  PAW double counting   =      4617.06635995    -4117.43513869
  entropy T*S    EENTRO =        -0.00356686
  eigenvalues    EBANDS =      -442.31566073
  atomic energy  EATOM  =      4121.59051638
  Solvation  Ediel_sol  =         0.00000000
  ---------------------------------------------------
  free energy    TOTEN  =      -107.04724684 eV

  energy without entropy =     -107.04367998  energy(sigma->0) =     -107.04546341


--------------------------------------------------------------------------------------------------------




--------------------------------------- Iteration      1(  11)  ---------------------------------------


    POTLOK:  cpu time    0.0105: real time    0.0107
    SETDIJ:  cpu time    0.0024: real time    0.0024
    EDDIAG:  cpu time    0.3057: real time    0.3072
  RMM-DIIS:  cpu time    1.3157: real time    1.3222
    ORTHCH:  cpu time    0.0336: real time    0.0338
       DOS:  cpu time    0.0008: real time    0.0008
    CHARGE:  cpu time    0.0813: real time    0.0815
    MIXING:  cpu time    0.0009: real time    0.0010
    --------------------------------------------
      LOOP:  cpu time    1.7510: real time    1.7595

 eigenvalue-minimisations  :  2000
 total energy-change (2. order) : 0.7937942E-01  (-0.5797404E-01)
 number of electron      74.0000014 magnetization 
 augmentation part        6.0168902 magnetization 

 Broyden mixing:
  rms(total) = 0.10008E+00    rms(broyden)= 0.10003E+00
  rms(prec ) = 0.10294E+00
  weight for this iteration     100.00

 eigenvalues of (default mixing * dielectric matrix)
  average eigenvalue GAMMA=   1.4298
  2.4884  0.9005  0.9005

 Free energy of the ion-electron system (eV)
  ---------------------------------------------------
  alpha Z        PSCENC =       110.66729910
  Ewald energy   TEWEN  =     26483.33851024
  -Hartree energ DENC   =    -30640.97220120
  -exchange      EXHF   =         0.00000000
  -V(xc)+E(xc)   XCENC  =      -220.63959276
  PAW double counting   =      4950.82407933    -4450.75455341
  entropy T*S    EENTRO =        -0.00356187
  eigenvalues    EBANDS =      -461.01836324
  atomic energy  EATOM  =      4121.59051638
  Solvation  Ediel_sol  =         0.00000000
  ---------------------------------------------------
  free energy    TOTEN  =      -106.96786742 eV

  energy without entropy =     -106.96430555  energy(sigma->0) =     -106.96608649


--------------------------------------------------------------------------------------------------------




--------------------------------------- Iteration      1(  12)  ---------------------------------------


    POTLOK:  cpu time    0.0105: real time    0.0106
    SETDIJ:  cpu time    0.0023: real time    0.0023
    EDDIAG:  cpu time    0.3092: real time    0.3106
  RMM-DIIS:  cpu time    1.2977: real time    1.3114
    ORTHCH:  cpu time    0.0334: real time    0.0335
       DOS:  cpu time    0.0008: real time    0.0008
    CHARGE:  cpu time    0.0817: real time    0.0820
    MIXING:  cpu time    0.0010: real time    0.0009
    --------------------------------------------
      LOOP:  cpu time    1.7366: real time    1.7521

 eigenvalue-minimisations  :  2004
 total energy-change (2. order) : 0.2458011E-01  (-0.6925492E-02)
 number of electron      74.0000014 magnetization 
 augmentation part        5.9845452 magnetization 

 Broyden mixing:
  rms(total) = 0.37872E-01    rms(broyden)= 0.37868E-01
  rms(prec ) = 0.38771E-01
  weight for this iteration     100.00

 eigenvalues of (default mixing * dielectric matrix)
  average eigenvalue GAMMA=   1.7942
  0.9248  0.9248  2.9553  2.3718

 Free energy of the ion-electron system (eV)
  ---------------------------------------------------
  alpha Z        PSCENC =       110.66729910
  Ewald energy   TEWEN  =     26483.33851024
  -Hartree energ DENC   =    -30645.42996712
  -exchange      EXHF   =         0.00000000
  -V(xc)+E(xc)   XCENC  =      -220.11415723
  PAW double counting   =      4972.58073961    -4472.61953695
  entropy T*S    EENTRO =        -0.00356252
  eigenvalues    EBANDS =      -456.95312882
  atomic energy  EATOM  =      4121.59051638
  Solvation  Ediel_sol  =         0.00000000
  ---------------------------------------------------
  free energy    TOTEN  =      -106.94328731 eV

  energy without entropy =     -106.93972479  energy(sigma->0) =     -106.94150605


--------------------------------------------------------------------------------------------------------




--------------------------------------- Iteration      1(  13)  ---------------------------------------


    POTLOK:  cpu time    0.0103: real time    0.0106
    SETDIJ:  cpu time    0.0023: real time    0.0023
    EDDIAG:  cpu time    0.3074: real time    0.3107
  RMM-DIIS:  cpu time    1.4084: real time    1.4150
    ORTHCH:  cpu time    0.0331: real time    0.0332
       DOS:  cpu time    0.0008: real time    0.0008
    CHARGE:  cpu time    0.0845: real time    0.0847
    MIXING:  cpu time    0.0008: real time    0.0008
    --------------------------------------------
      LOOP:  cpu time    1.8477: real time    1.8582

 eigenvalue-minimisations  :  2000
 total energy-change (2. order) :-0.4769324E-02  (-0.8211325E-02)
 number of electron      74.0000014 magnetization 
 augmentation part        5.9461003 magnetization 

 Broyden mixing:
  rms(total) = 0.45859E-01    rms(broyden)= 0.45839E-01
  rms(prec ) = 0.46867E-01
  weight for this iteration     100.00

 eigenvalues of (default mixing * dielectric matrix)
  average eigenvalue GAMMA=   1.6399
  2.5980  2.5980  0.9372  1.0333  1.0333

 Free energy of the ion-electron system (eV)
  ---------------------------------------------------
  alpha Z        PSCENC =       110.66729910
  Ewald energy   TEWEN  =     26483.33851024
  -Hartree energ DENC   =    -30647.67015312
  -exchange      EXHF   =         0.00000000
  -V(xc)+E(xc)   XCENC  =      -219.70687405
  PAW double counting   =      4950.57318439    -4450.74140747
  entropy T*S    EENTRO =        -0.00356203
  eigenvalues    EBANDS =      -454.99557007
  atomic energy  EATOM  =      4121.59051638
  Solvation  Ediel_sol  =         0.00000000
  ---------------------------------------------------
  free energy    TOTEN  =      -106.94805663 eV

  energy without entropy =     -106.94449460  energy(sigma->0) =     -106.94627562


--------------------------------------------------------------------------------------------------------




--------------------------------------- Iteration      1(  14)  ---------------------------------------


    POTLOK:  cpu time    0.0098: real time    0.0100
    SETDIJ:  cpu time    0.0021: real time    0.0021
    EDDIAG:  cpu time    0.3130: real time    0.3142
  RMM-DIIS:  cpu time    1.5584: real time    1.5667
    ORTHCH:  cpu time    0.0317: real time    0.0318
       DOS:  cpu time    0.0008: real time    0.0016
    CHARGE:  cpu time    0.0821: real time    0.0823
    MIXING:  cpu time    0.0010: real time    0.0010
    --------------------------------------------
      LOOP:  cpu time    1.9988: real time    2.0096

 eigenvalue-minimisations  :  2004
 total energy-change (2. order) : 0.5250349E-02  (-0.2299316E-02)
 number of electron      74.0000014 magnetization 
 augmentation part        5.9677072 magnetization 

 Broyden mixing:
  rms(total) = 0.27659E-02    rms(broyden)= 0.27176E-02
  rms(prec ) = 0.28319E-02
  weight for this iteration     100.00

 eigenvalues of (default mixing * dielectric matrix)
  average eigenvalue GAMMA=   1.6248
  2.8150  2.4911  1.5306  0.9247  0.9938  0.9938

 Free energy of the ion-electron system (eV)
  ---------------------------------------------------
  alpha Z        PSCENC =       110.66729910
  Ewald energy   TEWEN  =     26483.33851024
  -Hartree energ DENC   =    -30643.55711642
  -exchange      EXHF   =         0.00000000
  -V(xc)+E(xc)   XCENC  =      -219.93743712
  PAW double counting   =      4940.57529882    -4440.67901147
  entropy T*S    EENTRO =        -0.00355982
  eigenvalues    EBANDS =      -458.93730600
  atomic energy  EATOM  =      4121.59051638
  Solvation  Ediel_sol  =         0.00000000
  ---------------------------------------------------
  free energy    TOTEN  =      -106.94280628 eV

  energy without entropy =     -106.93924646  energy(sigma->0) =     -106.94102637


--------------------------------------------------------------------------------------------------------




--------------------------------------- Iteration      1(  15)  ---------------------------------------


    POTLOK:  cpu time    0.0105: real time    0.0127
    SETDIJ:  cpu time    0.0026: real time    0.0030
    EDDIAG:  cpu time    0.2988: real time    0.2996
  RMM-DIIS:  cpu time    1.3947: real time    1.4003
    ORTHCH:  cpu time    0.0731: real time    0.0733
       DOS:  cpu time    0.0017: real time    0.0017
    CHARGE:  cpu time    0.0807: real time    0.0810
    MIXING:  cpu time    0.0010: real time    0.0009
    --------------------------------------------
      LOOP:  cpu time    1.8632: real time    1.8725

 eigenvalue-minimisations  :  1820
 total energy-change (2. order) :-0.1027165E-04  (-0.3070053E-04)
 number of electron      74.0000014 magnetization 
 augmentation part        5.9680140 magnetization 

 Broyden mixing:
  rms(total) = 0.16450E-02    rms(broyden)= 0.16418E-02
  rms(prec ) = 0.17073E-02
  weight for this iteration     100.00

 eigenvalues of (default mixing * dielectric matrix)
  average eigenvalue GAMMA=   1.6824
  2.9261  2.4234  2.4234  0.9606  0.9606  1.0413  1.0413

 Free energy of the ion-electron system (eV)
  ---------------------------------------------------
  alpha Z        PSCENC =       110.66729910
  Ewald energy   TEWEN  =     26483.33851024
  -Hartree energ DENC   =    -30643.50433313
  -exchange      EXHF   =         0.00000000
  -V(xc)+E(xc)   XCENC  =      -219.92404254
  PAW double counting   =      4940.76098077    -4440.86788685
  entropy T*S    EENTRO =        -0.00355856
  eigenvalues    EBANDS =      -459.00030197
  atomic energy  EATOM  =      4121.59051638
  Solvation  Ediel_sol  =         0.00000000
  ---------------------------------------------------
  free energy    TOTEN  =      -106.94281655 eV

  energy without entropy =     -106.93925800  energy(sigma->0) =     -106.94103728


--------------------------------------------------------------------------------------------------------




--------------------------------------- Iteration      1(  16)  ---------------------------------------


    POTLOK:  cpu time    0.0116: real time    0.0118
    SETDIJ:  cpu time    0.0032: real time    0.0032
    EDDIAG:  cpu time    0.2953: real time    0.2964
  RMM-DIIS:  cpu time    1.2661: real time    1.3011
    ORTHCH:  cpu time    0.0310: real time    0.0314
       DOS:  cpu time    0.0008: real time    0.0008
    --------------------------------------------
      LOOP:  cpu time    1.6080: real time    1.6447

 eigenvalue-minimisations  :  1711
 total energy-change (2. order) :-0.8387224E-05  (-0.4801237E-05)
 number of electron      74.0000014 magnetization 
 augmentation part        5.9680140 magnetization 

 Free energy of the ion-electron system (eV)
  ---------------------------------------------------
  alpha Z        PSCENC =       110.66729910
  Ewald energy   TEWEN  =     26483.33851024
  -Hartree energ DENC   =    -30643.60177865
  -exchange      EXHF   =         0.00000000
  -V(xc)+E(xc)   XCENC  =      -219.91683705
  PAW double counting   =      4942.02397439    -4442.13200446
  entropy T*S    EENTRO =        -0.00355672
  eigenvalues    EBANDS =      -458.90894817
  atomic energy  EATOM  =      4121.59051638
  Solvation  Ediel_sol  =         0.00000000
  ---------------------------------------------------
  free energy    TOTEN  =      -106.94282494 eV

  energy without entropy =     -106.93926822  energy(sigma->0) =     -106.94104658


--------------------------------------------------------------------------------------------------------




 average (electrostatic) potential at core
  the test charge radii are     0.7215  1.0714
  (the norm of the test charge is              1.0000)
       1 -73.6998       2 -73.6928       3 -73.6917       4 -73.6923       5 -73.7030
       6 -73.8017       7 -73.7959       8 -73.6913       9 -73.6946      10 -39.4289
      11 -39.2435      12 -39.2441      13 -39.4354      14 -39.2463      15 -39.2437
      16 -39.2906      17 -39.2861      18 -39.2424      19 -39.2489
 
 
 
 E-fermi :   3.0365     XC(G=0):  -7.6258     alpha+bet : -8.2245


 k-point     1 :       0.0625    0.0625    0.0000
  band No.  band energies     occupation 
      1     -17.9526      2.00000
      2     -17.8951      2.00000
      3     -17.7912      2.00000
      4     -17.6468      2.00000
      5     -17.4740      2.00000
      6     -17.2882      2.00000
      7     -17.1089      2.00000
      8     -16.9565      2.00000
      9     -16.8515      2.00000
     10      -5.2316      2.00000
     11      -5.0539      2.00000
     12      -4.7469      2.00000
     13      -4.3237      2.00000
     14      -3.8112      2.00000
     15      -3.2455      2.00000
     16      -2.6757      2.00000
     17      -2.1832      2.00000
     18      -1.9621      2.00000
     19      -1.9432      2.00000
     20      -1.8500      2.00000
     21      -1.8490      2.00000
     22      -1.7055      2.00000
     23      -1.6803      2.00000
     24      -1.6378      2.00000
     25      -1.6079      2.00000
     26      -1.5613      2.00000
     27      -1.5495      2.00000
     28      -1.4584      2.00000
     29      -1.4330      2.00000
     30      -1.3509      2.00000
     31      -1.2852      2.00000
     32      -1.2272      2.00000
     33      -1.1782      2.00000
     34      -1.1060      2.00000
     35      -1.0940      2.00000
     36      -1.0519      2.00000
     37       0.8429      2.00000
     38       0.8486      2.00000
     39       4.3322      0.00000
     40       4.6852      0.00000
     41       5.1325      0.00000
     42       5.5877      0.00000
     43       6.0290      0.00000
     44       6.4733      0.00000
     45       6.8533      0.00000
     46       7.1456      0.00000
     47       7.2761      0.00000
     48       7.3628      0.00000
     49       7.5243      0.00000
     50      11.0856      0.00000

 k-point     2 :       0.1875    0.0625   -0.0000
  band No.  band energies     occupation 
      1     -17.6394      2.00000
      2     -17.5932      2.00000
      3     -17.5073      2.00000
      4     -17.3869      2.00000
      5     -17.2432      2.00000
      6     -17.0896      2.00000
      7     -16.9424      2.00000
      8     -16.8180      2.00000
      9     -16.7325      2.00000
     10      -4.7653      2.00000
     11      -4.6531      2.00000
     12      -4.4696      2.00000
     13      -4.2373      2.00000
     14      -3.9811      2.00000
     15      -3.7197      2.00000
     16      -3.4725      2.00000
     17      -3.2603      2.00000
     18      -3.0887      2.00000
     19      -2.9576      2.00000
     20      -2.9104      2.00000
     21      -2.7530      2.00000
     22      -2.5135      2.00000
     23      -2.2286      2.00000
     24      -1.9440      2.00000
     25      -1.8902      2.00000
     26      -1.8628      2.00000
     27      -1.7966      2.00000
     28      -1.7340      2.00000
     29      -1.6359      2.00000
     30      -1.6258      2.00000
     31      -1.5334      2.00000
     32      -1.4781      2.00000
     33      -1.3917      2.00000
     34      -1.3857      2.00000
     35      -1.3141      2.00000
     36      -1.2160      2.00000
     37       1.5013      2.00000
     38       1.5070      2.00000
     39       5.6867      0.00000
     40       5.9258      0.00000
     41       6.2633      0.00000
     42       6.6205      0.00000
     43       6.9657      0.00000
     44       7.3720      0.00000
     45       7.8098      0.00000
     46       8.2332      0.00000
     47       8.3915      0.00000
     48       8.5532      0.00000
     49       8.6073      0.00000
     50      10.5575      0.00000

 k-point     3 :       0.3125    0.0625    0.0000
  band No.  band energies     occupation 
      1     -17.2061      2.00000
      2     -17.1804      2.00000
      3     -17.1248      2.00000
      4     -17.0450      2.00000
      5     -16.9498      2.00000
      6     -16.8487      2.00000
      7     -16.7528      2.00000
      8     -16.6721      2.00000
      9     -16.6164      2.00000
     10      -4.7879      2.00000
     11      -4.6908      2.00000
     12      -4.5974      2.00000
     13      -4.5408      2.00000
     14      -4.4749      2.00000
     15      -4.3602      2.00000
     16      -4.2707      2.00000
     17      -4.1374      2.00000
     18      -4.0944      2.00000
     19      -3.8232      2.00000
     20      -3.4576      2.00000
     21      -3.0524      2.00000
     22      -2.6503      2.00000
     23      -2.3030      2.00000
     24      -2.1861      2.00000
     25      -2.1704      2.00000
     26      -2.1070      2.00000
     27      -2.0503      2.00000
     28      -2.0261      2.00000
     29      -1.9860      2.00000
     30      -1.8929      2.00000
     31      -1.8160      2.00000
     32      -1.7549      2.00000
     33      -1.6458      2.00000
     34      -1.6031      2.00000
     35      -1.5565      2.00000
     36      -1.4531      2.00000
     37       2.6232      2.00000
     38       2.6289      2.00000
     39       6.7429      0.00000
     40       6.9054      0.00000
     41       7.1468      0.00000
     42       7.4462      0.00000
     43       7.7645      0.00000
     44       8.0514      0.00000
     45       8.3249      0.00000
     46       8.6816      0.00000
     47       8.8522      0.00000
     48       9.0165      0.00000
     49       9.1193      0.00000
     50       9.2615      0.00000

 k-point     4 :       0.4375    0.0625   -0.0000
  band No.  band energies     occupation 
      1     -16.8841      2.00000
      2     -16.8793      2.00000
      3     -16.8484      2.00000
      4     -16.8138      2.00000
      5     -16.7708      2.00000
      6     -16.7235      2.00000
      7     -16.6774      2.00000
      8     -16.6373      2.00000
      9     -16.6085      2.00000
     10      -5.3471      2.00000
     11      -5.2443      2.00000
     12      -5.0770      2.00000
     13      -4.8818      2.00000
     14      -4.8474      2.00000
     15      -4.7600      2.00000
     16      -4.7140      2.00000
     17      -4.6170      2.00000
     18      -4.5906      2.00000
     19      -3.0653      2.00000
     20      -2.9289      2.00000
     21      -2.7256      2.00000
     22      -2.6231      2.00000
     23      -2.5083      2.00000
     24      -2.3673      2.00000
     25      -2.3562      2.00000
     26      -2.3302      2.00000
     27      -2.2765      2.00000
     28      -2.2367      2.00000
     29      -2.1284      2.00000
     30      -2.0677      2.00000
     31      -1.9640      2.00000
     32      -1.9027      2.00000
     33      -1.7704      2.00000
     34      -1.7592      2.00000
     35      -1.6650      2.00000
     36      -1.6195      2.00000
     37       4.0745      0.00000
     38       4.0804      0.00000
     39       5.7113      0.00000
     40       5.7171      0.00000
     41       7.0736      0.00000
     42       7.4587      0.00000
     43       7.9624      0.00000
     44       8.3652      0.00000
     45       8.4557      0.00000
     46       8.5820      0.00000
     47       8.7593      0.00000
     48       8.8326      0.00000
     49       8.9429      0.00000
     50       8.9843      0.00000

 k-point     5 :      -0.4375    0.0625    0.0000
  band No.  band energies     occupation 
      1     -17.0102      2.00000
      2     -16.9975      2.00000
      3     -16.9586      2.00000
      4     -16.9023      2.00000
      5     -16.8350      2.00000
      6     -16.7633      2.00000
      7     -16.6954      2.00000
      8     -16.6379      2.00000
      9     -16.5978      2.00000
     10      -5.1465      2.00000
     11      -5.0454      2.00000
     12      -4.8807      2.00000
     13      -4.7503      2.00000
     14      -4.6983      2.00000
     15      -4.6357      2.00000
     16      -4.5532      2.00000
     17      -4.4494      2.00000
     18      -4.4230      2.00000
     19      -3.4598      2.00000
     20      -3.2170      2.00000
     21      -2.8805      2.00000
     22      -2.5503      2.00000
     23      -2.3417      2.00000
     24      -2.2975      2.00000
     25      -2.2665      2.00000
     26      -2.2444      2.00000
     27      -2.2248      2.00000
     28      -2.1682      2.00000
     29      -2.0751      2.00000
     30      -2.0080      2.00000
     31      -1.9109      2.00000
     32      -1.8508      2.00000
     33      -1.7307      2.00000
     34      -1.6992      2.00000
     35      -1.6331      2.00000
     36      -1.5555      2.00000
     37       3.3525      0.00000
     38       3.3583      0.00000
     39       6.4939      0.00000
     40       6.5021      0.00000
     41       7.0416      0.00000
     42       7.4289      0.00000
     43       7.8984      0.00000
     44       8.3333      0.00000
     45       8.5620      0.00000
     46       8.6322      0.00000
     47       8.7662      0.00000
     48       8.8366      0.00000
     49       9.0277      0.00000
     50       9.1108      0.00000

 k-point     6 :      -0.3125    0.0625    0.0000
  band No.  band energies     occupation 
      1     -17.4261      2.00000
      2     -17.3892      2.00000
      3     -17.3170      2.00000
      4     -17.2153      2.00000
      5     -17.0939      2.00000
      6     -16.9646      2.00000
      7     -16.8413      2.00000
      8     -16.7375      2.00000
      9     -16.6661      2.00000
     10      -4.5403      2.00000
     11      -4.4525      2.00000
     12      -4.4062      2.00000
     13      -4.3678      2.00000
     14      -4.2538      2.00000
     15      -4.0941      2.00000
     16      -3.9270      2.00000
     17      -3.7995      2.00000
     18      -3.6756      2.00000
     19      -3.5755      2.00000
     20      -3.3586      2.00000
     21      -3.0422      2.00000
     22      -2.6745      2.00000
     23      -2.3101      2.00000
     24      -2.0486      2.00000
     25      -2.0418      2.00000
     26      -1.9836      2.00000
     27      -1.9478      2.00000
     28      -1.8802      2.00000
     29      -1.8028      2.00000
     30      -1.7365      2.00000
     31      -1.7057      2.00000
     32      -1.6270      2.00000
     33      -1.5271      2.00000
     34      -1.4931      2.00000
     35      -1.4426      2.00000
     36      -1.3327      2.00000
     37       2.0012      2.00000
     38       2.0069      2.00000
     39       6.3347      0.00000
     40       6.5449      0.00000
     41       6.8467      0.00000
     42       7.1662      0.00000
     43       7.4492      0.00000
     44       7.7556      0.00000
     45       8.1849      0.00000
     46       8.6494      0.00000
     47       8.9200      0.00000
     48       9.0765      0.00000
     49       9.1410      0.00000
     50       9.6675      0.00000

 k-point     7 :      -0.1875    0.0625   -0.0000
  band No.  band energies     occupation 
      1     -17.8211      2.00000
      2     -17.7681      2.00000
      3     -17.6715      2.00000
      4     -17.5368      2.00000
      5     -17.3758      2.00000
      6     -17.2030      2.00000
      7     -17.0368      2.00000
      8     -16.8959      2.00000
      9     -16.7990      2.00000
     10      -5.0345      2.00000
     11      -4.8791      2.00000
     12      -4.6149      2.00000
     13      -4.2596      2.00000
     14      -3.8447      2.00000
     15      -3.4105      2.00000
     16      -3.0043      2.00000
     17      -2.6760      2.00000
     18      -2.4547      2.00000
     19      -2.3989      2.00000
     20      -2.3235      2.00000
     21      -2.2763      2.00000
     22      -2.1764      2.00000
     23      -2.0094      2.00000
     24      -1.8060      2.00000
     25      -1.7438      2.00000
     26      -1.7192      2.00000
     27      -1.6540      2.00000
     28      -1.5936      2.00000
     29      -1.5418      2.00000
     30      -1.4677      2.00000
     31      -1.3845      2.00000
     32      -1.3283      2.00000
     33      -1.2860      2.00000
     34      -1.2416      2.00000
     35      -1.1932      2.00000
     36      -1.1211      2.00000
     37       1.1182      2.00000
     38       1.1238      2.00000
     39       4.9686      0.00000
     40       5.2606      0.00000
     41       5.6517      0.00000
     42       6.0614      0.00000
     43       6.4656      0.00000
     44       6.9053      0.00000
     45       7.3088      0.00000
     46       7.6648      0.00000
     47       7.7757      0.00000
     48       7.8973      0.00000
     49       7.9757      0.00000
     50      10.8977      0.00000

 k-point     8 :      -0.0625    0.0625   -0.0000
  band No.  band energies     occupation 
      1     -18.0213      2.00000
      2     -17.9616      2.00000
      3     -17.8542      2.00000
      4     -17.7049      2.00000
      5     -17.5262      2.00000
      6     -17.3336      2.00000
      7     -17.1476      2.00000
      8     -16.9893      2.00000
      9     -16.8802      2.00000
     10      -5.3342      2.00000
     11      -5.1470      2.00000
     12      -4.8214      2.00000
     13      -4.3683      2.00000
     14      -3.8123      2.00000
     15      -3.1853      2.00000
     16      -2.5280      2.00000
     17      -1.9088      2.00000
     18      -1.7118      2.00000
     19      -1.6802      2.00000
     20      -1.6194      2.00000
     21      -1.5924      2.00000
     22      -1.5674      2.00000
     23      -1.5342      2.00000
     24      -1.5121      2.00000
     25      -1.4496      2.00000
     26      -1.4320      2.00000
     27      -1.3820      2.00000
     28      -1.3353      2.00000
     29      -1.2809      2.00000
     30      -1.2315      2.00000
     31      -1.2205      2.00000
     32      -1.1327      2.00000
     33      -1.1319      2.00000
     34      -1.0492      2.00000
     35      -1.0476      2.00000
     36      -0.9893      2.00000
     37       0.6846      2.00000
     38       0.6908      2.00000
     39       3.9392      0.00000
     40       4.3392      0.00000
     41       4.8253      0.00000
     42       5.3075      0.00000
     43       5.7659      0.00000
     44       6.2076      0.00000
     45       6.5719      0.00000
     46       6.8287      0.00000
     47       6.9449      0.00000
     48       7.1259      0.00000
     49       7.3012      0.00000
     50       8.3963      0.00000

 k-point     9 :       0.1875    0.1875    0.0000
  band No.  band energies     occupation 
      1     -17.2853      2.00000
      2     -17.2548      2.00000
      3     -17.1925      2.00000
      4     -17.1036      2.00000
      5     -16.9975      2.00000
      6     -16.8848      2.00000
      7     -16.7777      2.00000
      8     -16.6876      2.00000
      9     -16.6256      2.00000
     10      -4.4344      2.00000
     11      -4.4206      2.00000
     12      -4.3788      2.00000
     13      -4.3346      2.00000
     14      -4.2817      2.00000
     15      -4.1948      2.00000
     16      -4.0492      2.00000
     17      -3.9265      2.00000
     18      -3.8398      2.00000
     19      -3.8290      2.00000
     20      -3.3920      2.00000
     21      -3.1071      2.00000
     22      -2.7822      2.00000
     23      -2.4598      2.00000
     24      -2.3254      2.00000
     25      -2.3178      2.00000
     26      -2.2210      2.00000
     27      -2.1323      2.00000
     28      -2.1008      2.00000
     29      -2.0613      2.00000
     30      -1.9801      2.00000
     31      -1.9734      2.00000
     32      -1.9221      2.00000
     33      -1.8382      2.00000
     34      -1.7175      2.00000
     35      -1.5221      2.00000
     36      -1.3722      2.00000
     37       2.3959      2.00000
     38       2.4017      2.00000
     39       7.0108      0.00000
     40       7.1441      0.00000
     41       7.3785      0.00000
     42       7.6436      0.00000
     43       7.7701      0.00000
     44       7.9482      0.00000
     45       8.3897      0.00000
     46       8.9858      0.00000
     47       9.5651      0.00000
     48       9.7910      0.00000
     49       9.8319      0.00000
     50      10.0247      0.00000

 k-point    10 :       0.3125    0.1875    0.0000
  band No.  band energies     occupation 
      1     -16.9203      2.00000
      2     -16.9122      2.00000
      3     -16.8782      2.00000
      4     -16.8308      2.00000
      5     -16.7744      2.00000
      6     -16.7144      2.00000
      7     -16.6576      2.00000
      8     -16.6095      2.00000
      9     -16.5759      2.00000
     10      -4.8977      2.00000
     11      -4.8053      2.00000
     12      -4.6590      2.00000
     13      -4.5835      2.00000
     14      -4.5195      2.00000
     15      -4.4976      2.00000
     16      -4.4189      2.00000
     17      -4.3490      2.00000
     18      -4.1724      2.00000
     19      -3.5631      2.00000
     20      -3.3586      2.00000
     21      -3.1389      2.00000
     22      -2.9592      2.00000
     23      -2.8119      2.00000
     24      -2.7658      2.00000
     25      -2.7466      2.00000
     26      -2.6727      2.00000
     27      -2.5501      2.00000
     28      -2.5280      2.00000
     29      -2.3715      2.00000
     30      -2.3437      2.00000
     31      -2.1883      2.00000
     32      -2.0783      2.00000
     33      -1.9809      2.00000
     34      -1.8498      2.00000
     35      -1.7333      2.00000
     36      -1.6161      2.00000
     37       3.7787      0.00000
     38       3.7845      0.00000
     39       6.9890      0.00000
     40       6.9948      0.00000
     41       7.8933      0.00000
     42       8.1348      0.00000
     43       8.4682      0.00000
     44       8.7595      0.00000
     45       8.8283      0.00000
     46       9.0203      0.00000
     47       9.3002      0.00000
     48       9.6849      0.00000
     49       9.8468      0.00000
     50       9.9129      0.00000

 k-point    11 :       0.4375    0.1875    0.0000
  band No.  band energies     occupation 
      1     -16.8161      2.00000
      2     -16.8111      2.00000
      3     -16.7767      2.00000
      4     -16.7509      2.00000
      5     -16.7175      2.00000
      6     -16.6805      2.00000
      7     -16.6445      2.00000
      8     -16.6130      2.00000
      9     -16.5902      2.00000
     10      -5.0449      2.00000
     11      -4.9466      2.00000
     12      -4.7875      2.00000
     13      -4.6092      2.00000
     14      -4.5762      2.00000
     15      -4.5338      2.00000
     16      -4.4598      2.00000
     17      -4.4433      2.00000
     18      -4.3445      2.00000
     19      -3.3503      2.00000
     20      -3.2369      2.00000
     21      -3.1525      2.00000
     22      -3.0935      2.00000
     23      -3.0573      2.00000
     24      -2.9980      2.00000
     25      -2.8924      2.00000
     26      -2.7270      2.00000
     27      -2.5466      2.00000
     28      -2.4881      2.00000
     29      -2.3978      2.00000
     30      -2.3196      2.00000
     31      -2.1977      2.00000
     32      -2.1846      2.00000
     33      -2.0357      2.00000
     34      -1.8801      2.00000
[...]
      1     -16.6216      2.00000
      2     -16.6142      2.00000
      3     -16.5971      2.00000
      4     -16.5672      2.00000
      5     -16.5331      2.00000
      6     -16.4952      2.00000
      7     -16.4618      2.00000
      8     -16.4328      2.00000
      9     -16.4156      2.00000
     10      -4.6017      2.00000
     11      -4.5000      2.00000
     12      -4.3803      2.00000
     13      -4.3556      2.00000
     14      -4.3042      2.00000
     15      -4.2479      2.00000
     16      -4.1592      2.00000
     17      -4.0087      2.00000
     18      -3.8798      2.00000
     19      -3.5677      2.00000
     20      -3.4505      2.00000
     21      -3.3541      2.00000
     22      -3.1741      2.00000
     23      -3.0593      2.00000
     24      -2.9830      2.00000
     25      -2.9219      2.00000
     26      -2.8352      2.00000
     27      -2.6845      2.00000
     28      -2.4014      2.00000
     29      -2.3451      2.00000
     30      -2.1686      2.00000
     31      -2.0015      2.00000
     32      -1.8907      2.00000
     33      -1.8523      2.00000
     34      -1.7501      2.00000
     35      -1.6853      2.00000
     36      -1.5770      2.00000
     37       4.2870      0.00000
     38       4.2946      0.00000
     39       6.6474      0.00000
     40       6.6549      0.00000
     41       8.1787      0.00000
     42       8.1860      0.00000
     43       8.7306      0.00000
     44       8.8814      0.00000
     45       9.0933      0.00000
     46       9.1733      0.00000
     47       9.2815      0.00000
     48       9.5465      0.00000
     49       9.8805      0.00000
     50      10.1894      0.00000

 k-point    17 :      -0.4375    0.3125   -0.0000
  band No.  band energies     occupation 
      1     -16.8942      2.00000
      2     -16.8667      2.00000
      3     -16.8225      2.00000
      4     -16.7584      2.00000
      5     -16.6834      2.00000
      6     -16.6024      2.00000
      7     -16.5283      2.00000
      8     -16.4660      2.00000
      9     -16.4265      2.00000
     10      -4.7356      2.00000
     11      -4.6266      2.00000
     12      -4.4649      2.00000
     13      -4.4414      2.00000
     14      -4.3564      2.00000
     15      -4.2604      2.00000
     16      -4.2262      2.00000
     17      -4.1223      2.00000
     18      -4.0432      2.00000
     19      -3.4867      2.00000
     20      -3.2014      2.00000
     21      -2.8463      2.00000
     22      -2.5114      2.00000
     23      -2.3099      2.00000
     24      -2.2688      2.00000
     25      -2.2222      2.00000
     26      -2.1781      2.00000
     27      -2.1627      2.00000
     28      -2.0572      2.00000
     29      -2.0294      2.00000
     30      -1.8918      2.00000
     31      -1.8729      2.00000
     32      -1.7398      2.00000
     33      -1.7198      2.00000
     34      -1.5973      2.00000
     35      -1.4772      2.00000
     36      -1.3456      2.00000
     37       2.9161      0.00315
     38       2.9236      0.00155
     39       6.9813      0.00000
     40       6.9893      0.00000
     41       7.4861      0.00000
     42       7.7973      0.00000
     43       8.1742      0.00000
     44       8.5000      0.00000
     45       8.6896      0.00000
     46       8.8377      0.00000
     47       9.0831      0.00000
     48       9.3041      0.00000
     49       9.4476      0.00000
     50       9.5284      0.00000

 k-point    18 :      -0.3125    0.3125    0.0000
  band No.  band energies     occupation 
      1     -17.1668      2.00000
      2     -17.1243      2.00000
      3     -17.0573      2.00000
      4     -16.9638      2.00000
      5     -16.8545      2.00000
      6     -16.7372      2.00000
      7     -16.6285      2.00000
      8     -16.5373      2.00000
      9     -16.4783      2.00000
     10      -4.4304      2.00000
     11      -4.3995      2.00000
     12      -4.3277      2.00000
     13      -4.2748      2.00000
     14      -4.1709      2.00000
     15      -4.0829      2.00000
     16      -3.9265      2.00000
     17      -3.8200      2.00000
     18      -3.7133      2.00000
     19      -3.6434      2.00000
     20      -3.3245      2.00000
     21      -2.9300      2.00000
     22      -2.5178      2.00000
     23      -2.1344      2.00000
     24      -1.8870      2.00000
     25      -1.8453      2.00000
     26      -1.8358      2.00000
     27      -1.7820      2.00000
     28      -1.6944      2.00000
     29      -1.6643      2.00000
     30      -1.5926      2.00000
     31      -1.4850      2.00000
     32      -1.4829      2.00000
     33      -1.3813      2.00000
     34      -1.2956      2.00000
     35      -1.2850      2.00000
     36      -1.2408      2.00000
     37       2.0249      2.00000
     38       2.0323      2.00000
     39       6.6208      0.00000
     40       6.7985      0.00000
     41       7.0453      0.00000
     42       7.3163      0.00000
     43       7.5997      0.00000
     44       7.9093      0.00000
     45       8.2879      0.00000
     46       8.6694      0.00000
     47       8.8736      0.00000
     48       8.9272      0.00000
     49       9.1546      0.00000
     50       9.2602      0.00000

 k-point    19 :       0.4375    0.4375    0.0000
  band No.  band energies     occupation 
      1     -16.6545      2.00000
      2     -16.6478      2.00000
      3     -16.6319      2.00000
      4     -16.6030      2.00000
      5     -16.5688      2.00000
      6     -16.5290      2.00000
      7     -16.4924      2.00000
      8     -16.4598      2.00000
      9     -16.4396      2.00000
     10      -5.0900      2.00000
     11      -4.9756      2.00000
     12      -4.8041      2.00000
     13      -4.6043      2.00000
     14      -4.5867      2.00000
     15      -4.5069      2.00000
     16      -4.4480      2.00000
     17      -4.3858      2.00000
     18      -4.3526      2.00000
     19      -2.8479      2.00000
     20      -2.8275      2.00000
     21      -2.6964      2.00000
     22      -2.6574      2.00000
     23      -2.5344      2.00000
     24      -2.4872      2.00000
     25      -2.4011      2.00000
     26      -2.3571      2.00000
     27      -2.2141      2.00000
     28      -2.1294      2.00000
     29      -2.1087      2.00000
     30      -2.0886      2.00000
     31      -1.9320      2.00000
     32      -1.9201      2.00000
     33      -1.7920      2.00000
     34      -1.6811      2.00000
     35      -1.5581      2.00000
     36      -1.4922      2.00000
     37       4.2247      0.00000
     38       4.2324      0.00000
     39       5.4725      0.00000
     40       5.4799      0.00000
     41       7.6237      0.00000
     42       7.9649      0.00000
     43       8.4394      0.00000
     44       8.7598      0.00000
     45       8.8744      0.00000
     46       9.0167      0.00000
     47       9.0990      0.00000
     48       9.3417      0.00000
     49       9.3620      0.00000
     50       9.4889      0.00000

 k-point    20 :      -0.4375    0.4375    0.0000
  band No.  band energies     occupation 
      1     -16.7733      2.00000
      2     -16.7565      2.00000
      3     -16.7275      2.00000
      4     -16.6823      2.00000
      5     -16.6289      2.00000
      6     -16.5699      2.00000
      7     -16.5161      2.00000
      8     -16.4699      2.00000
      9     -16.4409      2.00000
     10      -5.1426      2.00000
     11      -5.0268      2.00000
     12      -4.8524      2.00000
     13      -4.6779      2.00000
     14      -4.6480      2.00000
     15      -4.5763      2.00000
     16      -4.4912      2.00000
     17      -4.4186      2.00000
     18      -4.3802      2.00000
     19      -3.0924      2.00000
     20      -2.9048      2.00000
     21      -2.6227      2.00000
     22      -2.3476      2.00000
     23      -2.2416      2.00000
     24      -2.1076      2.00000
     25      -2.0593      2.00000
     26      -2.0463      2.00000
     27      -2.0171      2.00000
     28      -1.9529      2.00000
     29      -1.8642      2.00000
     30      -1.7609      2.00000
     31      -1.7261      2.00000
     32      -1.6496      2.00000
     33      -1.5463      2.00000
     34      -1.4724      2.00000
     35      -1.4592      2.00000
     36      -1.4033      2.00000
     37       3.4670      0.00000
     38       3.4745      0.00000
     39       5.8353      0.00000
     40       5.8428      0.00000
     41       7.0937      0.00000
     42       7.4812      0.00000
     43       7.9727      0.00000
     44       8.4171      0.00000
     45       8.4878      0.00000
     46       8.6371      0.00000
     47       8.6971      0.00000
     48       8.8245      0.00000
     49       8.9537      0.00000
     50       9.0091      0.00000


--------------------------------------------------------------------------------------------------------


 soft charge-density along one line, spin component           1
         0         1         2         3         4         5         6         7         8         9
 total charge-density along one line
 
 pseudopotential strength for first ion, spin component:           1
 12.717 -15.516  -0.000  -0.000  -0.000   0.000   0.000   0.000
-15.516  18.953   0.000   0.000   0.000  -0.000  -0.000  -0.000
 -0.000   0.000  -9.018  -0.000  -0.000  10.939   0.000   0.000
 -0.000   0.000  -0.000  -9.018  -0.000   0.000  10.939   0.000
 -0.000   0.000  -0.000  -0.000  -9.018   0.000   0.000  10.939
  0.000  -0.000  10.939   0.000   0.000 -13.140  -0.000  -0.000
  0.000  -0.000   0.000  10.939   0.000  -0.000 -13.140  -0.000
  0.000  -0.000   0.000   0.000  10.939  -0.000  -0.000 -13.140
 total augmentation occupancy for first ion, spin component:           1
  2.606   0.365   0.000   0.000   0.000  -0.000  -0.000  -0.000
  0.365   0.069   0.000   0.000   0.000  -0.000  -0.000  -0.000
  0.000   0.000   2.163   0.000   0.000   0.261   0.000   0.000
  0.000   0.000   0.000   2.163   0.000   0.000   0.261   0.000
  0.000   0.000   0.000   0.000   2.163   0.000   0.000   0.261
 -0.000  -0.000   0.261   0.000   0.000   0.034   0.000   0.000
 -0.000  -0.000   0.000   0.261   0.000   0.000   0.034   0.000
 -0.000  -0.000   0.000   0.000   0.261   0.000   0.000   0.034


------------------------ aborting loop because EDIFF is reached ----------------------------------------


    CHARGE:  cpu time    0.0835: real time    0.0836
    FORLOC:  cpu time    0.0021: real time    0.0021
    FORNL :  cpu time    0.4836: real time    0.4842
    STRESS:  cpu time    1.4620: real time    1.4638
    FORCOR:  cpu time    0.0119: real time    0.0119
    FORHAR:  cpu time    0.0042: real time    0.0042
    MIXING:  cpu time    0.0000: real time    0.0005
    OFIELD:  cpu time    0.0000: real time    0.0000

  FORCE on cell =-STRESS in cart. coord.  units (eV):
  Direction    XX          YY          ZZ          XY          YZ          ZX
  --------------------------------------------------------------------------------------
  Alpha Z   110.66730   110.66730   110.66730
  Ewald    8833.88493  8833.88490  8833.88493-19812.45407-19812.45407-19812.45402
  Hartree 10224.60947 10224.60946 10224.60947-19590.50688-19590.50688-19590.50688
  E(xc)    -330.96617  -330.96620  -330.96617     0.01215     0.01215     0.01216
  Local  -20016.86996-20016.86944-20016.86996 39402.05414 39402.05414 39402.05458
  n-local  -155.84867  -161.12621  -166.52356    -2.38341     1.84293    -0.27368
  augment    61.29143    61.29146    61.29143    -0.00138    -0.00138    -0.00135
  Kinetic  1266.19243  1278.67489  1291.84778    15.54252   -13.43777     0.79971
  Fock        0.00000     0.00000     0.00000     0.00000     0.00000     0.00000
  -------------------------------------------------------------------------------------
  Total       0.35604     0.35604     0.35604    -0.19909    -0.19909    -0.19909
  in kB       1.96810     1.96810     1.96810    -1.10050    -1.10050    -1.10050
  external pressure =        1.97 kB  Pullay stress =        0.00 kB


 VOLUME and BASIS-vectors are now :
 -----------------------------------------------------------------------------
  energy-cutoff  :      520.00
  volume of cell :      289.84
      direct lattice vectors                 reciprocal lattice vectors
     2.124436000 -2.124436000  0.000000000     0.313808779 -0.156904389 -0.156904389
     0.000000000  2.124436000 -2.124436000     0.156904389  0.156904389 -0.313808779
    21.406867000 21.406867000 21.406867000     0.015571327  0.015571327  0.015571327

  length of vectors
     3.004406204  3.004406204 37.077781275     0.384335692  0.384335692  0.026970330


 FORCES acting on ions
    electron-ion (+dipol)            ewald-force                    non-local-force                 convergence-correction
 -----------------------------------------------------------------------------------------------
   0.748E+03 0.748E+03 0.748E+03   -.748E+03 -.748E+03 -.748E+03   0.326E-01 0.326E-01 0.326E-01   0.127E-02 0.127E-02 0.127E-02
   0.499E+03 0.499E+03 0.499E+03   -.499E+03 -.499E+03 -.499E+03   -.286E-02 -.286E-02 -.286E-02   -.382E-02 -.382E-02 -.382E-02
   -.149E-01 -.148E-01 -.149E-01   -.635E-03 -.635E-03 -.635E-03   0.949E-19 -.136E-18 -.122E-18   0.106E-05 0.106E-05 0.106E-05
   -.249E+03 -.249E+03 -.249E+03   0.249E+03 0.249E+03 0.249E+03   0.295E-02 0.295E-02 0.295E-02   -.115E-01 -.115E-01 -.115E-01
   -.748E+03 -.748E+03 -.748E+03   0.748E+03 0.748E+03 0.748E+03   -.326E-01 -.326E-01 -.326E-01   -.127E-02 -.127E-02 -.127E-02
   -.993E+03 -.993E+03 -.993E+03   0.994E+03 0.994E+03 0.994E+03   -.953E+00 -.953E+00 -.953E+00   0.721E-02 0.721E-02 0.721E-02
   0.993E+03 0.993E+03 0.993E+03   -.994E+03 -.994E+03 -.994E+03   0.953E+00 0.953E+00 0.953E+00   -.721E-02 -.721E-02 -.721E-02
   0.249E+03 0.249E+03 0.249E+03   -.249E+03 -.249E+03 -.249E+03   -.295E-02 -.295E-02 -.295E-02   0.115E-01 0.115E-01 0.115E-01
   -.499E+03 -.499E+03 -.499E+03   0.499E+03 0.499E+03 0.499E+03   0.286E-02 0.286E-02 0.286E-02   0.381E-02 0.381E-02 0.381E-02
   0.362E+03 0.362E+03 0.362E+03   -.362E+03 -.362E+03 -.362E+03   -.403E+00 -.403E+00 -.403E+00   -.577E-03 -.577E-03 -.577E-03
   0.125E+03 0.125E+03 0.125E+03   -.125E+03 -.125E+03 -.125E+03   -.106E-02 -.106E-02 -.106E-02   0.546E-03 0.546E-03 0.546E-03
   -.125E+03 -.125E+03 -.125E+03   0.125E+03 0.125E+03 0.125E+03   0.106E-02 0.106E-02 0.106E-02   -.547E-03 -.547E-03 -.547E-03
   -.362E+03 -.362E+03 -.362E+03   0.362E+03 0.362E+03 0.362E+03   0.403E+00 0.403E+00 0.403E+00   0.578E-03 0.578E-03 0.578E-03
   0.208E+03 0.208E+03 0.208E+03   -.208E+03 -.208E+03 -.208E+03   0.679E-03 0.679E-03 0.679E-03   -.153E-03 -.153E-03 -.153E-03
   -.416E+02 -.416E+02 -.416E+02   0.416E+02 0.416E+02 0.416E+02   0.198E-02 0.198E-02 0.198E-02   -.422E-03 -.422E-03 -.422E-03
   -.291E+03 -.291E+03 -.291E+03   0.291E+03 0.291E+03 0.291E+03   0.358E-01 0.358E-01 0.358E-01   0.256E-03 0.256E-03 0.256E-03
   0.291E+03 0.291E+03 0.291E+03   -.291E+03 -.291E+03 -.291E+03   -.358E-01 -.358E-01 -.358E-01   -.256E-03 -.256E-03 -.256E-03
   0.416E+02 0.416E+02 0.416E+02   -.416E+02 -.416E+02 -.416E+02   -.198E-02 -.198E-02 -.198E-02   0.422E-03 0.422E-03 0.422E-03
   -.208E+03 -.208E+03 -.208E+03   0.208E+03 0.208E+03 0.208E+03   -.679E-03 -.679E-03 -.679E-03   0.151E-03 0.151E-03 0.151E-03
 -----------------------------------------------------------------------------------------------
   -.105E+00 -.104E+00 -.105E+00   -.398E-12 -.142E-12 -.284E-12   0.383E-15 0.161E-15 0.501E-15   -.755E-05 -.755E-05 -.755E-05
 
 
 POSITION                                       TOTAL-FORCE (eV/Angst)
 -----------------------------------------------------------------------------------
      2.70516      2.70516      2.70516        -0.001023     -0.001023     -0.001023
      4.82957      4.82957      2.70514        -0.002811     -0.002811     -0.002811
      6.95066      6.95066      6.95066         0.000000      0.000000     -0.000000
      9.07324      9.07324      6.94880         0.001780      0.001780      0.001780
     11.19616     11.19616     11.19616         0.001023      0.001023      0.001023
     13.31877     13.31878     11.19434         0.002580      0.002580      0.002580
      2.70698      0.58254      0.58254        -0.002580     -0.002580     -0.002580
      6.95250      4.82806      4.82806        -0.001780     -0.001780     -0.001780
     11.19618      9.07174      9.07175         0.002811      0.002811      0.002811
      0.55309      0.55309      0.55309         0.001551      0.001551      0.001551
      4.82885      4.82885      4.82885        -0.001569     -0.001569     -0.001569
      9.07247      9.07247      9.07247         0.001569      0.001569      0.001569
     13.34821     13.34821     13.34821        -0.001551     -0.001551     -0.001551
      4.82973      2.70529      2.70529         0.000176      0.000176      0.000176
      9.07402      6.94959      6.94959         0.003734      0.003734      0.003734
     13.32075     11.19631     11.19631        -0.001056     -0.001056     -0.001056
      2.70501      2.70501      0.58057         0.001056      0.001056      0.001056
      6.95173      6.95173      4.82730        -0.003734     -0.003734     -0.003734
     11.19601     11.19601      9.07157        -0.000176     -0.000176     -0.000176
 -----------------------------------------------------------------------------------
    total drift:                               -0.104540     -0.103985     -0.104540


--------------------------------------------------------------------------------------------------------



  FREE ENERGIE OF THE ION-ELECTRON SYSTEM (eV)
  ---------------------------------------------------
  free  energy   TOTEN  =      -106.96753850 eV

  energy  without entropy=     -106.96399768  energy(sigma->0) =     -106.96576809
 
 d Force = 0.9344497E-05[ 0.776E-05, 0.109E-04]  d Energy = 0.1007757E-04-0.733E-06
 d Force =-0.1032869E+01[-0.103E+01,-0.103E+01]  d Ewald  =-0.1032869E+01-0.866E-09


--------------------------------------------------------------------------------------------------------


    POTLOK:  cpu time    0.0129: real time    0.0133


--------------------------------------------------------------------------------------------------------


 stress matrix after NEB project (eV)
      0.35604     -0.19909     -0.19909
     -0.19909      0.35604     -0.19909
     -0.19909     -0.19909      0.35604
  FORCES: max atom, RMS     0.006467    0.003497
  FORCE total and by dimension    0.015243    0.003734
  Stress total and by dimension    0.786196    0.356040


--------------------------------------------------------------------------------------------------------


  
 reached required accuracy - stopping structural energy minimisation
     LOOP+:  cpu time   16.0826: real time   16.1262
    4ORBIT:  cpu time    0.0000: real time    0.0000

 total amount of memory used by VASP MPI-rank0    44144. kBytes
=======================================================================

   base      :      30000. kBytes
   nonlr-proj:       2381. kBytes
   fftplans  :       2110. kBytes
   grid      :       3053. kBytes
   one-center:         40. kBytes
   wavefun   :       6560. kBytes
 
  
  
 General timing and accounting informations for this job:
 ========================================================
  
                  Total CPU time used (sec):      278.845
                            User time (sec):      278.118
                          System time (sec):        0.727
                         Elapsed time (sec):      281.870
  
                   Maximum memory used (kb):      101536.
                   Average memory used (kb):           0.
  
                          Minor page faults:        63351
                          Major page faults:            0
                 Voluntary context switches:          387
