       N       E                     dE             d eps       ncg     rms          rms(c)
DAV:   1     0.569643312980E+03    0.56964E+03   -0.48196E+04  2856   0.137E+03
DAV:   2    -0.103519218522E+03   -0.67316E+03   -0.63988E+03  3688   0.266E+02
DAV:   3    -0.167374143741E+03   -0.63855E+02   -0.63464E+02  3336   0.894E+01
DAV:   4    -0.168293136176E+03   -0.91899E+00   -0.91683E+00  3360   0.116E+01
DAV:   5    -0.168309552652E+03   -0.16416E-01   -0.16402E-01  3376   0.149E+00    0.240E+01
DAV:   6    -0.151307063122E+03    0.17002E+02   -0.97822E+01  3288   0.325E+01    0.825E+00
DAV:   7    -0.151205077256E+03    0.10199E+00   -0.27991E+00  3148   0.615E+00    0.501E+00
DAV:   8    -0.151119044565E+03    0.86033E-01   -0.87334E-01  3368   0.470E+00    0.137E+00
DAV:   9    -0.151083573561E+03    0.35471E-01   -0.14992E-01  3372   0.188E+00    0.606E-01
DAV:  10    -0.151088611991E+03   -0.50384E-02   -0.12322E-01  3176   0.141E+00    0.444E-01
DAV:  11    -0.151085194662E+03    0.34173E-02   -0.13611E-02  3764   0.609E-01    0.204E-01
DAV:  12    -0.151085500399E+03   -0.30574E-03   -0.86426E-03  3220   0.361E-01    0.105E-01
DAV:  13    -0.151085399931E+03    0.10047E-03   -0.80576E-04  3636   0.157E-01    0.800E-02
DAV:  14    -0.151085257187E+03    0.14274E-03   -0.67554E-04  3696   0.142E-01    0.245E-02
DAV:  15    -0.151085217902E+03    0.39285E-04   -0.16657E-04  3288   0.731E-02    0.982E-03
DAV:  16    -0.151085165688E+03    0.52214E-04   -0.27687E-05  2516   0.673E-02    0.941E-03
DAV:  17    -0.151085120585E+03    0.45103E-04   -0.64559E-05  3404   0.811E-02    0.846E-03
DAV:  18    -0.151085092867E+03    0.27719E-04   -0.59710E-05  3196   0.897E-02    0.518E-03
DAV:  19    -0.151085084482E+03    0.83848E-05   -0.59274E-05  3192   0.742E-02
   1 F= -.15108508E+03 E0= -.15108365E+03  d E =-.151085E+03
       N       E                     dE             d eps       ncg     rms          rms(c)
DAV:   1    -0.151086807329E+03   -0.17145E-02   -0.30476E-02  2968   0.751E-01    0.493E-02
DAV:   2    -0.151086830643E+03   -0.23313E-04   -0.17542E-03  3304   0.189E-01    0.409E-02
DAV:   3    -0.151086805431E+03    0.25212E-04   -0.12663E-04  3256   0.555E-02    0.312E-02
DAV:   4    -0.151086769286E+03    0.36144E-04   -0.13430E-04  3124   0.582E-02    0.121E-02
DAV:   5    -0.151086748403E+03    0.20884E-04   -0.31299E-05  2864   0.524E-02    0.156E-02
DAV:   6    -0.151086731897E+03    0.16506E-04   -0.26319E-05  2536   0.482E-02    0.721E-03
DAV:   7    -0.151086715381E+03    0.16515E-04   -0.31849E-05  2748   0.616E-02    0.112E-02
DAV:   8    -0.151086693692E+03    0.21690E-04   -0.15438E-05  2312   0.954E-02    0.171E-02
DAV:   9    -0.151086689523E+03    0.41692E-05   -0.49634E-05  2860   0.391E-02
   2 F= -.15108669E+03 E0= -.15108522E+03  d E =-.160504E-02
       N       E                     dE             d eps       ncg     rms          rms(c)
DAV:   1    -0.151087432902E+03   -0.73921E-03   -0.40410E-02  2944   0.864E-01    0.448E-02
DAV:   2    -0.151087467963E+03   -0.35060E-04   -0.19227E-03  3296   0.189E-01    0.452E-02
DAV:   3    -0.151087433178E+03    0.34785E-04   -0.98647E-05  3232   0.509E-02    0.353E-02
DAV:   4    -0.151087377570E+03    0.55607E-04   -0.25337E-04  3220   0.855E-02    0.183E-02
DAV:   5    -0.151087360571E+03    0.16999E-04   -0.55710E-05  3256   0.480E-02    0.210E-02
DAV:   6    -0.151087342857E+03    0.17714E-04   -0.35791E-05  2824   0.346E-02    0.754E-03
DAV:   7    -0.151087324560E+03    0.18297E-04   -0.18907E-05  2556   0.459E-02    0.826E-03
DAV:   8    -0.151087303390E+03    0.21170E-04   -0.82192E-06  2076   0.590E-02    0.101E-02
DAV:   9    -0.151087274501E+03    0.28889E-04   -0.15018E-05  2400   0.913E-02    0.771E-03
DAV:  10    -0.151087236350E+03    0.38151E-04   -0.87305E-05  3604   0.211E-01    0.369E-03
DAV:  11    -0.151087245747E+03   -0.93969E-05   -0.13738E-04  3360   0.990E-02    0.362E-03
DAV:  12    -0.151087252116E+03   -0.63692E-05   -0.76323E-05  2756   0.320E-02
   3 F= -.15108725E+03 E0= -.15108573E+03  d E =-.216763E-02
       N       E                     dE             d eps       ncg     rms          rms(c)
DAV:   1    -0.151088253752E+03   -0.10080E-02   -0.34678E-02  2904   0.799E-01    0.329E-02
DAV:   2    -0.151088320070E+03   -0.66319E-04   -0.10290E-03  3240   0.133E-01    0.196E-02
DAV:   3    -0.151088312032E+03    0.80385E-05   -0.37965E-05  2992   0.321E-02    0.147E-02
DAV:   4    -0.151088302949E+03    0.90828E-05   -0.22176E-05  2448   0.255E-02    0.660E-03
DAV:   5    -0.151088297553E+03    0.53960E-05   -0.61912E-06  2088   0.273E-02    0.561E-03
DAV:   6    -0.151088294323E+03    0.32296E-05   -0.73539E-06  1988   0.278E-02
   4 F= -.15108829E+03 E0= -.15108675E+03  d E =-.104221E-02
       N       E                     dE             d eps       ncg     rms          rms(c)
DAV:   1    -0.151090029488E+03   -0.17319E-02   -0.31197E-01  2880   0.240E+00    0.899E-02
DAV:   2    -0.151090673872E+03   -0.64438E-03   -0.92427E-03  3240   0.388E-01    0.598E-02
DAV:   3    -0.151090594621E+03    0.79250E-04   -0.25471E-04  3344   0.851E-02    0.445E-02
DAV:   4    -0.151090497848E+03    0.96773E-04   -0.22429E-04  3296   0.844E-02    0.201E-02
DAV:   5    -0.151090452394E+03    0.45454E-04   -0.59780E-05  3424   0.768E-02    0.184E-02
DAV:   6    -0.151090418861E+03    0.33533E-04   -0.55079E-05  3120   0.781E-02    0.909E-03
DAV:   7    -0.151090395321E+03    0.23540E-04   -0.37405E-05  2876   0.756E-02    0.763E-03
DAV:   8    -0.151090370577E+03    0.24744E-04   -0.17458E-05  2316   0.696E-02    0.513E-03
DAV:   9    -0.151090350210E+03    0.20367E-04   -0.16109E-05  2428   0.823E-02    0.411E-03
DAV:  10    -0.151090335518E+03    0.14692E-04   -0.31017E-05  2764   0.968E-02    0.717E-03
DAV:  11    -0.151090324231E+03    0.11287E-04   -0.28574E-05  2648   0.873E-02    0.321E-03
DAV:  12    -0.151090326707E+03   -0.24758E-05   -0.64127E-05  3008   0.506E-02
   5 F= -.15109033E+03 E0= -.15108874E+03  d E =-.307459E-02
       N       E                     dE             d eps       ncg     rms          rms(c)
DAV:   1    -0.151088178755E+03    0.21455E-02   -0.12470E+00  2912   0.481E+00    0.187E-01
DAV:   2    -0.151090780410E+03   -0.26017E-02   -0.37554E-02  3224   0.779E-01    0.119E-01
DAV:   3    -0.151090492057E+03    0.28835E-03   -0.10661E-03  3336   0.170E-01    0.896E-02
DAV:   4    -0.151090178572E+03    0.31348E-03   -0.86997E-04  3328   0.155E-01    0.396E-02
DAV:   5    -0.151090017609E+03    0.16096E-03   -0.21358E-04  3784   0.139E-01    0.347E-02
DAV:   6    -0.151089906841E+03    0.11077E-03   -0.18479E-04  4120   0.132E-01    0.190E-02
DAV:   7    -0.151089839486E+03    0.67354E-04   -0.15318E-04  3784   0.120E-01    0.156E-02
DAV:   8    -0.151089779168E+03    0.60318E-04   -0.66780E-05  3136   0.924E-02    0.780E-03
DAV:   9    -0.151089712560E+03    0.66609E-04   -0.37375E-05  2924   0.127E-01    0.808E-03
DAV:  10    -0.151089693109E+03    0.19451E-04   -0.79017E-05  2948   0.671E-02    0.805E-03
DAV:  11    -0.151089643193E+03    0.49916E-04   -0.35033E-05  2684   0.143E-01    0.759E-03
DAV:  12    -0.151089623537E+03    0.19656E-04   -0.86346E-05  3352   0.959E-02    0.101E-02
DAV:  13    -0.151089625020E+03   -0.14833E-05   -0.10134E-04  3008   0.387E-02    0.139E-02
DAV:  14    -0.151089618019E+03    0.70009E-05   -0.87616E-06  2008   0.368E-02
   6 F= -.15108962E+03 E0= -.15108805E+03  d E =-.236590E-02
       N       E                     dE             d eps       ncg     rms          rms(c)
DAV:   1    -0.151090299910E+03   -0.67489E-03   -0.44762E-01  2856   0.285E+00    0.104E-01
DAV:   2    -0.151091163291E+03   -0.86338E-03   -0.12261E-02  3252   0.432E-01    0.598E-02
DAV:   3    -0.151091074206E+03    0.89085E-04   -0.28516E-04  3384   0.871E-02    0.447E-02
DAV:   4    -0.151090970945E+03    0.10326E-03   -0.20017E-04  3368   0.877E-02    0.211E-02
DAV:   5    -0.151090918747E+03    0.52198E-04   -0.80698E-05  3592   0.804E-02    0.183E-02
DAV:   6    -0.151090891286E+03    0.27462E-04   -0.72614E-05  3188   0.680E-02    0.925E-03
DAV:   7    -0.151090867323E+03    0.23963E-04   -0.15548E-05  2276   0.618E-02    0.605E-03
DAV:   8    -0.151090851775E+03    0.15548E-04   -0.21517E-05  2408   0.521E-02    0.488E-03
DAV:   9    -0.151090836384E+03    0.15390E-04   -0.86257E-06  2068   0.590E-02    0.296E-03
DAV:  10    -0.151090826801E+03    0.95834E-05   -0.19175E-05  2384   0.568E-02
   7 F= -.15109083E+03 E0= -.15108923E+03  d E =-.357469E-02
       N       E                     dE             d eps       ncg     rms          rms(c)
DAV:   1    -0.151091641619E+03   -0.80523E-03   -0.36653E-02  2888   0.788E-01    0.281E-02
DAV:   2    -0.151091727339E+03   -0.85720E-04   -0.10028E-03  3228   0.113E-01    0.146E-02
DAV:   3    -0.151091722311E+03    0.50281E-05   -0.12504E-05  2180   0.179E-02    0.995E-03
DAV:   4    -0.151091717497E+03    0.48134E-05   -0.68278E-06  1800   0.193E-02    0.384E-03
DAV:   5    -0.151091715475E+03    0.20225E-05   -0.43514E-06  1824   0.170E-02    0.292E-03
DAV:   6    -0.151091713873E+03    0.16023E-05   -0.27785E-06  1700   0.139E-02
   8 F= -.15109171E+03 E0= -.15109011E+03  d E =-.887072E-03
       N       E                     dE             d eps       ncg     rms          rms(c)
DAV:   1    -0.151093476500E+03   -0.17610E-02   -0.33019E-01  2856   0.236E+00    0.809E-02
DAV:   2    -0.151094239798E+03   -0.76330E-03   -0.88661E-03  3208   0.329E-01    0.456E-02
DAV:   3    -0.151094200396E+03    0.39402E-04   -0.96787E-05  3344   0.517E-02    0.311E-02
DAV:   4    -0.151094174887E+03    0.25509E-04   -0.66971E-05  3300   0.497E-02    0.119E-02
DAV:   5    -0.151094169997E+03    0.48903E-05   -0.26182E-05  2668   0.327E-02    0.611E-03
DAV:   6    -0.151094164686E+03    0.53114E-05   -0.90654E-06  1876   0.277E-02
   9 F= -.15109416E+03 E0= -.15109257E+03  d E =-.333788E-02
       N       E                     dE             d eps       ncg     rms          rms(c)
DAV:   1    -0.151095261587E+03   -0.10916E-02   -0.13216E+00  2856   0.471E+00    0.163E-01
DAV:   2    -0.151098325187E+03   -0.30636E-02   -0.35654E-02  3196   0.657E-01    0.932E-02
DAV:   3    -0.151098159000E+03    0.16619E-03   -0.37336E-04  3352   0.104E-01    0.629E-02
DAV:   4    -0.151098056614E+03    0.10239E-03   -0.28257E-04  3348   0.102E-01    0.232E-02
DAV:   5    -0.151098041614E+03    0.15000E-04   -0.11462E-04  3260   0.634E-02    0.115E-02
DAV:   6    -0.151098023713E+03    0.17901E-04   -0.24116E-05  2456   0.459E-02    0.676E-03
DAV:   7    -0.151098010808E+03    0.12904E-04   -0.98579E-06  1964   0.348E-02    0.528E-03
DAV:   8    -0.151097979156E+03    0.31652E-04   -0.15116E-05  2232   0.810E-02    0.633E-03
DAV:   9    -0.151097957903E+03    0.21253E-04   -0.26505E-05  2576   0.657E-02    0.793E-03
DAV:  10    -0.151097941284E+03    0.16619E-04   -0.15711E-05  2288   0.627E-02    0.534E-03
DAV:  11    -0.151097913142E+03    0.28142E-04   -0.46470E-05  2932   0.177E-01    0.652E-03
DAV:  12    -0.151097917601E+03   -0.44598E-05   -0.10057E-04  3240   0.878E-02    0.808E-03
DAV:  13    -0.151097922044E+03   -0.44425E-05   -0.70103E-05  2720   0.314E-02
  10 F= -.15109792E+03 E0= -.15109635E+03  d E =-.709524E-02
       N       E                     dE             d eps       ncg     rms          rms(c)
DAV:   1    -0.151090098662E+03    0.78189E-02   -0.52851E+00  2856   0.942E+00    0.324E-01
DAV:   2    -0.151102389780E+03   -0.12291E-01   -0.14401E-01  3196   0.131E+00    0.195E-01
DAV:   3    -0.151101687738E+03    0.70204E-03   -0.15090E-03  3336   0.204E-01    0.130E-01
DAV:   4    -0.151101325034E+03    0.36270E-03   -0.13362E-03  3316   0.201E-01    0.476E-02
DAV:   5    -0.151101305466E+03    0.19568E-04   -0.47755E-04  3260   0.100E-01    0.225E-02
DAV:   6    -0.151101281408E+03    0.24059E-04   -0.79721E-05  3312   0.542E-02    0.123E-02
DAV:   7    -0.151101265319E+03    0.16089E-04   -0.17971E-05  2252   0.385E-02    0.988E-03
DAV:   8    -0.151101228703E+03    0.36616E-04   -0.17127E-05  2204   0.748E-02    0.626E-03
DAV:   9    -0.151101207728E+03    0.20975E-04   -0.26153E-05  2548   0.522E-02    0.853E-03
DAV:  10    -0.151101184509E+03    0.23218E-04   -0.26409E-05  2568   0.612E-02    0.720E-03
DAV:  11    -0.151101132795E+03    0.51714E-04   -0.57463E-05  3288   0.178E-01    0.168E-02
DAV:  12    -0.151101107002E+03    0.25794E-04   -0.10921E-04  3852   0.190E-01    0.154E-02
DAV:  13    -0.151101118823E+03   -0.11822E-04   -0.22750E-04  2952   0.662E-02    0.105E-02
DAV:  14    -0.151101120386E+03   -0.15623E-05   -0.27079E-05  2424   0.192E-02
  11 F= -.15110112E+03 E0= -.15109933E+03  d E =-.102936E-01
       N       E                     dE             d eps       ncg     rms          rms(c)
DAV:   1    -0.151103266560E+03   -0.21477E-02   -0.43651E-01  2920   0.281E+00    0.902E-02
DAV:   2    -0.151104173931E+03   -0.90737E-03   -0.10826E-02  3220   0.392E-01    0.509E-02
DAV:   3    -0.151104113834E+03    0.60096E-04   -0.12787E-04  3284   0.524E-02    0.342E-02
DAV:   4    -0.151104077737E+03    0.36097E-04   -0.11594E-04  3304   0.589E-02    0.129E-02
DAV:   5    -0.151104074365E+03    0.33727E-05   -0.66072E-05  3204   0.334E-02    0.922E-03
DAV:   6    -0.151104072669E+03    0.16951E-05   -0.66280E-06  1728   0.127E-02
  12 F= -.15110407E+03 E0= -.15110213E+03  d E =-.295228E-02
       N       E                     dE             d eps       ncg     rms          rms(c)
DAV:   1    -0.151103920948E+03    0.15342E-03   -0.39260E+00  2904   0.843E+00    0.270E-01
DAV:   2    -0.151112133006E+03   -0.82121E-02   -0.98942E-02  3232   0.119E+00    0.163E-01
DAV:   3    -0.151111492849E+03    0.64016E-03   -0.19080E-03  3328   0.170E-01    0.108E-01
DAV:   4    -0.151111282360E+03    0.21049E-03   -0.97939E-04  3264   0.129E-01    0.667E-02
DAV:   5    -0.151111061919E+03    0.22044E-03   -0.62922E-04  3372   0.124E-01    0.218E-02
DAV:   6    -0.151111050424E+03    0.11494E-04   -0.20603E-04  3296   0.750E-02    0.156E-02
DAV:   7    -0.151111039908E+03    0.10516E-04   -0.26054E-05  2584   0.224E-02    0.118E-02
DAV:   8    -0.151111019882E+03    0.20026E-04   -0.18452E-05  2288   0.291E-02    0.499E-03
DAV:   9    -0.151111011554E+03    0.83283E-05   -0.73359E-06  2064   0.218E-02
  13 F= -.15111101E+03 E0= -.15110855E+03  d E =-.989117E-02
       N       E                     dE             d eps       ncg     rms          rms(c)
DAV:   1    -0.151087749803E+03    0.23270E-01   -0.15703E+01  2904   0.170E+01    0.552E-01
DAV:   2    -0.151120603415E+03   -0.32854E-01   -0.40640E-01  3204   0.243E+00    0.335E-01
DAV:   3    -0.151118258663E+03    0.23448E-02   -0.59077E-03  3336   0.349E-01    0.223E-01
DAV:   4    -0.151117719528E+03    0.53913E-03   -0.56232E-03  3272   0.287E-01    0.144E-01
DAV:   5    -0.151116586811E+03    0.11327E-02   -0.34031E-03  3312   0.232E-01    0.570E-02
DAV:   6    -0.151116524164E+03    0.62647E-04   -0.66671E-04  3280   0.137E-01    0.328E-02
DAV:   7    -0.151116451983E+03    0.72182E-04   -0.13291E-04  3400   0.596E-02    0.187E-02
DAV:   8    -0.151116381060E+03    0.70923E-04   -0.29388E-05  2528   0.553E-02    0.950E-03
DAV:   9    -0.151116320756E+03    0.60304E-04   -0.48520E-05  3060   0.697E-02    0.811E-03
DAV:  10    -0.151116256546E+03    0.64210E-04   -0.74191E-05  3436   0.111E-01    0.709E-03
DAV:  11    -0.151116239024E+03    0.17522E-04   -0.85050E-05  3328   0.720E-02    0.682E-03
DAV:  12    -0.151116222639E+03    0.16385E-04   -0.16940E-05  2408   0.605E-02    0.363E-03
DAV:  13    -0.151116212195E+03    0.10444E-04   -0.13513E-05  2200   0.537E-02    0.399E-03
DAV:  14    -0.151116200387E+03    0.11808E-04   -0.90572E-06  2076   0.743E-02    0.354E-03
DAV:  15    -0.151116190336E+03    0.10051E-04   -0.20558E-05  2528   0.930E-02    0.384E-03
DAV:  16    -0.151116192817E+03   -0.24812E-05   -0.52386E-05  2848   0.358E-02
  14 F= -.15111619E+03 E0= -.15111308E+03  d E =-.150724E-01
       N       E                     dE             d eps       ncg     rms          rms(c)
DAV:   1    -0.151118945903E+03   -0.27556E-02   -0.44803E-01  2856   0.288E+00    0.979E-02
DAV:   2    -0.151119599643E+03   -0.65374E-03   -0.11023E-02  3184   0.412E-01    0.514E-02
DAV:   3    -0.151119556946E+03    0.42697E-04   -0.20627E-04  3320   0.573E-02    0.354E-02
DAV:   4    -0.151119541915E+03    0.15031E-04   -0.13895E-04  3244   0.438E-02    0.196E-02
DAV:   5    -0.151119528381E+03    0.13534E-04   -0.87840E-05  2684   0.299E-02    0.127E-02
DAV:   6    -0.151119524729E+03    0.36516E-05   -0.14750E-05  1904   0.179E-02
  15 F= -.15111952E+03 E0= -.15111618E+03  d E =-.333191E-02
       N       E                     dE             d eps       ncg     rms          rms(c)
DAV:   1    -0.151124380248E+03   -0.48519E-02   -0.40313E+00  2856   0.865E+00    0.303E-01
DAV:   2    -0.151130236355E+03   -0.58561E-02   -0.10271E-01  3128   0.124E+00    0.161E-01
DAV:   3    -0.151129724977E+03    0.51138E-03   -0.31268E-03  3316   0.187E-01    0.118E-01
DAV:   4    -0.151129555735E+03    0.16924E-03   -0.14228E-03  3204   0.102E-01    0.765E-02
DAV:   5    -0.151129300648E+03    0.25509E-03   -0.10068E-03  3256   0.120E-01    0.367E-02
DAV:   6    -0.151129286051E+03    0.14597E-04   -0.17214E-04  3328   0.680E-02    0.267E-02
DAV:   7    -0.151129270578E+03    0.15472E-04   -0.10596E-04  3320   0.586E-02    0.153E-02
DAV:   8    -0.151129261363E+03    0.92151E-05   -0.21430E-05  2328   0.364E-02
  16 F= -.15112926E+03 E0= -.15112598E+03  d E =-.130685E-01
       N       E                     dE             d eps       ncg     rms          rms(c)
DAV:   1    -0.151119918660E+03    0.93519E-02   -0.16113E+01  2856   0.172E+01    0.615E-01
DAV:   2    -0.151145964428E+03   -0.26046E-01   -0.41574E-01  3104   0.243E+00    0.312E-01
DAV:   3    -0.151144157607E+03    0.18068E-02   -0.66974E-03  3328   0.325E-01    0.211E-01
DAV:   4    -0.151143104465E+03    0.10531E-02   -0.50323E-03  3252   0.299E-01    0.798E-02
DAV:   5    -0.151143063270E+03    0.41194E-04   -0.96429E-04  3320   0.155E-01    0.537E-02
DAV:   6    -0.151143036399E+03    0.26872E-04   -0.44897E-04  3660   0.122E-01    0.294E-02
DAV:   7    -0.151143017205E+03    0.19194E-04   -0.79807E-05  3216   0.494E-02    0.176E-02
DAV:   8    -0.151142994970E+03    0.22235E-04   -0.34294E-05  3032   0.406E-02    0.994E-03
DAV:   9    -0.151142985253E+03    0.97175E-05   -0.14086E-05  2152   0.356E-02
  17 F= -.15114299E+03 E0= -.15114056E+03  d E =-.267924E-01
       N       E                     dE             d eps       ncg     rms          rms(c)
DAV:   1    -0.150993674632E+03    0.14932E+00   -0.64187E+01  2856   0.338E+01    0.126E+00
DAV:   2    -0.151118518708E+03   -0.12484E+00   -0.17554E+00  3224   0.487E+00    0.718E-01
DAV:   3    -0.151108885168E+03    0.96335E-02   -0.37361E-02  3304   0.679E-01    0.452E-01
DAV:   4    -0.151104860710E+03    0.40245E-02   -0.16183E-02  3256   0.490E-01    0.197E-01
DAV:   5    -0.151104216042E+03    0.64467E-03   -0.44283E-03  3304   0.275E-01    0.967E-02
DAV:   6    -0.151104197426E+03    0.18617E-04   -0.14344E-03  3652   0.218E-01    0.570E-02
DAV:   7    -0.151104171452E+03    0.25974E-04   -0.31408E-04  3320   0.797E-02    0.403E-02
DAV:   8    -0.151104106051E+03    0.65401E-04   -0.13690E-04  3392   0.638E-02    0.198E-02
DAV:   9    -0.151104073277E+03    0.32774E-04   -0.42639E-05  3112   0.625E-02    0.133E-02
DAV:  10    -0.151104060519E+03    0.12758E-04   -0.13254E-04  3296   0.763E-02    0.154E-02
DAV:  11    -0.151104055984E+03    0.45357E-05   -0.41520E-05  2824   0.303E-02
  18 F= -.15110406E+03 E0= -.15110237E+03  d E =0.121368E-01
       N       E                     dE             d eps       ncg     rms          rms(c)
DAV:   1    -0.151060523035E+03    0.43537E-01   -0.49651E+01  2856   0.288E+01    0.106E+00
DAV:   2    -0.151152006058E+03   -0.91483E-01   -0.12613E+00  3152   0.411E+00    0.565E-01
DAV:   3    -0.151146773665E+03    0.52324E-02   -0.17385E-02  3376   0.594E-01    0.368E-01
DAV:   4    -0.151144183635E+03    0.25900E-02   -0.11499E-02  3292   0.532E-01    0.137E-01
DAV:   5    -0.151144152170E+03    0.31465E-04   -0.26891E-03  3320   0.240E-01    0.838E-02
DAV:   6    -0.151144104116E+03    0.48054E-04   -0.12990E-03  3352   0.174E-01    0.468E-02
DAV:   7    -0.151144068400E+03    0.35716E-04   -0.22494E-04  3368   0.751E-02    0.337E-02
DAV:   8    -0.151144038962E+03    0.29438E-04   -0.21869E-04  3264   0.709E-02    0.230E-02
DAV:   9    -0.151144014706E+03    0.24255E-04   -0.25576E-05  2632   0.542E-02    0.172E-02
DAV:  10    -0.151144006355E+03    0.83510E-05   -0.62700E-05  2912   0.420E-02
  19 F= -.15114401E+03 E0= -.15114199E+03  d E =-.278135E-01
       N       E                     dE             d eps       ncg     rms          rms(c)
DAV:   1    -0.151151321955E+03   -0.73072E-02   -0.62560E-01  2944   0.329E+00    0.108E-01
DAV:   2    -0.151152008566E+03   -0.68661E-03   -0.13380E-02  3328   0.464E-01    0.669E-02
DAV:   3    -0.151151856251E+03    0.15232E-03   -0.29077E-04  3392   0.943E-02    0.479E-02
DAV:   4    -0.151151693985E+03    0.16227E-03   -0.30761E-04  3456   0.112E-01    0.205E-02
DAV:   5    -0.151151650151E+03    0.43834E-04   -0.13149E-04  3416   0.687E-02    0.181E-02
DAV:   6    -0.151151613651E+03    0.36499E-04   -0.65980E-05  3000   0.536E-02    0.939E-03
DAV:   7    -0.151151545167E+03    0.68484E-04   -0.18718E-05  2336   0.741E-02    0.796E-03
DAV:   8    -0.151151438426E+03    0.10674E-03   -0.75128E-05  3560   0.142E-01    0.740E-03
DAV:   9    -0.151151332053E+03    0.10637E-03   -0.14348E-04  4104   0.208E-01    0.968E-03
DAV:  10    -0.151151295626E+03    0.36428E-04   -0.16313E-04  3784   0.153E-01    0.994E-03
DAV:  11    -0.151151300520E+03   -0.48943E-05   -0.17365E-04  3060   0.696E-02    0.109E-02
DAV:  12    -0.151151302740E+03   -0.22197E-05   -0.26124E-05  2456   0.183E-02
  20 F= -.15115130E+03 E0= -.15114953E+03  d E =-.729638E-02
       N       E                     dE             d eps       ncg     rms          rms(c)
DAV:   1    -0.151154629879E+03   -0.33294E-02   -0.10735E+00  2944   0.431E+00    0.142E-01
DAV:   2    -0.151155869270E+03   -0.12394E-02   -0.22488E-02  3296   0.605E-01    0.883E-02
DAV:   3    -0.151155593148E+03    0.27612E-03   -0.50371E-04  3408   0.120E-01    0.617E-02
DAV:   4    -0.151155338679E+03    0.25447E-03   -0.47308E-04  3480   0.134E-01    0.275E-02
DAV:   5    -0.151155235787E+03    0.10289E-03   -0.19826E-04  3576   0.945E-02    0.196E-02
DAV:   6    -0.151155128426E+03    0.10736E-03   -0.13307E-04  3656   0.999E-02    0.154E-02
DAV:   7    -0.151155037442E+03    0.90984E-04   -0.51200E-05  3184   0.854E-02    0.135E-02
DAV:   8    -0.151154884348E+03    0.15309E-03   -0.11148E-04  3904   0.158E-01    0.115E-02
DAV:   9    -0.151154740871E+03    0.14348E-03   -0.15195E-04  3912   0.204E-01    0.188E-02
DAV:  10    -0.151154670240E+03    0.70631E-04   -0.19011E-04  3920   0.168E-01    0.979E-03
DAV:  11    -0.151154642441E+03    0.27799E-04   -0.14667E-04  3656   0.140E-01    0.932E-03
DAV:  12    -0.151154628322E+03    0.14119E-04   -0.63568E-05  3184   0.111E-01    0.408E-03
DAV:  13    -0.151154635229E+03   -0.69070E-05   -0.10406E-04  3044   0.491E-02    0.850E-03
DAV:  14    -0.151154634536E+03    0.69246E-06   -0.78397E-06  1796   0.122E-02
  21 F= -.15115463E+03 E0= -.15115303E+03  d E =-.106282E-01
       N       E                     dE             d eps       ncg     rms          rms(c)
DAV:   1    -0.151158009917E+03   -0.33747E-02   -0.10391E+00  2936   0.420E+00    0.131E-01
DAV:   2    -0.151159958247E+03   -0.19483E-02   -0.22491E-02  3312   0.583E-01    0.834E-02
DAV:   3    -0.151159822341E+03    0.13591E-03   -0.28934E-04  3356   0.876E-02    0.606E-02
DAV:   4    -0.151159735022E+03    0.87319E-04   -0.73960E-04  3336   0.150E-01    0.293E-02
DAV:   5    -0.151159736095E+03   -0.10730E-05   -0.19026E-04  3180   0.602E-02    0.328E-02
DAV:   6    -0.151159725801E+03    0.10295E-04   -0.28705E-05  2344   0.234E-02    0.215E-02
DAV:   7    -0.151159716429E+03    0.93715E-05   -0.20069E-05  2028   0.218E-02
  22 F= -.15115972E+03 E0= -.15115815E+03  d E =-.508189E-02
       N       E                     dE             d eps       ncg     rms          rms(c)
DAV:   1    -0.151154342700E+03    0.53831E-02   -0.62550E+00  2904   0.103E+01    0.321E-01
DAV:   2    -0.151166197778E+03   -0.11855E-01   -0.13650E-01  3328   0.144E+00    0.209E-01
DAV:   3    -0.151165328815E+03    0.86896E-03   -0.17905E-03  3364   0.221E-01    0.151E-01
DAV:   4    -0.151164748319E+03    0.58050E-03   -0.40746E-03  3336   0.361E-01    0.668E-02
DAV:   5    -0.151164740673E+03    0.76455E-05   -0.12193E-03  3284   0.157E-01    0.764E-02
DAV:   6    -0.151164677862E+03    0.62811E-04   -0.18420E-04  3260   0.604E-02    0.492E-02
DAV:   7    -0.151164621149E+03    0.56712E-04   -0.78158E-05  3252   0.431E-02    0.301E-02
DAV:   8    -0.151164561213E+03    0.59937E-04   -0.18906E-04  3376   0.918E-02    0.183E-02
DAV:   9    -0.151164532774E+03    0.28439E-04   -0.13590E-04  3596   0.863E-02    0.185E-02
DAV:  10    -0.151164481163E+03    0.51611E-04   -0.16486E-05  2280   0.846E-02    0.140E-02
DAV:  11    -0.151164423640E+03    0.57523E-04   -0.10209E-04  3644   0.119E-01    0.136E-02
DAV:  12    -0.151164361112E+03    0.62528E-04   -0.10938E-04  3776   0.203E-01    0.260E-02
DAV:  13    -0.151164331761E+03    0.29352E-04   -0.14008E-04  3720   0.160E-01    0.271E-02
DAV:  14    -0.151164330835E+03    0.92560E-06   -0.15561E-04  2980   0.499E-02    0.183E-02
DAV:  15    -0.151164328065E+03    0.27704E-05   -0.26630E-05  2352   0.205E-02
  23 F= -.15116433E+03 E0= -.15116283E+03  d E =-.969353E-02
       N       E                     dE             d eps       ncg     rms          rms(c)
DAV:   1    -0.151166129581E+03   -0.17987E-02   -0.13425E+00  2912   0.477E+00    0.139E-01
DAV:   2    -0.151168515855E+03   -0.23863E-02   -0.26760E-02  3268   0.630E-01    0.821E-02
DAV:   3    -0.151168364621E+03    0.15123E-03   -0.32351E-04  3308   0.858E-02    0.580E-02
DAV:   4    -0.151168253105E+03    0.11152E-03   -0.50176E-04  3260   0.114E-01    0.234E-02
DAV:   5    -0.151168254243E+03   -0.11376E-05   -0.14235E-04  3124   0.542E-02    0.239E-02
DAV:   6    -0.151168247988E+03    0.62547E-05   -0.42274E-05  2652   0.301E-02
  24 F= -.15116825E+03 E0= -.15116677E+03  d E =-.391992E-02
       N       E                     dE             d eps       ncg     rms          rms(c)
DAV:   1    -0.151163231267E+03    0.50230E-02   -0.48006E+00  2896   0.902E+00    0.267E-01
DAV:   2    -0.151171925485E+03   -0.86942E-02   -0.97618E-02  3280   0.121E+00    0.159E-01
DAV:   3    -0.151171371371E+03    0.55411E-03   -0.12568E-03  3408   0.171E-01    0.112E-01
DAV:   4    -0.151170975199E+03    0.39617E-03   -0.18710E-03  3340   0.214E-01    0.465E-02
DAV:   5    -0.151170967497E+03    0.77024E-05   -0.46542E-04  3336   0.102E-01    0.469E-02
DAV:   6    -0.151170938367E+03    0.29129E-04   -0.25324E-04  3084   0.776E-02    0.176E-02
DAV:   7    -0.151170934177E+03    0.41900E-05   -0.50028E-05  2864   0.391E-02
  25 F= -.15117093E+03 E0= -.15116950E+03  d E =-.660611E-02
       N       E                     dE             d eps       ncg     rms          rms(c)
DAV:   1    -0.151172613788E+03   -0.16754E-02   -0.88602E-01  2896   0.392E+00    0.116E-01
DAV:   2    -0.151174305539E+03   -0.16918E-02   -0.18230E-02  3280   0.522E-01    0.664E-02
DAV:   3    -0.151174213828E+03    0.91712E-04   -0.19201E-04  3240   0.647E-02    0.461E-02
DAV:   4    -0.151174150163E+03    0.63665E-04   -0.38908E-04  3268   0.102E-01    0.219E-02
DAV:   5    -0.151174149837E+03    0.32530E-06   -0.89405E-05  3020   0.436E-02    0.222E-02
DAV:   6    -0.151174143530E+03    0.63075E-05   -0.25333E-05  2196   0.238E-02
  26 F= -.15117414E+03 E0= -.15117271E+03  d E =-.320935E-02
       N       E                     dE             d eps       ncg     rms          rms(c)
DAV:   1    -0.151165881624E+03    0.82682E-02   -0.79703E+00  2888   0.118E+01    0.349E-01
DAV:   2    -0.151181317317E+03   -0.15436E-01   -0.16678E-01  3284   0.157E+00    0.205E-01
DAV:   3    -0.151180465134E+03    0.85218E-03   -0.17730E-03  3408   0.198E-01    0.143E-01
DAV:   4    -0.151179860654E+03    0.60448E-03   -0.35138E-03  3332   0.320E-01    0.616E-02
DAV:   5    -0.151179884623E+03   -0.23969E-04   -0.93032E-04  3272   0.134E-01    0.663E-02
DAV:   6    -0.151179837154E+03    0.47470E-04   -0.19523E-04  3180   0.608E-02    0.372E-02
DAV:   7    -0.151179803225E+03    0.33929E-04   -0.12732E-04  3160   0.609E-02    0.131E-02
DAV:   8    -0.151179794739E+03    0.84853E-05   -0.57350E-05  3180   0.492E-02
  27 F= -.15117979E+03 E0= -.15117839E+03  d E =-.886056E-02
       N       E                     dE             d eps       ncg     rms          rms(c)
DAV:   1    -0.151177921632E+03    0.18816E-02   -0.14228E+00  2896   0.497E+00    0.144E-01
DAV:   2    -0.151180647067E+03   -0.27254E-02   -0.29274E-02  3280   0.656E-01    0.838E-02
DAV:   3    -0.151180493937E+03    0.15313E-03   -0.27153E-04  3304   0.784E-02    0.579E-02
DAV:   4    -0.151180373672E+03    0.12027E-03   -0.63191E-04  3320   0.142E-01    0.256E-02
DAV:   5    -0.151180379080E+03   -0.54086E-05   -0.19737E-04  3076   0.594E-02    0.280E-02
DAV:   6    -0.151180371050E+03    0.80306E-05   -0.22846E-05  2124   0.210E-02
  28 F= -.15118037E+03 E0= -.15117898E+03  d E =-.943687E-02
       N       E                     dE             d eps       ncg     rms          rms(c)
DAV:   1    -0.151180060809E+03    0.31827E-03   -0.21279E+00  2928   0.631E+00    0.187E-01
DAV:   2    -0.151184500214E+03   -0.44394E-02   -0.47661E-02  3204   0.864E-01    0.108E-01
DAV:   3    -0.151184258876E+03    0.24134E-03   -0.46343E-04  3356   0.103E-01    0.737E-02
DAV:   4    -0.151184100166E+03    0.15871E-03   -0.72348E-04  3348   0.142E-01    0.263E-02
DAV:   5    -0.151184100533E+03   -0.36682E-06   -0.19651E-04  3224   0.604E-02    0.226E-02
DAV:   6    -0.151184093084E+03    0.74493E-05   -0.57101E-05  2928   0.323E-02
  29 F= -.15118409E+03 E0= -.15118265E+03  d E =-.372203E-02
       N       E                     dE             d eps       ncg     rms          rms(c)
DAV:   1    -0.151182277448E+03    0.18231E-02   -0.20760E+00  2928   0.623E+00    0.184E-01
DAV:   2    -0.151186582665E+03   -0.43052E-02   -0.46314E-02  3208   0.852E-01    0.107E-01
DAV:   3    -0.151186324468E+03    0.25820E-03   -0.41369E-04  3356   0.102E-01    0.729E-02
DAV:   4    -0.151186116366E+03    0.20810E-03   -0.73641E-04  3384   0.160E-01    0.260E-02
DAV:   5    -0.151186105406E+03    0.10960E-04   -0.26388E-04  3288   0.746E-02    0.224E-02
DAV:   6    -0.151186083862E+03    0.21545E-04   -0.49696E-05  3024   0.340E-02    0.992E-03
DAV:   7    -0.151186051542E+03    0.32320E-04   -0.13455E-05  2144   0.454E-02    0.648E-03
DAV:   8    -0.151186016199E+03    0.35343E-04   -0.13147E-05  2196   0.563E-02    0.874E-03
DAV:   9    -0.151185951222E+03    0.64977E-04   -0.51983E-05  3208   0.132E-01    0.818E-03
DAV:  10    -0.151185910567E+03    0.40654E-04   -0.75498E-05  3392   0.120E-01    0.110E-02
DAV:  11    -0.151185876399E+03    0.34169E-04   -0.49010E-05  2916   0.138E-01    0.741E-03
DAV:  12    -0.151185873938E+03    0.24605E-05   -0.97042E-05  3272   0.103E-01
  30 F= -.15118587E+03 E0= -.15118435E+03  d E =-.550289E-02
       N       E                     dE             d eps       ncg     rms          rms(c)
DAV:   1    -0.151168927300E+03    0.16949E-01   -0.83003E+00  2928   0.125E+01    0.364E-01
DAV:   2    -0.151186161327E+03   -0.17234E-01   -0.18586E-01  3228   0.170E+00    0.218E-01
DAV:   3    -0.151185174741E+03    0.98659E-03   -0.18101E-03  3380   0.203E-01    0.149E-01
DAV:   4    -0.151184440655E+03    0.73409E-03   -0.26006E-03  3360   0.286E-01    0.513E-02
DAV:   5    -0.151184413503E+03    0.27152E-04   -0.85350E-04  3272   0.132E-01    0.419E-02
DAV:   6    -0.151184355433E+03    0.58070E-04   -0.18157E-04  3332   0.636E-02    0.193E-02
DAV:   7    -0.151184294280E+03    0.61153E-04   -0.60761E-05  3308   0.660E-02    0.133E-02
DAV:   8    -0.151184241404E+03    0.52876E-04   -0.20414E-05  2260   0.630E-02    0.130E-02
DAV:   9    -0.151184131604E+03    0.10980E-03   -0.10326E-04  4220   0.155E-01    0.143E-02
DAV:  10    -0.151184056181E+03    0.75424E-04   -0.67120E-05  3264   0.108E-01    0.133E-02
DAV:  11    -0.151183951188E+03    0.10499E-03   -0.12087E-04  3952   0.200E-01    0.186E-02
DAV:  12    -0.151183890485E+03    0.60702E-04   -0.20288E-04  4000   0.257E-01    0.199E-02
DAV:  13    -0.151183911643E+03   -0.21158E-04   -0.39106E-04  3048   0.101E-01    0.121E-02
DAV:  14    -0.151183915799E+03   -0.41557E-05   -0.71731E-05  2892   0.337E-02
  31 F= -.15118392E+03 E0= -.15118219E+03  d E =-.354475E-02
       N       E                     dE             d eps       ncg     rms          rms(c)
DAV:   1    -0.151177513077E+03    0.63986E-02   -0.47814E+00  2936   0.946E+00    0.281E-01
DAV:   2    -0.151187400000E+03   -0.98869E-02   -0.10696E-01  3196   0.130E+00    0.161E-01
DAV:   3    -0.151186837790E+03    0.56221E-03   -0.10305E-03  3348   0.153E-01    0.112E-01
DAV:   4    -0.151186411945E+03    0.42585E-03   -0.18741E-03  3356   0.234E-01    0.430E-02
DAV:   5    -0.151186398418E+03    0.13527E-04   -0.53767E-04  3276   0.104E-01    0.388E-02
DAV:   6    -0.151186358084E+03    0.40334E-04   -0.16447E-04  3180   0.585E-02    0.143E-02
DAV:   7    -0.151186323205E+03    0.34880E-04   -0.42356E-05  3224   0.538E-02    0.134E-02
DAV:   8    -0.151186279814E+03    0.43390E-04   -0.12658E-05  2188   0.621E-02    0.136E-02
DAV:   9    -0.151186220889E+03    0.58925E-04   -0.51388E-05  3204   0.988E-02    0.871E-03
DAV:  10    -0.151186144827E+03    0.76062E-04   -0.96093E-05  3848   0.173E-01    0.179E-02
DAV:  11    -0.151186102479E+03    0.42348E-04   -0.11408E-04  3752   0.148E-01    0.170E-02
DAV:  12    -0.151186100053E+03    0.24259E-05   -0.18653E-04  3096   0.757E-02    0.121E-02
DAV:  13    -0.151186093129E+03    0.69232E-05   -0.17943E-05  2276   0.603E-02
  32 F= -.15118609E+03 E0= -.15118453E+03  d E =-.572208E-02
       N       E                     dE             d eps       ncg     rms          rms(c)
DAV:   1    -0.151186563348E+03   -0.46330E-03   -0.62099E-01  2856   0.338E+00    0.109E-01
DAV:   2    -0.151187837311E+03   -0.12740E-02   -0.15181E-02  3248   0.479E-01    0.581E-02
DAV:   3    -0.151187749514E+03    0.87797E-04   -0.34590E-04  3380   0.950E-02    0.427E-02
DAV:   4    -0.151187689929E+03    0.59585E-04   -0.85416E-05  3320   0.534E-02    0.231E-02
DAV:   5    -0.151187627852E+03    0.62077E-04   -0.62760E-05  3140   0.866E-02    0.105E-02
DAV:   6    -0.151187613611E+03    0.14241E-04   -0.63166E-05  3288   0.559E-02    0.104E-02
DAV:   7    -0.151187599316E+03    0.14295E-04   -0.27908E-05  2624   0.492E-02    0.719E-03
DAV:   8    -0.151187583477E+03    0.15839E-04   -0.50523E-06  2012   0.457E-02    0.528E-03
DAV:   9    -0.151187554476E+03    0.29001E-04   -0.20270E-05  2352   0.879E-02    0.592E-03
DAV:  10    -0.151187530468E+03    0.24009E-04   -0.39756E-05  3000   0.108E-01    0.774E-03
DAV:  11    -0.151187526877E+03    0.35907E-05   -0.53709E-05  2924   0.531E-02
  33 F= -.15118753E+03 E0= -.15118588E+03  d E =-.143375E-02
       N       E                     dE             d eps       ncg     rms          rms(c)
DAV:   1    -0.151187461165E+03    0.69303E-04   -0.14698E-01  2872   0.164E+00    0.522E-02
DAV:   2    -0.151187758813E+03   -0.29765E-03   -0.35430E-03  3248   0.232E-01    0.285E-02
DAV:   3    -0.151187739045E+03    0.19768E-04   -0.81568E-05  3368   0.452E-02    0.214E-02
DAV:   4    -0.151187723082E+03    0.15963E-04   -0.19212E-05  2184   0.270E-02    0.112E-02
DAV:   5    -0.151187705837E+03    0.17245E-04   -0.16399E-05  2368   0.463E-02    0.655E-03
DAV:   6    -0.151187701015E+03    0.48220E-05   -0.18206E-05  2064   0.301E-02
  34 F= -.15118770E+03 E0= -.15118600E+03  d E =-.160789E-02
       N       E                     dE             d eps       ncg     rms          rms(c)
DAV:   1    -0.151188047995E+03   -0.34216E-03   -0.54915E-01  2864   0.322E+00    0.998E-02
DAV:   2    -0.151189199510E+03   -0.11515E-02   -0.12711E-02  3196   0.445E-01    0.547E-02
DAV:   3    -0.151189140719E+03    0.58791E-04   -0.14102E-04  3400   0.537E-02    0.376E-02
DAV:   4    -0.151189105728E+03    0.34991E-04   -0.18855E-04  3316   0.642E-02    0.157E-02
DAV:   5    -0.151189102406E+03    0.33222E-05   -0.39440E-05  2844   0.292E-02    0.143E-02
DAV:   6    -0.151189099372E+03    0.30339E-05   -0.26552E-05  2432   0.273E-02
  35 F= -.15118910E+03 E0= -.15118728E+03  d E =-.139836E-02
       N       E                     dE             d eps       ncg     rms          rms(c)
DAV:   1    -0.151187152634E+03    0.19498E-02   -0.14131E+00  2864   0.516E+00    0.160E-01
DAV:   2    -0.151190120098E+03   -0.29675E-02   -0.32846E-02  3196   0.717E-01    0.885E-02
DAV:   3    -0.151189971419E+03    0.14868E-03   -0.34607E-04  3384   0.878E-02    0.611E-02
DAV:   4    -0.151189871951E+03    0.99468E-04   -0.50940E-04  3336   0.108E-01    0.264E-02
DAV:   5    -0.151189866251E+03    0.57003E-05   -0.10359E-04  3232   0.535E-02    0.235E-02
DAV:   6    -0.151189858164E+03    0.80869E-05   -0.83944E-05  3152   0.480E-02
  36 F= -.15118986E+03 E0= -.15118783E+03  d E =-.215715E-02
       N       E                     dE             d eps       ncg     rms          rms(c)
DAV:   1    -0.151188734022E+03    0.11322E-02   -0.11072E+00  2896   0.455E+00    0.139E-01
DAV:   2    -0.151191100909E+03   -0.23669E-02   -0.25576E-02  3152   0.627E-01    0.767E-02
DAV:   3    -0.151190957669E+03    0.14324E-03   -0.21031E-04  3376   0.772E-02    0.520E-02
DAV:   4    -0.151190830495E+03    0.12717E-03   -0.32573E-04  3312   0.118E-01    0.157E-02
DAV:   5    -0.151190826612E+03    0.38829E-05   -0.15739E-04  3272   0.575E-02    0.173E-02
DAV:   6    -0.151190818175E+03    0.84375E-05   -0.18867E-05  1912   0.204E-02
  37 F= -.15119082E+03 E0= -.15118870E+03  d E =-.960011E-03
       N       E                     dE             d eps       ncg     rms          rms(c)
DAV:   1    -0.151190069729E+03    0.75688E-03   -0.45534E-01  2896   0.293E+00    0.873E-02
DAV:   2    -0.151191006871E+03   -0.93714E-03   -0.10398E-02  3196   0.403E-01    0.501E-02
DAV:   3    -0.151190930070E+03    0.76801E-04   -0.89678E-05  3376   0.551E-02    0.345E-02
DAV:   4    -0.151190827819E+03    0.10225E-03   -0.14883E-04  3168   0.952E-02    0.117E-02
DAV:   5    -0.151190812679E+03    0.15140E-04   -0.10306E-04  3264   0.515E-02    0.133E-02
DAV:   6    -0.151190804040E+03    0.86393E-05   -0.19351E-05  2012   0.212E-02
  38 F= -.15119080E+03 E0= -.15118863E+03  d E =-.945876E-03
       N       E                     dE             d eps       ncg     rms          rms(c)
DAV:   1    -0.151190372219E+03    0.44046E-03   -0.55481E-01  2864   0.324E+00    0.965E-02
DAV:   2    -0.151191496066E+03   -0.11238E-02   -0.12959E-02  3220   0.446E-01    0.548E-02
DAV:   3    -0.151191411677E+03    0.84389E-04   -0.14177E-04  3396   0.613E-02    0.390E-02
DAV:   4    -0.151191340365E+03    0.71312E-04   -0.14119E-04  3368   0.741E-02    0.145E-02
DAV:   5    -0.151191322561E+03    0.17804E-04   -0.78759E-05  3312   0.452E-02    0.105E-02
DAV:   6    -0.151191309854E+03    0.12707E-04   -0.21011E-05  2200   0.243E-02    0.463E-03
DAV:   7    -0.151191293609E+03    0.16246E-04   -0.83543E-06  2088   0.339E-02    0.568E-03
DAV:   8    -0.151191285720E+03    0.78888E-05   -0.11087E-05  2104   0.247E-02
  39 F= -.15119129E+03 E0= -.15118918E+03  d E =-.481680E-03
       N       E                     dE             d eps       ncg     rms          rms(c)
DAV:   1    -0.151191222937E+03    0.70671E-04   -0.54014E-02  2904   0.101E+00    0.315E-02
DAV:   2    -0.151191326937E+03   -0.10400E-03   -0.12584E-03  3212   0.141E-01    0.172E-02
DAV:   3    -0.151191317971E+03    0.89660E-05   -0.22642E-05  2392   0.219E-02    0.118E-02
DAV:   4    -0.151191310859E+03    0.71120E-05   -0.71907E-06  1896   0.190E-02    0.608E-03
DAV:   5    -0.151191304303E+03    0.65562E-05   -0.11166E-05  2088   0.258E-02    0.312E-03
DAV:   6    -0.151191302152E+03    0.21505E-05   -0.66550E-06  1680   0.145E-02
  40 F= -.15119130E+03 E0= -.15118921E+03  d E =-.498113E-03
       N       E                     dE             d eps       ncg     rms          rms(c)
DAV:   1    -0.151192077008E+03   -0.77271E-03   -0.50223E-02  2856   0.966E-01    0.371E-02
DAV:   2    -0.151192110059E+03   -0.33050E-04   -0.12909E-03  3320   0.150E-01    0.234E-02
DAV:   3    -0.151192088229E+03    0.21830E-04   -0.54165E-05  3176   0.331E-02    0.182E-02
DAV:   4    -0.151192052211E+03    0.36017E-04   -0.44664E-05  3104   0.403E-02    0.948E-03
DAV:   5    -0.151192027779E+03    0.24432E-04   -0.17931E-05  2128   0.382E-02    0.109E-02
DAV:   6    -0.151191995253E+03    0.32526E-04   -0.39387E-05  2872   0.633E-02    0.490E-03
DAV:   7    -0.151191978694E+03    0.16559E-04   -0.28526E-05  2492   0.451E-02    0.678E-03
DAV:   8    -0.151191953283E+03    0.25411E-04   -0.20181E-05  2240   0.787E-02    0.549E-03
DAV:   9    -0.151191941505E+03    0.11779E-04   -0.38849E-05  2808   0.711E-02    0.954E-03
DAV:  10    -0.151191940111E+03    0.13937E-05   -0.53868E-05  2780   0.353E-02
  41 F= -.15119194E+03 E0= -.15118992E+03  d E =-.637958E-03
       N       E                     dE             d eps       ncg     rms          rms(c)
DAV:   1    -0.151191945451E+03   -0.39463E-05   -0.58667E-04  2984   0.104E-01    0.738E-03
DAV:   2    -0.151191942656E+03    0.27949E-05   -0.12717E-05  2068   0.190E-02    0.375E-03
DAV:   3    -0.151191940265E+03    0.23911E-05   -0.28566E-06  1716   0.151E-02    0.239E-03
DAV:   4    -0.151191938097E+03    0.21682E-05   -0.11485E-06  1828   0.150E-02    0.178E-03
DAV:   5    -0.151191934308E+03    0.37890E-05   -0.10261E-06  1860   0.233E-02    0.169E-03
DAV:   6    -0.151191927288E+03    0.70199E-05   -0.32677E-06  2048   0.461E-02
  42 F= -.15119193E+03 E0= -.15118991E+03  d E =-.625135E-03
       N       E                     dE             d eps       ncg     rms          rms(c)
DAV:   1    -0.151192703100E+03   -0.76879E-03   -0.89084E-02  2928   0.125E+00    0.476E-02
DAV:   2    -0.151192742345E+03   -0.39245E-04   -0.19169E-03  3328   0.188E-01    0.263E-02
DAV:   3    -0.151192718267E+03    0.24078E-04   -0.10895E-04  3384   0.445E-02    0.218E-02
DAV:   4    -0.151192699138E+03    0.19129E-04   -0.28551E-05  2656   0.278E-02    0.110E-02
DAV:   5    -0.151192684027E+03    0.15111E-04   -0.42511E-05  3080   0.348E-02    0.892E-03
DAV:   6    -0.151192681434E+03    0.25929E-05   -0.18515E-05  2192   0.208E-02
  43 F= -.15119268E+03 E0= -.15119074E+03  d E =-.754146E-03
       N       E                     dE             d eps       ncg     rms          rms(c)
DAV:   1    -0.151192993732E+03   -0.30970E-03   -0.14791E-01  2904   0.162E+00    0.619E-02
DAV:   2    -0.151193077873E+03   -0.84142E-04   -0.32433E-03  3344   0.243E-01    0.338E-02
DAV:   3    -0.151193036206E+03    0.41667E-04   -0.15041E-04  3416   0.528E-02    0.278E-02
DAV:   4    -0.151192997147E+03    0.39059E-04   -0.66252E-05  3072   0.426E-02    0.131E-02
DAV:   5    -0.151192974384E+03    0.22763E-04   -0.59407E-05  3272   0.441E-02    0.122E-02
DAV:   6    -0.151192968582E+03    0.58016E-05   -0.35885E-05  2940   0.278E-02
  44 F= -.15119297E+03 E0= -.15119112E+03  d E =-.104129E-02
       N       E                     dE             d eps       ncg     rms          rms(c)
DAV:   1    -0.151193332782E+03   -0.35840E-03   -0.50934E-02  2904   0.973E-01    0.346E-02
DAV:   2    -0.151193429723E+03   -0.96940E-04   -0.12983E-03  3184   0.140E-01    0.177E-02
DAV:   3    -0.151193422908E+03    0.68149E-05   -0.21836E-05  2452   0.231E-02    0.116E-02
DAV:   4    -0.151193418359E+03    0.45489E-05   -0.11363E-05  1832   0.184E-02    0.429E-03
DAV:   5    -0.151193417455E+03    0.90348E-06   -0.48523E-06  1720   0.126E-02    0.321E-03
DAV:   6    -0.151193416475E+03    0.98079E-06   -0.18454E-06  1808   0.123E-02
  45 F= -.15119342E+03 E0= -.15119164E+03  d E =-.447893E-03
       N       E                     dE             d eps       ncg     rms          rms(c)
DAV:   1    -0.151193459295E+03   -0.41839E-04   -0.45772E-01  2904   0.292E+00    0.985E-02
DAV:   2    -0.151194337731E+03   -0.87844E-03   -0.11447E-02  3208   0.416E-01    0.541E-02
DAV:   3    -0.151194277082E+03    0.60649E-04   -0.14802E-04  3400   0.580E-02    0.367E-02
DAV:   4    -0.151194235768E+03    0.41313E-04   -0.14839E-04  3272   0.636E-02    0.129E-02
DAV:   5    -0.151194234953E+03    0.81523E-06   -0.44194E-05  3040   0.345E-02    0.986E-03
DAV:   6    -0.151194232865E+03    0.20881E-05   -0.15155E-05  1880   0.207E-02
  46 F= -.15119423E+03 E0= -.15119263E+03  d E =-.126428E-02
       N       E                     dE             d eps       ncg     rms          rms(c)
DAV:   1    -0.151194132361E+03    0.10259E-03   -0.10418E-01  2904   0.139E+00    0.475E-02
DAV:   2    -0.151194332676E+03   -0.20032E-03   -0.25833E-03  3204   0.200E-01    0.258E-02
DAV:   3    -0.151194316610E+03    0.16066E-04   -0.33358E-05  2776   0.300E-02    0.176E-02
DAV:   4    -0.151194300709E+03    0.15901E-04   -0.33908E-05  2840   0.394E-02    0.619E-03
DAV:   5    -0.151194298374E+03    0.23348E-05   -0.15342E-05  1820   0.242E-02    0.523E-03
DAV:   6    -0.151194295833E+03    0.25409E-05   -0.58914E-06  1788   0.166E-02
  47 F= -.15119430E+03 E0= -.15119275E+03  d E =-.132725E-02
       N       E                     dE             d eps       ncg     rms          rms(c)
DAV:   1    -0.151194473483E+03   -0.17511E-03   -0.18576E-01  2912   0.183E+00    0.596E-02
DAV:   2    -0.151194837743E+03   -0.36426E-03   -0.46722E-03  3244   0.258E-01    0.336E-02
DAV:   3    -0.151194809631E+03    0.28113E-04   -0.88790E-05  3312   0.406E-02    0.251E-02
DAV:   4    -0.151194789812E+03    0.19819E-04   -0.34932E-05  2840   0.326E-02    0.117E-02
DAV:   5    -0.151194779750E+03    0.10062E-04   -0.25606E-05  2744   0.289E-02    0.617E-03
DAV:   6    -0.151194775180E+03    0.45695E-05   -0.11032E-05  1952   0.218E-02
  48 F= -.15119478E+03 E0= -.15119325E+03  d E =-.479347E-03
       N       E                     dE             d eps       ncg     rms          rms(c)
DAV:   1    -0.151194727885E+03    0.51865E-04   -0.71891E-02  2888   0.114E+00    0.367E-02
DAV:   2    -0.151194872110E+03   -0.14422E-03   -0.18203E-03  3244   0.159E-01    0.212E-02
DAV:   3    -0.151194859090E+03    0.13020E-04   -0.24624E-05  2632   0.230E-02    0.152E-02
DAV:   4    -0.151194848053E+03    0.11037E-04   -0.19092E-05  2312   0.253E-02    0.559E-03
DAV:   5    -0.151194844444E+03    0.36094E-05   -0.10468E-05  1896   0.190E-02    0.321E-03
DAV:   6    -0.151194840245E+03    0.41993E-05   -0.36002E-06  1876   0.210E-02
  49 F= -.15119484E+03 E0= -.15119333E+03  d E =-.544412E-03
       N       E                     dE             d eps       ncg     rms          rms(c)
DAV:   1    -0.151194961827E+03   -0.11738E-03   -0.12731E-02  2896   0.490E-01    0.165E-02
DAV:   2    -0.151194989709E+03   -0.27881E-04   -0.34199E-04  3272   0.744E-02    0.120E-02
DAV:   3    -0.151194986778E+03    0.29302E-05   -0.65767E-06  1952   0.147E-02    0.863E-03
DAV:   4    -0.151194984160E+03    0.26180E-05   -0.94644E-06  1880   0.170E-02    0.327E-03
DAV:   5    -0.151194983809E+03    0.35186E-06   -0.32229E-06  1628   0.974E-03    0.310E-03
DAV:   6    -0.151194983478E+03    0.33023E-06   -0.10792E-06  1608   0.641E-03
  50 F= -.15119498E+03 E0= -.15119346E+03  d E =-.143234E-03
