 vasp.5.3.5 31Mar14 (build Apr 08 2024 10:12:10) complex                        
  
 executed on             LinuxIFC date 2024.07.29  15:33:41
 running on    8 total cores
 distrk:  each k-point on    8 cores,    1 groups
 distr:  one band on NCORES_PER_BAND=   4 cores,    2 groups


--------------------------------------------------------------------------------------------------------


 INCAR:
 POTCAR:    PAW_PBE O 08Apr2002                   
 POTCAR:    PAW_PBE Mg 13Apr2007                  
 POTCAR:    PAW_PBE Al 04Jan2001                  
 POTCAR:    PAW_PBE O 08Apr2002                   
   VRHFIN =O: s2p4                                                              
   LEXCH  = PE                                                                  
   EATOM  =   432.3788 eV,   31.7789 Ry                                         
                                                                                
   TITEL  = PAW_PBE O 08Apr2002                                                 
   LULTRA =        F    use ultrasoft PP ?                                      
   IUNSCR =        1    unscreen: 0-lin 1-nonlin 2-no                           
   RPACOR =    1.200    partial core radius                                     
   POMASS =   16.000; ZVAL   =    6.000    mass and valenz                      
   RCORE  =    1.520    outmost cutoff radius                                   
   RWIGS  =    1.550; RWIGS  =    0.820    wigner-seitz radius (au A)           
   ENMAX  =  400.000; ENMIN  =  300.000 eV                                      
   ICORE  =        2    local potential                                         
   LCOR   =        T    correct aug charges                                     
   LPAW   =        T    paw PP                                                  
   EAUG   =  605.392                                                            
   DEXC   =    0.000                                                            
   RMAX   =    1.553    core radius for proj-oper                               
   RAUG   =    1.300    factor for augmentation sphere                          
   RDEP   =    1.550    radius for radial grids                                 
   RDEPT  =    1.329    core radius for aug-charge                              
                                                                                
   Atomic configuration                                                         
    4 entries                                                                   
     n  l   j            E        occ.                                          
     1  0  0.50      -514.6923   2.0000                                         
     2  0  0.50       -23.9615   2.0000                                         
     2  1  0.50        -9.0305   4.0000                                         
     3  2  1.50        -9.5241   0.0000                                         
   Description                                                                  
     l       E           TYP  RCUT    TYP  RCUT                                 
     0    -23.9615318     23  1.200                                             
     0     -9.5240782     23  1.200                                             
     1     -9.0304911     23  1.520                                             
     1      8.1634956     23  1.520                                             
     2     -9.5240782      7  1.500                                             
  local pseudopotential read in
  partial core-charges read in
  partial kinetic energy density read in
  kinetic energy density of atom read in
  atomic valenz-charges read in
  non local Contribution for L=           0  read in
    real space projection operators read in
  non local Contribution for L=           0  read in
    real space projection operators read in
  non local Contribution for L=           1  read in
    real space projection operators read in
  non local Contribution for L=           1  read in
    real space projection operators read in
    PAW grid and wavefunctions read in
 
   number of l-projection  operators is LMAX  =           4
   number of lm-projection operators is LMMAX =           8
 
 POTCAR:    PAW_PBE Mg 13Apr2007                  
   VRHFIN =Mg: s2p0                                                             
   LEXCH  = PE                                                                  
   EATOM  =    23.0369 eV,    1.6932 Ry                                         
                                                                                
   TITEL  = PAW_PBE Mg 13Apr2007                                                
   LULTRA =        F    use ultrasoft PP ?                                      
   IUNSCR =        1    unscreen: 0-lin 1-nonlin 2-no                           
   RPACOR =    1.500    partial core radius                                     
   POMASS =   24.305; ZVAL   =    2.000    mass and valenz                      
   RCORE  =    2.000    outmost cutoff radius                                   
   RWIGS  =    2.880; RWIGS  =    1.524    wigner-seitz radius (au A)           
   ENMAX  =  200.000; ENMIN  =  100.000 eV                                      
   RCLOC  =    1.506    cutoff for local pot                                    
   LCOR   =        T    correct aug charges                                     
   LPAW   =        T    paw PP                                                  
   EAUG   =  454.734                                                            
   DEXC   =    0.000                                                            
   RMAX   =    2.045    core radius for proj-oper                               
   RAUG   =    1.300    factor for augmentation sphere                          
   RDEP   =    2.025    radius for radial grids                                 
   RDEPT  =    1.942    core radius for aug-charge                              
                                                                                
   Atomic configuration                                                         
    6 entries                                                                   
     n  l   j            E        occ.                                          
     1  0  0.50     -1259.6230   2.0000                                         
     2  0  0.50       -79.8442   2.0000                                         
     2  1  1.50       -46.6121   6.0000                                         
     3  0  0.50        -4.7055   2.0000                                         
     3  1  0.50        -1.3660   0.0000                                         
     3  2  1.50        -1.3606   0.0000                                         
   Description                                                                  
     l       E           TYP  RCUT    TYP  RCUT                                 
     0     -4.7054661     23  2.000                                             
     0     27.2116520     23  2.000                                             
     1      1.3605826     23  2.000                                             
     1     27.2116520     23  2.000                                             
     2     -1.3605826     23  2.000                                             
  local pseudopotential read in
  partial core-charges read in
  partial kinetic energy density read in
  atomic valenz-charges read in
  non local Contribution for L=           0  read in
    real space projection operators read in
  non local Contribution for L=           0  read in
    real space projection operators read in
  non local Contribution for L=           1  read in
    real space projection operators read in
  non local Contribution for L=           1  read in
    real space projection operators read in
  non local Contribution for L=           2  read in
    real space projection operators read in
    PAW grid and wavefunctions read in
 
   number of l-projection  operators is LMAX  =           5
   number of lm-projection operators is LMMAX =          13
 
 POTCAR:    PAW_PBE Al 04Jan2001                  
   VRHFIN =Al: s2p1                                                             
   LEXCH  = PE                                                                  
   EATOM  =    53.5387 eV,    3.9350 Ry                                         
                                                                                
   TITEL  = PAW_PBE Al 04Jan2001                                                
   LULTRA =        F    use ultrasoft PP ?                                      
   IUNSCR =        1    unscreen: 0-lin 1-nonlin 2-no                           
   RPACOR =    1.500    partial core radius                                     
   POMASS =   26.981; ZVAL   =    3.000    mass and valenz                      
   RCORE  =    1.900    outmost cutoff radius                                   
   RWIGS  =    2.650; RWIGS  =    1.402    wigner-seitz radius (au A)           
   ENMAX  =  240.300; ENMIN  =  180.225 eV                                      
   ICORE  =        2    local potential                                         
   LCOR   =        T    correct aug charges                                     
   LPAW   =        T    paw PP                                                  
   EAUG   =  291.052                                                            
   DEXC   =    0.000                                                            
   RMAX   =    1.939    core radius for proj-oper                               
   RAUG   =    1.300    factor for augmentation sphere                          
   RDEP   =    1.966    radius for radial grids                                 
   RDEPT  =    1.856    core radius for aug-charge                              
                                                                                
   Atomic configuration                                                         
    6 entries                                                                   
     n  l   j            E        occ.                                          
     1  0  0.50     -1511.1048   2.0000                                         
     2  0  0.50      -108.1629   2.0000                                         
     2  1  1.50       -69.6402   6.0000                                         
     3  0  0.50        -7.7528   2.0000                                         
     3  1  1.50        -2.7121   1.0000                                         
     3  2  2.50        -2.7212   0.0000                                         
   Description                                                                  
     l       E           TYP  RCUT    TYP  RCUT                                 
     0     -7.7528455     23  1.900                                             
     0     -3.3096929     23  1.900                                             
     1     -2.7120682     23  1.900                                             
     1     13.6058260     23  1.900                                             
     2     -2.7211652      7  1.900                                             
  local pseudopotential read in
  partial core-charges read in
  partial kinetic energy density read in
  atomic valenz-charges read in
  non local Contribution for L=           0  read in
    real space projection operators read in
  non local Contribution for L=           0  read in
    real space projection operators read in
  non local Contribution for L=           1  read in
    real space projection operators read in
  non local Contribution for L=           1  read in
    real space projection operators read in
    PAW grid and wavefunctions read in
 
   number of l-projection  operators is LMAX  =           4
   number of lm-projection operators is LMMAX =           8
 

 ----------------------------------------------------------------------------- 
|                                                                             |
|  ADVICE TO THIS USER RUNNING 'VASP/VAMP'   (HEAR YOUR MASTER'S VOICE ...):  |
|                                                                             |
|      You have a (more or less) 'large supercell' and for larger cells       |
|      it might be more efficient to use real space projection opertators     |
|      So try LREAL= Auto  in the INCAR   file.                               |
|      Mind: At the moment your POTCAR file does not contain real space       |
|       projectors, and has to be modified,  BUT if you                       |
|      want to do an extremely  accurate calculation you might also keep the  |
|      reciprocal projection scheme          (i.e. LREAL=.FALSE.)             |
|                                                                             |
 ----------------------------------------------------------------------------- 

  PAW_PBE O 08Apr2002                   :
 energy of atom  1       EATOM= -432.3788
 kinetic energy error for atom=    0.0208 (will be added to EATOM!!)
  PAW_PBE Mg 13Apr2007                  :
 energy of atom  2       EATOM=  -23.0369
 kinetic energy error for atom=    0.0000 (will be added to EATOM!!)
  PAW_PBE Al 04Jan2001                  :
 energy of atom  3       EATOM=  -53.5387
 kinetic energy error for atom=    0.0002 (will be added to EATOM!!)
 
 
 POSCAR: Layer                                   
  positions in direct lattice
  velocities in cartesian coordinates
 exchange correlation table for  LEXCH =        8
   RHO(1)=    0.500       N(1)  =     2000
   RHO(2)=  100.500       N(2)  =     4000
 


--------------------------------------------------------------------------------------------------------


 ion  position               nearest neighbor table
   1  0.333  0.667  0.244-  12 2.15  12 2.15  12 2.15  23 2.29  23 2.29  23 2.29
   2  0.000  0.000  0.357-  16 2.13  16 2.13  16 2.13  19 2.13  19 2.13  19 2.13
   3  0.333  0.667  0.413-  13 2.13  13 2.13  13 2.13  16 2.13  16 2.13  16 2.13
   4  0.000  0.000  0.525-  17 2.13  17 2.13  17 2.13  20 2.13  20 2.13  20 2.13
   5  0.333  0.667  0.581-  14 2.13  14 2.13  14 2.13  17 2.13  17 2.13  17 2.13
   6  0.000  0.000  0.693-  21 2.13  21 2.13  21 2.13  18 2.14  18 2.14  18 2.14
   7  0.333  0.667  0.749-  15 2.13  15 2.13  15 2.13  18 2.14  18 2.14  18 2.14
   8  0.667  0.333  0.301-  12 2.13  12 2.13  12 2.13  19 2.14  19 2.14  19 2.14
   9  0.667  0.333  0.469-  13 2.13  13 2.13  13 2.13  20 2.13  20 2.13  20 2.13
  10  0.667  0.333  0.637-  14 2.13  14 2.13  14 2.13  21 2.13  21 2.13  21 2.13
  11  0.667  0.333  0.805-  15 2.15  15 2.15  15 2.15  26 2.29  26 2.29  26 2.29
  12  0.000  0.000  0.273-   8 2.13   8 2.13   8 2.13   1 2.15   1 2.15   1 2.15  23 2.81  19 3.06
                            19 3.06  19 3.06
  13  0.000  0.000  0.441-   9 2.13   9 2.13   9 2.13   3 2.13   3 2.13   3 2.13  16 3.06  16 3.06
                            16 3.06  20 3.06  20 3.06  20 3.06
  14  0.000  0.000  0.609-   5 2.13   5 2.13   5 2.13  10 2.13  10 2.13  10 2.13  21 3.06  21 3.06
                            21 3.06  17 3.06  17 3.06  17 3.06
  15  0.000  0.000  0.777-   7 2.13   7 2.13   7 2.13  11 2.15  11 2.15  11 2.15  26 2.81  18 3.06
                            18 3.06  18 3.06
  16  0.667  0.333  0.385-   2 2.13   2 2.13   2 2.13   3 2.13   3 2.13   3 2.13  13 3.06  13 3.06
                            13 3.06  19 3.06  19 3.06  19 3.06
  17  0.667  0.333  0.553-   4 2.13   4 2.13   4 2.13   5 2.13   5 2.13   5 2.13  20 3.06  20 3.06
                            20 3.06  14 3.06  14 3.06  14 3.06
  18  0.667  0.333  0.721-   6 2.14   6 2.14   6 2.14   7 2.14   7 2.14   7 2.14  15 3.06  15 3.06
                            15 3.06  21 3.06  21 3.06  21 3.06
  19  0.333  0.667  0.329-   2 2.13   2 2.13   2 2.13   8 2.14   8 2.14   8 2.14  12 3.06  12 3.06
                            12 3.06  16 3.06  16 3.06  16 3.06
  20  0.333  0.667  0.497-   4 2.13   4 2.13   4 2.13   9 2.13   9 2.13   9 2.13  17 3.06  17 3.06
                            17 3.06  13 3.06  13 3.06  13 3.06
  21  0.333  0.667  0.665-   6 2.13   6 2.13   6 2.13  10 2.13  10 2.13  10 2.13  18 3.06  18 3.06
                            18 3.06  14 3.06  14 3.06  14 3.06
  22  0.000  0.000  0.025-  25 3.05  25 3.05  25 3.05  27 3.05  27 3.05  27 3.05
  23  0.000  0.000  0.211-   1 2.29   1 2.29   1 2.29  12 2.81  24 2.99  24 2.99  24 2.99
  24  0.667  0.333  0.157-  23 2.99  23 2.99  23 2.99
  25  0.333  0.667  0.080-  22 3.05  22 3.05  22 3.05
  26  0.000  0.000  0.839-  11 2.29  11 2.29  11 2.29  15 2.81  28 2.99  28 2.99  28 2.99
  27  0.667  0.333  0.969-  22 3.05  22 3.05  22 3.05
  28  0.333  0.667  0.892-  26 2.99  26 2.99  26 2.99
 
  LATTYP: Found a hexagonal cell.
 ALAT       =     2.9737040142
 C/A-ratio  =    15.2337747727
  
  Lattice vectors:
  
 A1 = (   2.5753034102,  -1.4868516771,   0.0000000000)
 A2 = (   0.0000000000,   2.9737033542,   0.0000000000)
 A3 = (  -0.0000000000,   0.0000000000,  45.3007371930)


Analysis of symmetry for initial positions (statically):
=====================================================================
 Subroutine PRICEL returns:
 Original cell was already a primitive cell.
 

 Routine SETGRP: Setting up the symmetry group for a 
 hexagonal supercell.


 Subroutine GETGRP returns: Found 12 space group operations
 (whereof  6 operations were pure point group operations)
 out of a pool of 24 trial point group operations.


The static configuration has the point symmetry C_3v.
 The point group associated with its full space group is D_3d.


Analysis of symmetry for dynamics (positions and initial velocities):
=====================================================================
 Subroutine PRICEL returns:
 Original cell was already a primitive cell.
 

 Routine SETGRP: Setting up the symmetry group for a 
 hexagonal supercell.


 Subroutine GETGRP returns: Found 12 space group operations
 (whereof  6 operations were pure point group operations)
 out of a pool of 24 trial point group operations.


The dynamic configuration has the point symmetry C_3v.
 The point group associated with its full space group is D_3d.


Analysis of constrained symmetry for selective dynamics:
=====================================================================
 Subroutine PRICEL returns:
 Original cell was already a primitive cell.
 

 Routine SETGRP: Setting up the symmetry group for a 
 hexagonal supercell.


 Subroutine GETGRP returns: Found 12 space group operations
 (whereof  6 operations were pure point group operations)
 out of a pool of 24 trial point group operations.


The constrained configuration has the point symmetry C_3v.
 The point group associated with its full space group is D_3d.
 
 
 KPOINTS: K-Spacing Value to Generate K-Mesh: 0.02

Automatic generation of k-mesh.
Space group operators:
 irot       det(A)        alpha          n_x          n_y          n_z        tau_x        tau_y        tau_z
    1     1.000000     0.000000     1.000000     0.000000     0.000000     0.000000     0.000000     0.000000
    2     1.000000   120.000000     0.000000     0.000000    -1.000000     0.000000     0.000000     0.000000
    3     1.000000   120.000000    -0.000000     0.000000     1.000000     0.000000     0.000000     0.000000
    4    -1.000000   180.000000    -0.866025     0.500000    -0.000000     0.000000     0.000000     0.000000
    5    -1.000000   180.000000     0.000000     1.000000     0.000000     0.000000     0.000000     0.000000
    6    -1.000000   180.000000    -0.866025    -0.500000    -0.000000     0.000000     0.000000     0.000000
    7    -1.000000     0.000000     1.000000     0.000000     0.000000     0.000000     0.000000     0.049083
    8    -1.000000   120.000000     0.000000     0.000000    -1.000000     0.000000     0.000000     0.049083
    9    -1.000000   120.000000    -0.000000     0.000000     1.000000     0.000001     0.000000     0.049083
   10     1.000000   180.000000    -0.866025     0.500000    -0.000000     0.000001     0.000000     0.049083
   11     1.000000   180.000000     0.000000     1.000000     0.000000     0.000000     0.000000     0.049083
   12     1.000000   180.000000    -0.866025    -0.500000    -0.000000     0.000000     0.000000     0.049083
 
 Subroutine IBZKPT returns following result:
 ===========================================
 
 Found     21 irreducible k-points:
 
 Following reciprocal coordinates:
            Coordinates               Weight
  0.000000  0.000000  0.000000      1.000000
  0.076923  0.000000  0.000000      6.000000
  0.153846  0.000000  0.000000      6.000000
  0.230769  0.000000  0.000000      6.000000
  0.307692  0.000000  0.000000      6.000000
  0.384615  0.000000  0.000000      6.000000
  0.461538  0.000000  0.000000      6.000000
  0.076923  0.076923  0.000000      6.000000
  0.153846  0.076923  0.000000     12.000000
  0.230769  0.076923  0.000000     12.000000
  0.307692  0.076923  0.000000     12.000000
  0.384615  0.076923  0.000000     12.000000
  0.461538  0.076923  0.000000      6.000000
  0.153846  0.153846  0.000000      6.000000
  0.230769  0.153846  0.000000     12.000000
  0.307692  0.153846  0.000000     12.000000
  0.384615  0.153846  0.000000     12.000000
  0.230769  0.230769  0.000000      6.000000
  0.307692  0.230769 -0.000000     12.000000
  0.384615  0.230769  0.000000      6.000000
  0.307692  0.307692  0.000000      6.000000
 
 Following cartesian coordinates:
            Coordinates               Weight
  0.000000  0.000000  0.000000      1.000000
  0.029870  0.000000  0.000000      6.000000
  0.059739  0.000000  0.000000      6.000000
  0.089609  0.000000  0.000000      6.000000
  0.119478  0.000000  0.000000      6.000000
  0.149348  0.000000  0.000000      6.000000
  0.179217  0.000000  0.000000      6.000000
  0.044804  0.025868  0.000000      6.000000
  0.074674  0.025868  0.000000     12.000000
  0.104543  0.025868  0.000000     12.000000
  0.134413  0.025868  0.000000     12.000000
  0.164282  0.025868  0.000000     12.000000
  0.194152  0.025868  0.000000      6.000000
  0.089609  0.051736  0.000000      6.000000
  0.119478  0.051736  0.000000     12.000000
  0.149348  0.051736  0.000000     12.000000
  0.179217  0.051736  0.000000     12.000000
  0.134413  0.077603  0.000000      6.000000
  0.164282  0.077603  0.000000     12.000000
  0.194152  0.077603  0.000000      6.000000
  0.179217  0.103471  0.000000      6.000000
 


--------------------------------------------------------------------------------------------------------




 Dimension of arrays:
   k-points           NKPTS =     21   k-points in BZ     NKDIM =     21   number of bands    NBANDS=     68
   number of dos      NEDOS =    301   number of ions     NIONS =     28
   non local maximal  LDIM  =      5   non local SUM 2l+1 LMDIM =     13
   total plane-waves  NPLWV = 201600
   max r-space proj   IRMAX =      1   max aug-charges    IRDMAX= 197661
   dimension x,y,z NGX =    24 NGY =   24 NGZ =  350
   dimension x,y,z NGXF=    48 NGYF=   48 NGZF=  700
   support grid    NGXF=    96 NGYF=   96 NGZF= 1400
   ions per type =              11  10   7
 NGX,Y,Z   is equivalent  to a cutoff of  13.42, 13.42, 12.84 a.u.
 NGXF,Y,Z  is equivalent  to a cutoff of  26.83, 26.83, 25.69 a.u.


 I would recommend the setting:
   dimension x,y,z NGX =    22 NGY =   22 NGZ =  337
 SYSTEM =  unknown system                          
 POSCAR =  Layer                                   

 Startparameter for this run:
   NWRITE =      2    write-flag & timer
   PREC   = accura    normal or accurate (medium, high low for compatibility)
   ISTART =      0    job   : 0-new  1-cont  2-samecut
   ICHARG =      2    charge: 1-file 2-atom 10-const
   ISPIN  =      1    spin polarized calculation?
   LNONCOLLINEAR =      F non collinear calculations
   LSORBIT =      F    spin-orbit coupling
   INIWAV =      1    electr: 0-lowe 1-rand  2-diag
   LASPH  =      F    aspherical Exc in radial PAW
   METAGGA=      F    non-selfconsistent MetaGGA calc.

 Electronic Relaxation 1
   ENCUT  =  520.0 eV  38.22 Ry    6.18 a.u.   5.53  5.53 84.23*2*pi/ulx,y,z
   ENINI  =  520.0     initial cutoff
   ENAUG  =  605.4 eV  augmentation charge cutoff
   NELM   =    100;   NELMIN=  6; NELMDL=  0     # of ELM steps 
   EDIFF  = 0.1E-04   stopping-criterion for ELM
   LREAL  =      F    real-space projection
   NLSPLINE    = F    spline interpolate recip. space projectors
   LCOMPAT=      F    compatible to vasp.4.4
   GGA_COMPAT  = T    GGA compatible to vasp.4.4-vasp.4.6
   LMAXPAW     = -100 max onsite density
   LMAXMIX     =    2 max onsite mixed and CHGCAR
   VOSKOWN=      0    Vosko Wilk Nusair interpolation
   ROPT   =    0.00000   0.00000   0.00000
 Ionic relaxation
   EDIFFG = -.2E-01   stopping-criterion for IOM
   NSW    =    500    number of steps for IOM
   NBLOCK =      1;   KBLOCK =    500    inner block; outer block 
   IBRION =      2    ionic relax: 0-MD 1-quasi-New 2-CG
   NFREE  =      1    steps in history (QN), initial steepest desc. (CG)
   ISIF   =      2    stress and relaxation
   IWAVPR =     11    prediction:  0-non 1-charg 2-wave 3-comb
   ISYM   =      2    0-nonsym 1-usesym 2-fastsym
   LCORR  =      T    Harris-Foulkes like correction to forces

   POTIM  = 0.5000    time-step for ionic-motion
   TEIN   =    0.0    initial temperature
   TEBEG  =    0.0;   TEEND  =   0.0 temperature during run
   SMASS  =  -3.00    Nose mass-parameter (am)
   estimated Nose-frequenzy (Omega)   =  0.10E-29 period in steps =****** mass=  -0.202E-27a.u.
   SCALEE = 1.0000    scale energy and forces
   NPACO  =    256;   APACO  = 16.0  distance and # of slots for P.C.
   PSTRESS=    0.0 pullay stress

  Mass of Ions in am
   POMASS =  16.00 24.30 26.98
  Ionic Valenz
   ZVAL   =   6.00  2.00  3.00
  Atomic Wigner-Seitz radii
   RWIGS  =  -1.00 -1.00 -1.00
  virtual crystal weights 
   VCA    =   1.00  1.00  1.00
   NELECT =     107.0000    total number of electrons
   NUPDOWN=      -1.0000    fix difference up-down

 DOS related values:
   EMIN   =  10.00;   EMAX   =-10.00  energy-range for DOS
   EFERMI =   0.00
   ISMEAR =     0;   SIGMA  =   0.05  broadening in eV -4-tet -1-fermi 0-gaus

 Electronic relaxation 2 (details)
   IALGO  =     38    algorithm
   LDIAG  =      T    sub-space diagonalisation (order eigenvalues)
   LSUBROT=      F    optimize rotation matrix (better conditioning)
   TURBO    =      0    0=normal 1=particle mesh
   IRESTART =      0    0=no restart 2=restart with 2 vectors
   NREBOOT  =      0    no. of reboots
   NMIN     =      0    reboot dimension
   EREF     =   0.00    reference energy to select bands
   IMIX   =      4    mixing-type and parameters
     AMIX     =   0.40;   BMIX     =  1.00
     AMIX_MAG =   1.60;   BMIX_MAG =  1.00
     AMIN     =   0.01
     WC   =   100.;   INIMIX=   1;  MIXPRE=   1;  MAXMIX= -45

 Intra band minimization:
   WEIMIN = 0.0010     energy-eigenvalue tresh-hold
   EBREAK =  0.37E-07  absolut break condition
   DEPER  =   0.30     relativ break condition  

   TIME   =   0.40     timestep for ELM

  volume/ion in A,a.u.               =      12.39        83.61
  Fermi-wavevector in a.u.,A,eV,Ry     =   1.106095  2.090216 16.645987  1.223446
  Thomas-Fermi vector in A             =   2.242591
 
 Write flags
   LWAVE  =      F    write WAVECAR
   LCHARG =      T    write CHGCAR
   LVTOT  =      F    write LOCPOT, total local potential
   LVHAR  =      F    write LOCPOT, Hartree potential only
   LELF   =      F    write electronic localiz. function (ELF)
   LORBIT =      0    0 simple, 1 ext, 2 COOP (PROOUT)


 Dipole corrections
   LMONO  =      F    monopole corrections only (constant potential shift)
   LDIPOL =      F    correct potential (dipole corrections)
   IDIPOL =      0    1-x, 2-y, 3-z, 4-all directions 
   EPSILON=  1.0000000 bulk dielectric constant

 Exchange correlation treatment:
   GGA     =    --    GGA type
   LEXCH   =     8    internal setting for exchange type
   VOSKOWN=      0    Vosko Wilk Nusair interpolation
   LHFCALC =     F    Hartree Fock is set to
   LHFONE  =     F    Hartree Fock one center treatment
   AEXX    =    0.0000 exact exchange contribution

 Linear response parameters
   LEPSILON=     F    determine dielectric tensor
   LRPA    =     F    only Hartree local field effects (RPA)
   LNABLA  =     F    use nabla operator in PAW spheres
   LVEL    =     F    velocity operator in full k-point grid
   LINTERFAST=   F  fast interpolation
   KINTER  =     0    interpolate to denser k-point grid
   CSHIFT  =0.1000    complex shift for real part using Kramers Kronig
   OMEGAMAX=  -1.0    maximum frequency
   DEG_THRESHOLD= 0.2000000E-02 threshold for treating states as degnerate
   RTIME   =    0.100 relaxation time in fs

 Orbital magnetization related:
   ORBITALMAG=     F  switch on orbital magnetization
   LCHIMAG   =     F  perturbation theory with respect to B field
   DQ        =  0.001000  dq finite difference perturbation B field



--------------------------------------------------------------------------------------------------------


 conjugate gradient relaxation of ions
   using selective dynamics as specified on POSCAR
 charge density and potential will be updated during run
 non-spin polarized calculation
 Variant of blocked Davidson
 Davidson routine will perform the subspace rotation
 perform sub-space diagonalisation
    after iterative eigenvector-optimisation
 modified Broyden-mixing scheme, WC =      100.0
 initial mixing is a Kerker type mixing with AMIX =  0.4000 and BMIX =      1.0000
 Hartree-type preconditioning will be used
 using additional bands           14
 reciprocal scheme for non local part
 use partial core corrections
 calculate Harris-corrections to forces 
   (improved forces if not selfconsistent)
 use gradient corrections 
 use of overlap-Matrix (Vanderbilt PP)
 Gauss-broadening in eV      SIGMA  =   0.05


--------------------------------------------------------------------------------------------------------


  energy-cutoff  :      520.00
  volume of cell :      346.92
      direct lattice vectors                 reciprocal lattice vectors
     2.575303410 -1.486851677  0.000000000     0.388303761  0.000000000  0.000000000
     0.000000000  2.973703354  0.000000000     0.194151881  0.336281021  0.000000000
    -0.000000000  0.000000000 45.300737193     0.000000000  0.000000000  0.022074696

  length of vectors
     2.973704014  2.973703354 45.300737193     0.388303761  0.388303847  0.022074696


 
 k-points in units of 2pi/SCALE and weight: K-Spacing Value to Generate K-Mesh: 0.02
   0.00000000  0.00000000  0.00000000       0.006
   0.02986952  0.00000000  0.00000000       0.036
   0.05973904  0.00000000  0.00000000       0.036
   0.08960856  0.00000000  0.00000000       0.036
   0.11947808  0.00000000  0.00000000       0.036
   0.14934760  0.00000000  0.00000000       0.036
   0.17921712  0.00000000  0.00000000       0.036
   0.04480428  0.02586777  0.00000000       0.036
   0.07467380  0.02586777  0.00000000       0.071
   0.10454332  0.02586777  0.00000000       0.071
   0.13441284  0.02586777  0.00000000       0.071
   0.16428236  0.02586777  0.00000000       0.071
   0.19415188  0.02586777  0.00000000       0.036
   0.08960856  0.05173554  0.00000000       0.036
   0.11947808  0.05173554  0.00000000       0.071
   0.14934760  0.05173554  0.00000000       0.071
   0.17921712  0.05173554  0.00000000       0.071
   0.13441284  0.07760331  0.00000000       0.036
   0.16428236  0.07760331  0.00000000       0.071
   0.19415188  0.07760331  0.00000000       0.036
   0.17921712  0.10347108  0.00000000       0.036
 
 k-points in reciprocal lattice and weights: K-Spacing Value to Generate K-Mesh: 0.02
   0.00000000  0.00000000  0.00000000       0.006
   0.07692308  0.00000000  0.00000000       0.036
   0.15384615  0.00000000  0.00000000       0.036
   0.23076923  0.00000000  0.00000000       0.036
   0.30769231  0.00000000  0.00000000       0.036
   0.38461538  0.00000000  0.00000000       0.036
   0.46153846  0.00000000  0.00000000       0.036
   0.07692308  0.07692308  0.00000000       0.036
   0.15384615  0.07692308  0.00000000       0.071
   0.23076923  0.07692308  0.00000000       0.071
   0.30769231  0.07692308  0.00000000       0.071
   0.38461538  0.07692308  0.00000000       0.071
   0.46153846  0.07692308  0.00000000       0.036
   0.15384615  0.15384615  0.00000000       0.036
   0.23076923  0.15384615  0.00000000       0.071
   0.30769231  0.15384615  0.00000000       0.071
   0.38461538  0.15384615  0.00000000       0.071
   0.23076923  0.23076923  0.00000000       0.036
   0.30769231  0.23076923 -0.00000000       0.071
   0.38461538  0.23076923  0.00000000       0.036
   0.30769231  0.30769231  0.00000000       0.036
 
 position of ions in fractional coordinates (direct lattice) 
   0.33333300  0.66666700  0.24386799
   0.00000000  0.00000000  0.35656873
   0.33333300  0.66666700  0.41255604
   0.00000000  0.00000000  0.52454119
   0.33333300  0.66666700  0.58053300
   0.00000000  0.00000000  0.69250953
   0.33333300  0.66666700  0.74855223
   0.66666700  0.33333300  0.30052853
   0.66666700  0.33333300  0.46854933
   0.66666700  0.33333300  0.63652473
   0.66666700  0.33333300  0.80521328
   0.00000000  0.00000000  0.27256402
   0.00000000  0.00000000  0.44055314
   0.00000000  0.00000000  0.60852828
   0.00000000  0.00000000  0.77651730
   0.66666700  0.33333300  0.38455776
   0.66666700  0.33333300  0.55252670
   0.66666700  0.33333300  0.72052587
   0.33333300  0.66666700  0.32856005
   0.33333300  0.66666700  0.49655340
   0.33333300  0.66666700  0.66452775
   0.00000000  0.00000000  0.02454226
   0.00000000  0.00000000  0.21055424
   0.66666700  0.33333300  0.15661747
   0.33333300  0.66666700  0.08007378
   0.00000000  0.00000000  0.83852950
   0.66666700  0.33333300  0.96900894
   0.33333300  0.66666700  0.89246596
 
 position of ions in cartesian coordinates  (Angst):
   0.85843361  1.48685316 11.04739979
  -0.00000000  0.00000000 16.15282650
   0.85843361  1.48685316 18.68909273
  -0.00000000  0.00000000 23.76210245
   0.85843361  1.48685316 26.29857275
  -0.00000000  0.00000000 31.37119219
   0.85843361  1.48685316 33.90996766
   1.71686980 -0.00000149 13.61416409
   1.71686980 -0.00000149 21.22562992
   1.71686980 -0.00000149 28.83503941
   1.71686980 -0.00000149 36.47675509
  -0.00000000  0.00000000 12.34735119
  -0.00000000  0.00000000 19.95738197
  -0.00000000  0.00000000 27.56677965
  -0.00000000  0.00000000 35.17680597
   1.71686980 -0.00000149 17.42075006
   1.71686980 -0.00000149 25.02986687
   1.71686980 -0.00000149 32.64035330
   0.85843361  1.48685316 14.88401262
   0.85843361  1.48685316 22.49423524
   0.85843361  1.48685316 30.10359695
  -0.00000000  0.00000000  1.11178239
  -0.00000000  0.00000000  9.53826219
   1.71686980 -0.00000149  7.09488677
   0.85843361  1.48685316  3.62740141
  -0.00000000  0.00000000 37.98600463
   1.71686980 -0.00000149 43.89681926
   0.85843361  1.48685316 40.42936593
 


--------------------------------------------------------------------------------------------------------


 k-point  1 :   0.0000 0.0000 0.0000  plane waves:    9505
 k-point  2 :   0.0769 0.0000 0.0000  plane waves:    9493
 k-point  3 :   0.1538 0.0000 0.0000  plane waves:    9457
 k-point  4 :   0.2308 0.0000 0.0000  plane waves:    9394
 k-point  5 :   0.3077 0.0000 0.0000  plane waves:    9328
 k-point  6 :   0.3846 0.0000 0.0000  plane waves:    9304
 k-point  7 :   0.4615 0.0000 0.0000  plane waves:    9224
 k-point  8 :   0.0769 0.0769 0.0000  plane waves:    9459
 k-point  9 :   0.1538 0.0769 0.0000  plane waves:    9405
 k-point 10 :   0.2308 0.0769 0.0000  plane waves:    9353
 k-point 11 :   0.3077 0.0769 0.0000  plane waves:    9336
 k-point 12 :   0.3846 0.0769 0.0000  plane waves:    9270
 k-point 13 :   0.4615 0.0769 0.0000  plane waves:    9236
 k-point 14 :   0.1538 0.1538 0.0000  plane waves:    9361
 k-point 15 :   0.2308 0.1538 0.0000  plane waves:    9349
 k-point 16 :   0.3077 0.1538 0.0000  plane waves:    9329
 k-point 17 :   0.3846 0.1538 0.0000  plane waves:    9271
 k-point 18 :   0.2308 0.2308 0.0000  plane waves:    9333
 k-point 19 :   0.3077 0.2308-0.0000  plane waves:    9310
 k-point 20 :   0.3846 0.2308 0.0000  plane waves:    9308
 k-point 21 :   0.3077 0.3077 0.0000  plane waves:    9346

 maximum and minimum number of plane-waves per node :      2386     2288

 maximum number of plane-waves:      9505
 maximum index in each direction: 
   IXMAX=    5   IYMAX=    5   IZMAX=   84
   IXMIN=   -5   IYMIN=   -5   IZMIN=  -84

 NGX is ok and might be reduce to  22
 NGY is ok and might be reduce to  22
 NGZ is ok and might be reduce to 338

 parallel 3D FFT for wavefunctions:
    minimum data exchange during FFTs selected (reduces bandwidth)
 parallel 3D FFT for charge:
    minimum data exchange during FFTs selected (reduces bandwidth)


 total amount of memory used by VASP on root node   159377. kBytes
========================================================================

   base      :      30000. kBytes
   nonl-proj :      16702. kBytes
   fftplans  :      60347. kBytes
   grid      :      24192. kBytes
   one-center:         56. kBytes
   wavefun   :      28080. kBytes
 
     INWAV:  cpu time    0.00: real time    0.00
 Broyden mixing: mesh for mixing (old mesh)
   NGX = 11   NGY = 11   NGZ =169
  (NGX  = 48   NGY  = 48   NGZ  =700)
  gives a total of  20449 points

 initial charge density was supplied:
 charge density of overlapping atoms calculated
 number of electron     107.0000000 magnetization 
 keeping initial charge density in first step


--------------------------------------------------------------------------------------------------------


 Maximum index for augmentation-charges        23736 (set IRDMAX)


--------------------------------------------------------------------------------------------------------


 First call to EWALD:  gamma=   0.252
 Maximum number of real-space cells 7x 7x 1
 Maximum number of reciprocal cells 1x 1x15

 FEWALD executed in parallel
    FEWALD:  cpu time    0.00: real time    0.00


----------------------------------------- Iteration    1(   1)  ---------------------------------------


    POTLOK:  cpu time    0.11: real time    0.11
    SETDIJ:  cpu time    0.11: real time    0.11
     EDDAV:  cpu time    4.79: real time    4.81
       DOS:  cpu time    0.00: real time    0.00
    --------------------------------------------
      LOOP:  cpu time    5.01: real time    5.03

 eigenvalue-minimisations  :  2856
 total energy-change (2. order) : 0.5696433E+03  (-0.4819645E+04)
 number of electron     107.0000000 magnetization 
 augmentation part      107.0000000 magnetization 

 Free energy of the ion-electron system (eV)
  ---------------------------------------------------
  alpha Z        PSCENC =       145.55942150
  Ewald energy   TEWEN  =     18213.88294694
  -Hartree energ DENC   =    -23821.67026439
  -exchange      EXHF   =         0.00000000
  -V(xc)+E(xc)   XCENC  =      -364.00229028
  PAW double counting   =      4928.51229836    -4205.98855578
  entropy T*S    EENTRO =        -0.00531493
  eigenvalues    EBANDS =       312.27938268
  atomic energy  EATOM  =      5361.07568887
  ---------------------------------------------------
  free energy    TOTEN  =       569.64331298 eV

  energy without entropy =      569.64862791  energy(sigma->0) =      569.64597045


--------------------------------------------------------------------------------------------------------




----------------------------------------- Iteration    1(   2)  ---------------------------------------


     EDDAV:  cpu time    5.76: real time    5.76
       DOS:  cpu time    0.00: real time    0.00
    --------------------------------------------
      LOOP:  cpu time    5.76: real time    5.76

 eigenvalue-minimisations  :  3688
 total energy-change (2. order) :-0.6731625E+03  (-0.6398773E+03)
 number of electron     107.0000000 magnetization 
 augmentation part      107.0000000 magnetization 

 Free energy of the ion-electron system (eV)
  ---------------------------------------------------
  alpha Z        PSCENC =       145.55942150
  Ewald energy   TEWEN  =     18213.88294694
  -Hartree energ DENC   =    -23821.67026439
  -exchange      EXHF   =         0.00000000
  -V(xc)+E(xc)   XCENC  =      -364.00229028
  PAW double counting   =      4928.51229836    -4205.98855578
  entropy T*S    EENTRO =        -0.00613762
  eigenvalues    EBANDS =      -360.88232614
  atomic energy  EATOM  =      5361.07568887
  ---------------------------------------------------
  free energy    TOTEN  =      -103.51921852 eV

  energy without entropy =     -103.51308090  energy(sigma->0) =     -103.51614971


--------------------------------------------------------------------------------------------------------




----------------------------------------- Iteration    1(   3)  ---------------------------------------


     EDDAV:  cpu time    5.32: real time    5.32
       DOS:  cpu time    0.00: real time    0.00
    --------------------------------------------
      LOOP:  cpu time    5.32: real time    5.32

 eigenvalue-minimisations  :  3336
 total energy-change (2. order) :-0.6385493E+02  (-0.6346417E+02)
 number of electron     107.0000000 magnetization 
 augmentation part      107.0000000 magnetization 

 Free energy of the ion-electron system (eV)
  ---------------------------------------------------
  alpha Z        PSCENC =       145.55942150
  Ewald energy   TEWEN  =     18213.88294694
  -Hartree energ DENC   =    -23821.67026439
  -exchange      EXHF   =         0.00000000
  -V(xc)+E(xc)   XCENC  =      -364.00229028
  PAW double counting   =      4928.51229836    -4205.98855578
  entropy T*S    EENTRO =        -0.00525945
  eigenvalues    EBANDS =      -424.73812953
  atomic energy  EATOM  =      5361.07568887
  ---------------------------------------------------
  free energy    TOTEN  =      -167.37414374 eV

  energy without entropy =     -167.36888429  energy(sigma->0) =     -167.37151402


--------------------------------------------------------------------------------------------------------




----------------------------------------- Iteration    1(   4)  ---------------------------------------


     EDDAV:  cpu time    5.34: real time    5.35
       DOS:  cpu time    0.00: real time    0.00
    --------------------------------------------
      LOOP:  cpu time    5.35: real time    5.35

 eigenvalue-minimisations  :  3360
 total energy-change (2. order) :-0.9189924E+00  (-0.9168282E+00)
 number of electron     107.0000000 magnetization 
 augmentation part      107.0000000 magnetization 

 Free energy of the ion-electron system (eV)
  ---------------------------------------------------
  alpha Z        PSCENC =       145.55942150
  Ewald energy   TEWEN  =     18213.88294694
  -Hartree energ DENC   =    -23821.67026439
  -exchange      EXHF   =         0.00000000
  -V(xc)+E(xc)   XCENC  =      -364.00229028
  PAW double counting   =      4928.51229836    -4205.98855578
  entropy T*S    EENTRO =        -0.00523204
  eigenvalues    EBANDS =      -425.65714937
  atomic energy  EATOM  =      5361.07568887
  ---------------------------------------------------
  free energy    TOTEN  =      -168.29313618 eV

  energy without entropy =     -168.28790414  energy(sigma->0) =     -168.29052016


--------------------------------------------------------------------------------------------------------




----------------------------------------- Iteration    1(   5)  ---------------------------------------


     EDDAV:  cpu time    5.38: real time    5.38
       DOS:  cpu time    0.00: real time    0.00
    CHARGE:  cpu time    0.45: real time    0.45
    MIXING:  cpu time    0.00: real time    0.00
    --------------------------------------------
      LOOP:  cpu time    5.83: real time    5.83

 eigenvalue-minimisations  :  3376
 total energy-change (2. order) :-0.1641648E-01  (-0.1640206E-01)
 number of electron     107.0000001 magnetization 
 augmentation part        8.4727863 magnetization 

 Broyden mixing:
  rms(total) = 0.23991E+01    rms(broyden)= 0.23986E+01
  rms(prec ) = 0.24512E+01
  weight for this iteration     100.00

 Free energy of the ion-electron system (eV)
  ---------------------------------------------------
  alpha Z        PSCENC =       145.55942150
  Ewald energy   TEWEN  =     18213.88294694
  -Hartree energ DENC   =    -23821.67026439
  -exchange      EXHF   =         0.00000000
  -V(xc)+E(xc)   XCENC  =      -364.00229028
  PAW double counting   =      4928.51229836    -4205.98855578
  entropy T*S    EENTRO =        -0.00523968
  eigenvalues    EBANDS =      -425.67355820
  atomic energy  EATOM  =      5361.07568887
  ---------------------------------------------------
  free energy    TOTEN  =      -168.30955265 eV

  energy without entropy =     -168.30431297  energy(sigma->0) =     -168.30693281


--------------------------------------------------------------------------------------------------------




----------------------------------------- Iteration    1(   6)  ---------------------------------------


    POTLOK:  cpu time    0.11: real time    0.11
    SETDIJ:  cpu time    0.10: real time    0.10
     EDDAV:  cpu time    5.27: real time    5.28
       DOS:  cpu time    0.00: real time    0.00
    CHARGE:  cpu time    0.44: real time    0.44
    MIXING:  cpu time    0.01: real time    0.01
    --------------------------------------------
      LOOP:  cpu time    5.94: real time    5.94

 eigenvalue-minimisations  :  3288
 total energy-change (2. order) : 0.1700249E+02  (-0.9782192E+01)
 number of electron     107.0000002 magnetization 
 augmentation part        6.8415850 magnetization 

 Broyden mixing:
  rms(total) = 0.82533E+00    rms(broyden)= 0.82442E+00
  rms(prec ) = 0.83361E+00
  weight for this iteration     100.00

 eigenvalues of (default mixing * dielectric matrix)
  average eigenvalue GAMMA=   0.8327
  0.8327

 Free energy of the ion-electron system (eV)
  ---------------------------------------------------
  alpha Z        PSCENC =       145.55942150
  Ewald energy   TEWEN  =     18213.88294694
  -Hartree energ DENC   =    -24034.80532954
  -exchange      EXHF   =         0.00000000
  -V(xc)+E(xc)   XCENC  =      -349.53104149
  PAW double counting   =      5811.57504087    -5092.74134365
  entropy T*S    EENTRO =        -0.00360011
  eigenvalues    EBANDS =      -206.31884652
  atomic energy  EATOM  =      5361.07568887
  ---------------------------------------------------
  free energy    TOTEN  =      -151.30706312 eV

  energy without entropy =     -151.30346301  energy(sigma->0) =     -151.30526307


--------------------------------------------------------------------------------------------------------




----------------------------------------- Iteration    1(   7)  ---------------------------------------


    POTLOK:  cpu time    0.11: real time    0.11
    SETDIJ:  cpu time    0.10: real time    0.10
     EDDAV:  cpu time    5.11: real time    5.11
       DOS:  cpu time    0.00: real time    0.00
    CHARGE:  cpu time    0.44: real time    0.44
    MIXING:  cpu time    0.01: real time    0.01
    --------------------------------------------
      LOOP:  cpu time    5.76: real time    5.77

 eigenvalue-minimisations  :  3148
 total energy-change (2. order) : 0.1019859E+00  (-0.2799091E+00)
 number of electron     107.0000002 magnetization 
 augmentation part        6.8833502 magnetization 

 Broyden mixing:
  rms(total) = 0.50087E+00    rms(broyden)= 0.50086E+00
  rms(prec ) = 0.50546E+00
  weight for this iteration     100.00

 eigenvalues of (default mixing * dielectric matrix)
  average eigenvalue GAMMA=   1.5162
  0.9864  2.0460

 Free energy of the ion-electron system (eV)
  ---------------------------------------------------
  alpha Z        PSCENC =       145.55942150
  Ewald energy   TEWEN  =     18213.88294694
  -Hartree energ DENC   =    -24028.23661572
  -exchange      EXHF   =         0.00000000
  -V(xc)+E(xc)   XCENC  =      -349.32399107
  PAW double counting   =      6118.92703700    -5399.55608500
  entropy T*S    EENTRO =        -0.00356424
  eigenvalues    EBANDS =      -213.52991554
  atomic energy  EATOM  =      5361.07568887
  ---------------------------------------------------
  free energy    TOTEN  =      -151.20507726 eV

  energy without entropy =     -151.20151302  energy(sigma->0) =     -151.20329514


--------------------------------------------------------------------------------------------------------




----------------------------------------- Iteration    1(   8)  ---------------------------------------


    POTLOK:  cpu time    0.11: real time    0.11
    SETDIJ:  cpu time    0.10: real time    0.10
     EDDAV:  cpu time    5.36: real time    5.37
       DOS:  cpu time    0.00: real time    0.00
    CHARGE:  cpu time    0.44: real time    0.44
    MIXING:  cpu time    0.01: real time    0.01
    --------------------------------------------
      LOOP:  cpu time    6.02: real time    6.03

 eigenvalue-minimisations  :  3368
 total energy-change (2. order) : 0.8603269E-01  (-0.8733364E-01)
 number of electron     107.0000002 magnetization 
 augmentation part        6.9631972 magnetization 

 Broyden mixing:
  rms(total) = 0.13664E+00    rms(broyden)= 0.13657E+00
  rms(prec ) = 0.14051E+00
  weight for this iteration     100.00

 eigenvalues of (default mixing * dielectric matrix)
  average eigenvalue GAMMA=   1.3410
  2.2872  0.8680  0.8680

 Free energy of the ion-electron system (eV)
  ---------------------------------------------------
  alpha Z        PSCENC =       145.55942150
  Ewald energy   TEWEN  =     18213.88294694
  -Hartree energ DENC   =    -24031.01157142
  -exchange      EXHF   =         0.00000000
  -V(xc)+E(xc)   XCENC  =      -348.12956882
  PAW double counting   =      6564.81517820    -5845.03694421
  entropy T*S    EENTRO =        -0.00310059
  eigenvalues    EBANDS =      -212.27109504
  atomic energy  EATOM  =      5361.07568887
  ---------------------------------------------------
  free energy    TOTEN  =      -151.11904456 eV

  energy without entropy =     -151.11594397  energy(sigma->0) =     -151.11749427


--------------------------------------------------------------------------------------------------------




----------------------------------------- Iteration    1(   9)  ---------------------------------------


    POTLOK:  cpu time    0.11: real time    0.11
    SETDIJ:  cpu time    0.11: real time    0.11
     EDDAV:  cpu time    5.38: real time    5.38
       DOS:  cpu time    0.00: real time    0.00
    CHARGE:  cpu time    0.44: real time    0.44
    MIXING:  cpu time    0.00: real time    0.00
    --------------------------------------------
      LOOP:  cpu time    6.04: real time    6.05

 eigenvalue-minimisations  :  3372
 total energy-change (2. order) : 0.3547100E-01  (-0.1499186E-01)
 number of electron     107.0000002 magnetization 
 augmentation part        6.9237561 magnetization 

 Broyden mixing:
  rms(total) = 0.60621E-01    rms(broyden)= 0.60613E-01
  rms(prec ) = 0.62100E-01
  weight for this iteration     100.00

 eigenvalues of (default mixing * dielectric matrix)
  average eigenvalue GAMMA=   1.4523
  2.4973  0.9221  0.9221  1.4676

 Free energy of the ion-electron system (eV)
  ---------------------------------------------------
  alpha Z        PSCENC =       145.55942150
  Ewald energy   TEWEN  =     18213.88294694
  -Hartree energ DENC   =    -24037.21210699
  -exchange      EXHF   =         0.00000000
  -V(xc)+E(xc)   XCENC  =      -347.51456680
  PAW double counting   =      6616.23310036    -5896.52152329
  entropy T*S    EENTRO =        -0.00273826
  eigenvalues    EBANDS =      -206.58379590
  atomic energy  EATOM  =      5361.07568887
  ---------------------------------------------------
  free energy    TOTEN  =      -151.08357356 eV

  energy without entropy =     -151.08083530  energy(sigma->0) =     -151.08220443


--------------------------------------------------------------------------------------------------------




----------------------------------------- Iteration    1(  10)  ---------------------------------------


    POTLOK:  cpu time    0.11: real time    0.11
    SETDIJ:  cpu time    0.11: real time    0.11
     EDDAV:  cpu time    5.12: real time    5.12
       DOS:  cpu time    0.00: real time    0.00
    CHARGE:  cpu time    0.44: real time    0.44
    MIXING:  cpu time    0.01: real time    0.01
    --------------------------------------------
      LOOP:  cpu time    5.78: real time    5.79

 eigenvalue-minimisations  :  3176
 total energy-change (2. order) :-0.5038430E-02  (-0.1232173E-01)
 number of electron     107.0000002 magnetization 
 augmentation part        6.9020239 magnetization 

 Broyden mixing:
  rms(total) = 0.44414E-01    rms(broyden)= 0.44374E-01
  rms(prec ) = 0.45607E-01
  weight for this iteration     100.00

 eigenvalues of (default mixing * dielectric matrix)
  average eigenvalue GAMMA=   1.3027
  2.5153  1.2578  1.0179  0.8613  0.8613

 Free energy of the ion-electron system (eV)
  ---------------------------------------------------
  alpha Z        PSCENC =       145.55942150
  Ewald energy   TEWEN  =     18213.88294694
  -Hartree energ DENC   =    -24039.03924928
  -exchange      EXHF   =         0.00000000
  -V(xc)+E(xc)   XCENC  =      -347.22534328
  PAW double counting   =      6607.12079894    -5887.43401188
  entropy T*S    EENTRO =        -0.00288358
  eigenvalues    EBANDS =      -205.02598023
  atomic energy  EATOM  =      5361.07568887
  ---------------------------------------------------
  free energy    TOTEN  =      -151.08861199 eV

  energy without entropy =     -151.08572841  energy(sigma->0) =     -151.08717020


--------------------------------------------------------------------------------------------------------




----------------------------------------- Iteration    1(  11)  ---------------------------------------


    POTLOK:  cpu time    0.11: real time    0.11
    SETDIJ:  cpu time    0.10: real time    0.10
     EDDAV:  cpu time    5.84: real time    5.84
       DOS:  cpu time    0.00: real time    0.00
    CHARGE:  cpu time    0.44: real time    0.44
    MIXING:  cpu time    0.01: real time    0.01
    --------------------------------------------
      LOOP:  cpu time    6.50: real time    6.50

 eigenvalue-minimisations  :  3764
 total energy-change (2. order) : 0.3417329E-02  (-0.1361056E-02)
 number of electron     107.0000002 magnetization 
 augmentation part        6.9085338 magnetization 

 Broyden mixing:
  rms(total) = 0.20425E-01    rms(broyden)= 0.20423E-01
  rms(prec ) = 0.20984E-01
  weight for this iteration     100.00

 eigenvalues of (default mixing * dielectric matrix)
  average eigenvalue GAMMA=   1.4283
  2.5914  2.0470  0.9603  0.9603  1.0054  1.0054

 Free energy of the ion-electron system (eV)
  ---------------------------------------------------
  alpha Z        PSCENC =       145.55942150
  Ewald energy   TEWEN  =     18213.88294694
  -Hartree energ DENC   =    -24038.47035649
  -exchange      EXHF   =         0.00000000
  -V(xc)+E(xc)   XCENC  =      -347.24230033
  PAW double counting   =      6600.98092798    -5881.29095339
  entropy T*S    EENTRO =        -0.00279615
  eigenvalues    EBANDS =      -205.57777362
  atomic energy  EATOM  =      5361.07568887
  ---------------------------------------------------
  free energy    TOTEN  =      -151.08519466 eV

  energy without entropy =     -151.08239852  energy(sigma->0) =     -151.08379659


--------------------------------------------------------------------------------------------------------




----------------------------------------- Iteration    1(  12)  ---------------------------------------


    POTLOK:  cpu time    0.11: real time    0.11
    SETDIJ:  cpu time    0.10: real time    0.10
     EDDAV:  cpu time    5.19: real time    5.19
       DOS:  cpu time    0.00: real time    0.00
    CHARGE:  cpu time    0.44: real time    0.44
    MIXING:  cpu time    0.01: real time    0.01
    --------------------------------------------
      LOOP:  cpu time    5.84: real time    5.85

 eigenvalue-minimisations  :  3220
 total energy-change (2. order) :-0.3057373E-03  (-0.8642564E-03)
 number of electron     107.0000002 magnetization 
 augmentation part        6.9079424 magnetization 

 Broyden mixing:
  rms(total) = 0.10490E-01    rms(broyden)= 0.10480E-01
  rms(prec ) = 0.11013E-01
  weight for this iteration     100.00

 eigenvalues of (default mixing * dielectric matrix)
  average eigenvalue GAMMA=   1.3752
  2.7551  2.4393  0.9412  0.9412  0.9659  0.9659  0.6179

 Free energy of the ion-electron system (eV)
  ---------------------------------------------------
  alpha Z        PSCENC =       145.55942150
  Ewald energy   TEWEN  =     18213.88294694
  -Hartree energ DENC   =    -24038.41706423
  -exchange      EXHF   =         0.00000000
  -V(xc)+E(xc)   XCENC  =      -347.19687318
  PAW double counting   =      6579.49681209    -5859.81677232
  entropy T*S    EENTRO =        -0.00282971
  eigenvalues    EBANDS =      -205.66683037
  atomic energy  EATOM  =      5361.07568887
  ---------------------------------------------------
  free energy    TOTEN  =      -151.08550040 eV

  energy without entropy =     -151.08267069  energy(sigma->0) =     -151.08408554


--------------------------------------------------------------------------------------------------------




----------------------------------------- Iteration    1(  13)  ---------------------------------------


    POTLOK:  cpu time    0.11: real time    0.11
    SETDIJ:  cpu time    0.10: real time    0.10
     EDDAV:  cpu time    5.69: real time    5.70
       DOS:  cpu time    0.00: real time    0.00
    CHARGE:  cpu time    0.44: real time    0.44
    MIXING:  cpu time    0.01: real time    0.01
    --------------------------------------------
      LOOP:  cpu time    6.35: real time    6.35

 eigenvalue-minimisations  :  3636
 total energy-change (2. order) : 0.1004684E-03  (-0.8057579E-04)
 number of electron     107.0000002 magnetization 
 augmentation part        6.9107265 magnetization 

 Broyden mixing:
  rms(total) = 0.79955E-02    rms(broyden)= 0.79947E-02
  rms(prec ) = 0.84318E-02
  weight for this iteration     100.00

 eigenvalues of (default mixing * dielectric matrix)
  average eigenvalue GAMMA=   1.3676
  2.8476  2.4498  0.9669  0.9669  1.0246  0.8260  0.9294  0.9294

 Free energy of the ion-electron system (eV)
  ---------------------------------------------------
  alpha Z        PSCENC =       145.55942150
  Ewald energy   TEWEN  =     18213.88294694
  -Hartree energ DENC   =    -24037.95545892
  -exchange      EXHF   =         0.00000000
  -V(xc)+E(xc)   XCENC  =      -347.20445120
  PAW double counting   =      6568.76514639    -5849.08296565
  entropy T*S    EENTRO =        -0.00283857
  eigenvalues    EBANDS =      -206.12288930
  atomic energy  EATOM  =      5361.07568887
  ---------------------------------------------------
  free energy    TOTEN  =      -151.08539993 eV

  energy without entropy =     -151.08256136  energy(sigma->0) =     -151.08398065


--------------------------------------------------------------------------------------------------------




----------------------------------------- Iteration    1(  14)  ---------------------------------------


    POTLOK:  cpu time    0.11: real time    0.11
    SETDIJ:  cpu time    0.10: real time    0.10
     EDDAV:  cpu time    5.76: real time    5.77
       DOS:  cpu time    0.00: real time    0.00
    CHARGE:  cpu time    0.44: real time    0.44
    MIXING:  cpu time    0.01: real time    0.01
    --------------------------------------------
      LOOP:  cpu time    6.43: real time    6.43

 eigenvalue-minimisations  :  3696
 total energy-change (2. order) : 0.1427439E-03  (-0.6755376E-04)
 number of electron     107.0000002 magnetization 
 augmentation part        6.9110277 magnetization 

 Broyden mixing:
  rms(total) = 0.24530E-02    rms(broyden)= 0.24499E-02
  rms(prec ) = 0.32531E-02
  weight for this iteration     100.00

 eigenvalues of (default mixing * dielectric matrix)
  average eigenvalue GAMMA=   1.3045
  2.8579  2.4760  0.9653  0.9653  1.0027  1.0027  0.7887  0.8411  0.8411

 Free energy of the ion-electron system (eV)
  ---------------------------------------------------
  alpha Z        PSCENC =       145.55942150
  Ewald energy   TEWEN  =     18213.88294694
  -Hartree energ DENC   =    -24037.77001325
  -exchange      EXHF   =         0.00000000
  -V(xc)+E(xc)   XCENC  =      -347.20417001
  PAW double counting   =      6566.93139418    -5847.24910216
  entropy T*S    EENTRO =        -0.00284018
  eigenvalues    EBANDS =      -206.30858309
  atomic energy  EATOM  =      5361.07568887
  ---------------------------------------------------
  free energy    TOTEN  =      -151.08525719 eV

  energy without entropy =     -151.08241701  energy(sigma->0) =     -151.08383710


--------------------------------------------------------------------------------------------------------




----------------------------------------- Iteration    1(  15)  ---------------------------------------


    POTLOK:  cpu time    0.11: real time    0.11
    SETDIJ:  cpu time    0.10: real time    0.10
     EDDAV:  cpu time    5.28: real time    5.28
       DOS:  cpu time    0.00: real time    0.00
    CHARGE:  cpu time    0.44: real time    0.44
    MIXING:  cpu time    0.01: real time    0.01
    --------------------------------------------
      LOOP:  cpu time    5.94: real time    5.94

 eigenvalue-minimisations  :  3288
 total energy-change (2. order) : 0.3928519E-04  (-0.1665686E-04)
 number of electron     107.0000002 magnetization 
 augmentation part        6.9105279 magnetization 

 Broyden mixing:
  rms(total) = 0.98192E-03    rms(broyden)= 0.98068E-03
  rms(prec ) = 0.20995E-02
  weight for this iteration     100.00

 eigenvalues of (default mixing * dielectric matrix)
  average eigenvalue GAMMA=   1.3834
  2.8294  2.3703  2.0302  0.9589  0.9589  0.9587  0.9587  0.9758  0.9758  0.8176

 Free energy of the ion-electron system (eV)
  ---------------------------------------------------
  alpha Z        PSCENC =       145.55942150
  Ewald energy   TEWEN  =     18213.88294694
  -Hartree energ DENC   =    -24037.64765340
  -exchange      EXHF   =         0.00000000
  -V(xc)+E(xc)   XCENC  =      -347.20277605
  PAW double counting   =      6566.73300304    -5847.05058331
  entropy T*S    EENTRO =        -0.00284017
  eigenvalues    EBANDS =      -206.43242534
  atomic energy  EATOM  =      5361.07568887
  ---------------------------------------------------
  free energy    TOTEN  =      -151.08521790 eV

  energy without entropy =     -151.08237773  energy(sigma->0) =     -151.08379782


--------------------------------------------------------------------------------------------------------




----------------------------------------- Iteration    1(  16)  ---------------------------------------


    POTLOK:  cpu time    0.11: real time    0.11
    SETDIJ:  cpu time    0.10: real time    0.10
     EDDAV:  cpu time    4.37: real time    4.38
       DOS:  cpu time    0.00: real time    0.00
    CHARGE:  cpu time    0.44: real time    0.44
    MIXING:  cpu time    0.01: real time    0.01
    --------------------------------------------
      LOOP:  cpu time    5.03: real time    5.04

 eigenvalue-minimisations  :  2516
 total energy-change (2. order) : 0.5221381E-04  (-0.2768747E-05)
 number of electron     107.0000002 magnetization 
 augmentation part        6.9105045 magnetization 

 Broyden mixing:
  rms(total) = 0.94130E-03    rms(broyden)= 0.94110E-03
  rms(prec ) = 0.18144E-02
  weight for this iteration     100.00

 eigenvalues of (default mixing * dielectric matrix)
  average eigenvalue GAMMA=   1.4347
  2.9789  2.5888  2.5888  0.9763  0.9763  0.9440  0.9440  1.0364  1.0364  0.9233
  0.7891

 Free energy of the ion-electron system (eV)
  ---------------------------------------------------
  alpha Z        PSCENC =       145.55942150
  Ewald energy   TEWEN  =     18213.88294694
  -Hartree energ DENC   =    -24037.44995906
  -exchange      EXHF   =         0.00000000
  -V(xc)+E(xc)   XCENC  =      -347.20121381
  PAW double counting   =      6567.54901011    -5847.86561599
  entropy T*S    EENTRO =        -0.00284265
  eigenvalues    EBANDS =      -206.63260160
  atomic energy  EATOM  =      5361.07568887
  ---------------------------------------------------
  free energy    TOTEN  =      -151.08516569 eV

  energy without entropy =     -151.08232304  energy(sigma->0) =     -151.08374436


--------------------------------------------------------------------------------------------------------




----------------------------------------- Iteration    1(  17)  ---------------------------------------


    POTLOK:  cpu time    0.11: real time    0.11
    SETDIJ:  cpu time    0.10: real time    0.10
     EDDAV:  cpu time    5.42: real time    5.42
       DOS:  cpu time    0.00: real time    0.00
    CHARGE:  cpu time    0.44: real time    0.44
    MIXING:  cpu time    0.01: real time    0.01
    --------------------------------------------
      LOOP:  cpu time    6.08: real time    6.08

 eigenvalue-minimisations  :  3404
 total energy-change (2. order) : 0.4510252E-04  (-0.6455876E-05)
 number of electron     107.0000002 magnetization 
 augmentation part        6.9103381 magnetization 

 Broyden mixing:
  rms(total) = 0.84558E-03    rms(broyden)= 0.84523E-03
  rms(prec ) = 0.14107E-02
  weight for this iteration     100.00

 eigenvalues of (default mixing * dielectric matrix)
  average eigenvalue GAMMA=   1.5232
  3.9211  2.7812  2.4368  1.6226  0.9714  0.9714  0.9588  0.9588  0.9639  0.9639
  0.8174  0.9105

 Free energy of the ion-electron system (eV)
  ---------------------------------------------------
  alpha Z        PSCENC =       145.55942150
  Ewald energy   TEWEN  =     18213.88294694
  -Hartree energ DENC   =    -24037.19380931
  -exchange      EXHF   =         0.00000000
  -V(xc)+E(xc)   XCENC  =      -347.19864306
  PAW double counting   =      6567.65263270    -5847.96924708
  entropy T*S    EENTRO =        -0.00285296
  eigenvalues    EBANDS =      -206.89125820
  atomic energy  EATOM  =      5361.07568887
  ---------------------------------------------------
  free energy    TOTEN  =      -151.08512059 eV

  energy without entropy =     -151.08226763  energy(sigma->0) =     -151.08369411


--------------------------------------------------------------------------------------------------------




----------------------------------------- Iteration    1(  18)  ---------------------------------------


    POTLOK:  cpu time    0.11: real time    0.11
    SETDIJ:  cpu time    0.10: real time    0.10
     EDDAV:  cpu time    5.15: real time    5.15
       DOS:  cpu time    0.00: real time    0.00
    CHARGE:  cpu time    0.44: real time    0.44
    MIXING:  cpu time    0.01: real time    0.01
    --------------------------------------------
      LOOP:  cpu time    5.81: real time    5.82

 eigenvalue-minimisations  :  3196
 total energy-change (2. order) : 0.2771851E-04  (-0.5970974E-05)
 number of electron     107.0000002 magnetization 
 augmentation part        6.9103632 magnetization 

 Broyden mixing:
  rms(total) = 0.51846E-03    rms(broyden)= 0.51794E-03
  rms(prec ) = 0.93329E-03
  weight for this iteration     100.00

 eigenvalues of (default mixing * dielectric matrix)
  average eigenvalue GAMMA=   1.6979
  5.7119  2.8937  2.4280  2.1950  0.9675  0.9675  0.9729  0.9729  1.1194  1.1194
  0.8162  0.9539  0.9539

 Free energy of the ion-electron system (eV)
  ---------------------------------------------------
  alpha Z        PSCENC =       145.55942150
  Ewald energy   TEWEN  =     18213.88294694
  -Hartree energ DENC   =    -24036.86689443
  -exchange      EXHF   =         0.00000000
  -V(xc)+E(xc)   XCENC  =      -347.19929333
  PAW double counting   =      6567.53543504    -5847.85159570
  entropy T*S    EENTRO =        -0.00286699
  eigenvalues    EBANDS =      -207.21793479
  atomic energy  EATOM  =      5361.07568887
  ---------------------------------------------------
  free energy    TOTEN  =      -151.08509287 eV

  energy without entropy =     -151.08222588  energy(sigma->0) =     -151.08365937


--------------------------------------------------------------------------------------------------------




----------------------------------------- Iteration    1(  19)  ---------------------------------------


    POTLOK:  cpu time    0.11: real time    0.11
    SETDIJ:  cpu time    0.10: real time    0.10
     EDDAV:  cpu time    5.16: real time    5.16
       DOS:  cpu time    0.00: real time    0.00
    --------------------------------------------
      LOOP:  cpu time    5.37: real time    5.37

 eigenvalue-minimisations  :  3192
 total energy-change (2. order) : 0.8384770E-05  (-0.5927446E-05)
 number of electron     107.0000002 magnetization 
 augmentation part        6.9103632 magnetization 

 Free energy of the ion-electron system (eV)
  ---------------------------------------------------
  alpha Z        PSCENC =       145.55942150
  Ewald energy   TEWEN  =     18213.88294694
  -Hartree energ DENC   =    -24036.65142588
  -exchange      EXHF   =         0.00000000
  -V(xc)+E(xc)   XCENC  =      -347.20181576
  PAW double counting   =      6567.64236539    -5847.95757782
  entropy T*S    EENTRO =        -0.00287221
  eigenvalues    EBANDS =      -207.43181553
  atomic energy  EATOM  =      5361.07568887
  ---------------------------------------------------
  free energy    TOTEN  =      -151.08508448 eV

  energy without entropy =     -151.08221227  energy(sigma->0) =     -151.08364838


--------------------------------------------------------------------------------------------------------




 average (electrostatic) potential at core
  the test charge radii are     0.7215  1.0714  1.0406
  (the norm of the test charge is              1.0000)
       1 -70.3568       2 -70.2685       3 -70.2432       4 -70.2319       5 -70.2316
       6 -70.2668       7 -70.2879       8 -70.2927       9 -70.2302      10 -70.2447
      11 -70.3472      12 -35.8936      13 -35.8489      14 -35.8518      15 -35.8861
      16 -35.8670      17 -35.8451      18 -35.8921      19 -35.8977      20 -35.8445
      21 -35.8695      22 -74.5086      23 -75.3000      24 -74.5689      25 -74.5396
      26 -75.2907      27 -74.5374      28 -74.5651
 
 
 
 E-fermi :   6.2939     XC(G=0): -10.2442     alpha+bet :-12.2558


 k-point     1 :       0.0000    0.0000    0.0000
  band No.  band energies     occupation 
      1     -14.5458      2.00000
      2     -14.5057      2.00000
      3     -14.4160      2.00000
      4     -14.2991      2.00000
      5     -14.1678      2.00000
      6     -14.0264      2.00000
      7     -13.8886      2.00000
      8     -13.7613      2.00000
      9     -13.6565      2.00000
     10     -13.5693      2.00000
     11     -13.4942      2.00000
     12      -3.3416      2.00000
     13      -3.2653      2.00000
     14      -3.2119      2.00000
     15      -2.0580      2.00000
     16      -1.9567      2.00000
     17      -1.8757      2.00000
     18      -1.5754      2.00000
     19      -1.3716      2.00000
     20      -1.0098      2.00000
     21      -0.6956      2.00000
     22      -0.1561      2.00000
     23       0.1380      2.00000
     24       0.5237      2.00000
     25       0.9607      2.00000
     26       1.5643      2.00000
     27       1.9417      2.00000
     28       2.0904      2.00000
     29       2.0904      2.00000
     30       2.1085      2.00000
     31       2.1085      2.00000
     32       2.1622      2.00000
     33       2.1622      2.00000
     34       2.2305      2.00000
     35       2.2305      2.00000
     36       2.2659      2.00000
     37       2.3057      2.00000
     38       2.3057      2.00000
     39       2.3878      2.00000
     40       2.3878      2.00000
     41       2.4660      2.00000
     42       2.4660      2.00000
     43       2.4801      2.00000
     44       2.5408      2.00000
     45       2.5408      2.00000
     46       2.6023      2.00000
     47       2.6023      2.00000
     48       2.6357      2.00000
     49       2.6357      2.00000
     50       2.6434      2.00000
     51       2.6435      2.00000
     52       3.7492      2.00000
     53       5.5804      2.00000
     54       6.3286      0.32514
     55       6.9672      0.00000
     56       7.4696      0.00000
     57       7.5328      0.00000
     58       8.2092      0.00000
     59       8.5327      0.00000
     60       9.2174      0.00000
     61       9.3488      0.00000
     62       9.8606      0.00000
     63      10.0118      0.00000
     64      10.3043      0.00000
     65      10.3848      0.00000
     66      10.4472      0.00000
     67      12.0377      0.00000
     68      13.6272      0.00000

 k-point     2 :       0.0769    0.0000    0.0000
  band No.  band energies     occupation 
      1     -14.4916      2.00000
      2     -14.4526      2.00000
      3     -14.3645      2.00000
      4     -14.2500      2.00000
      5     -14.1214      2.00000
      6     -13.9831      2.00000
      7     -13.8488      2.00000
      8     -13.7251      2.00000
      9     -13.6242      2.00000
     10     -13.5406      2.00000
     11     -13.4680      2.00000
     12      -3.2150      2.00000
     13      -3.1486      2.00000
     14      -3.0906      2.00000
     15      -1.9688      2.00000
     16      -1.8387      2.00000
     17      -1.7955      2.00000
     18      -1.4959      2.00000
     19      -1.2944      2.00000
     20      -0.9452      2.00000
     21      -0.6540      2.00000
     22      -0.1469      2.00000
     23       0.2017      2.00000
     24       0.5487      2.00000
     25       0.9043      2.00000
     26       1.4637      2.00000
     27       1.8361      2.00000
     28       1.8562      2.00000
     29       1.8776      2.00000
     30       1.9394      2.00000
     31       2.0158      2.00000
     32       2.0460      2.00000
     33       2.0643      2.00000
     34       2.1009      2.00000
     35       2.1183      2.00000
     36       2.1807      2.00000
     37       2.1869      2.00000
     38       2.2163      2.00000
     39       2.2625      2.00000
     40       2.2797      2.00000
     41       2.3008      2.00000
     42       2.3451      2.00000
     43       2.3525      2.00000
     44       2.3805      2.00000
     45       2.3950      2.00000
     46       2.4237      2.00000
     47       2.4989      2.00000
     48       2.5606      2.00000
     49       2.5919      2.00000
     50       2.5997      2.00000
     51       2.6093      2.00000
     52       3.8838      2.00000
     53       5.7665      2.00000
     54       6.5634      0.00000
     55       7.2982      0.00000
     56       7.7392      0.00000
     57       7.7665      0.00000
     58       8.4254      0.00000
     59       8.7486      0.00000
     60       9.4279      0.00000
     61       9.5596      0.00000
     62      10.0981      0.00000
     63      10.2449      0.00000
     64      10.5794      0.00000
     65      10.6129      0.00000
     66      10.7161      0.00000
     67      12.1396      0.00000
     68      13.5792      0.00000

 k-point     3 :       0.1538    0.0000    0.0000
  band No.  band energies     occupation 
      1     -14.3361      2.00000
      2     -14.3003      2.00000
      3     -14.2176      2.00000
      4     -14.1102      2.00000
      5     -13.9900      2.00000
      6     -13.8609      2.00000
      7     -13.7364      2.00000
      8     -13.6231      2.00000
      9     -13.5334      2.00000
     10     -13.4604      2.00000
     11     -13.3950      2.00000
     12      -2.8449      2.00000
     13      -2.8054      2.00000
     14      -2.7245      2.00000
     15      -1.7234      2.00000
     16      -1.5698      2.00000
     17      -1.4845      2.00000
     18      -1.2714      2.00000
     19      -1.0832      2.00000
     20      -0.7674      2.00000
     21      -0.5564      2.00000
     22      -0.1592      2.00000
     23       0.1871      2.00000
     24       0.6289      2.00000
     25       0.7389      2.00000
     26       1.0405      2.00000
     27       1.2426      2.00000
     28       1.2604      2.00000
     29       1.2969      2.00000
     30       1.3866      2.00000
     31       1.4083      2.00000
     32       1.5078      2.00000
     33       1.6355      2.00000
     34       1.7725      2.00000
     35       1.8910      2.00000
     36       1.9264      2.00000
     37       1.9450      2.00000
     38       1.9944      2.00000
     39       1.9995      2.00000
     40       2.0689      2.00000
     41       2.0718      2.00000
     42       2.1455      2.00000
     43       2.1504      2.00000
     44       2.2290      2.00000
     45       2.3087      2.00000
     46       2.3848      2.00000
     47       2.4464      2.00000
     48       2.4735      2.00000
     49       2.4763      2.00000
     50       2.4814      2.00000
     51       2.8155      2.00000
     52       4.2397      2.00000
     53       6.2002      1.99194
     54       7.0888      0.00000
     55       8.0622      0.00000
     56       8.3314      0.00000
     57       8.4126      0.00000
     58       8.9542      0.00000
     59       9.2816      0.00000
     60       9.9238      0.00000
     61      10.0841      0.00000
     62      10.6630      0.00000
     63      10.7881      0.00000
     64      11.1722      0.00000
     65      11.2555      0.00000
     66      11.4245      0.00000
     67      11.9140      0.00000
     68      12.1580      0.00000

 k-point     4 :       0.2308    0.0000    0.0000
  band No.  band energies     occupation 
      1     -14.1018      2.00000
      2     -14.0715      2.00000
      3     -13.9976      2.00000
      4     -13.9022      2.00000
      5     -13.7960      2.00000
      6     -13.6820      2.00000
      7     -13.5730      2.00000
      8     -13.4754      2.00000
      9     -13.4030      2.00000
     10     -13.3471      2.00000
     11     -13.2933      2.00000
     12      -2.2791      2.00000
     13      -2.2648      2.00000
     14      -2.0981      2.00000
     15      -1.3644      2.00000
     16      -1.2552      2.00000
     17      -1.0824      2.00000
     18      -0.8700      2.00000
     19      -0.8309      2.00000
     20      -0.5985      2.00000
     21      -0.4799      2.00000
     22      -0.2658      2.00000
     23      -0.1171      2.00000
     24       0.0766      2.00000
     25       0.2693      2.00000
     26       0.4005      2.00000
     27       0.5091      2.00000
     28       0.5189      2.00000
     29       0.6120      2.00000
     30       0.7806      2.00000
     31       0.9741      2.00000
     32       1.2018      2.00000
     33       1.3300      2.00000
     34       1.4572      2.00000
     35       1.6228      2.00000
     36       1.7524      2.00000
     37       1.7652      2.00000
     38       1.7841      2.00000
     39       1.8391      2.00000
     40       1.8873      2.00000
     41       1.9093      2.00000
     42       1.9866      2.00000
     43       2.0213      2.00000
     44       2.0711      2.00000
     45       2.1518      2.00000
     46       2.2287      2.00000
     47       2.2889      2.00000
     48       2.3126      2.00000
     49       2.3221      2.00000
     50       2.8659      2.00000
[...]
     23      -0.4803      2.00000
     24      -0.3616      2.00000
     25      -0.2002      2.00000
     26      -0.0627      2.00000
     27       0.0858      2.00000
     28       0.1528      2.00000
     29       0.1929      2.00000
     30       0.2722      2.00000
     31       0.3091      2.00000
     32       0.3832      2.00000
     33       0.4073      2.00000
     34       0.4911      2.00000
     35       0.5779      2.00000
     36       0.6875      2.00000
     37       0.8482      2.00000
     38       0.9915      2.00000
     39       1.0776      2.00000
     40       1.1250      2.00000
     41       1.2216      2.00000
     42       1.2791      2.00000
     43       1.2816      2.00000
     44       1.3712      2.00000
     45       1.4625      2.00000
     46       2.1376      2.00000
     47       2.1590      2.00000
     48       2.9035      2.00000
     49       4.5290      2.00000
     50       4.9536      2.00000
     51       4.9762      2.00000
     52       5.3755      2.00000
     53       6.0250      2.00000
     54       6.0795      2.00000
     55       6.2487      2.00000
     56       6.2649      1.99997
     57       6.8773      0.00000
     58       6.9315      0.00000
     59       7.8317      0.00000
     60       8.3391      0.00000
     61       8.7930      0.00000
     62       9.0563      0.00000
     63       9.2327      0.00000
     64      10.1563      0.00000
     65      10.3890      0.00000
     66      10.4950      0.00000
     67      10.7210      0.00000
     68      10.9099      0.00000

 k-point    20 :       0.3846    0.2308    0.0000
  band No.  band energies     occupation 
      1     -13.5051      2.00000
      2     -13.4922      2.00000
      3     -13.4799      2.00000
      4     -13.4647      2.00000
      5     -13.4454      2.00000
      6     -13.4247      2.00000
      7     -13.4038      2.00000
      8     -13.3845      2.00000
      9     -13.3668      2.00000
     10     -13.2608      2.00000
     11     -13.2347      2.00000
     12      -1.6598      2.00000
     13      -1.6020      2.00000
     14      -1.4971      2.00000
     15      -1.3740      2.00000
     16      -1.2521      2.00000
     17      -1.2065      2.00000
     18      -1.1917      2.00000
     19      -1.1596      2.00000
     20      -1.1529      2.00000
     21      -1.0910      2.00000
     22      -1.0856      2.00000
     23      -0.2785      2.00000
     24      -0.2541      2.00000
     25      -0.2048      2.00000
     26      -0.1559      2.00000
     27      -0.1450      2.00000
     28      -0.0889      2.00000
     29      -0.0854      2.00000
     30       0.0103      2.00000
     31       0.1722      2.00000
     32       0.3184      2.00000
     33       0.4445      2.00000
     34       0.5320      2.00000
     35       0.5532      2.00000
     36       0.8490      2.00000
     37       0.8946      2.00000
     38       0.9391      2.00000
     39       1.0000      2.00000
     40       1.0729      2.00000
     41       1.1986      2.00000
     42       1.2757      2.00000
     43       1.3253      2.00000
     44       1.3292      2.00000
     45       2.7694      2.00000
     46       2.8243      2.00000
     47       3.1495      2.00000
     48       3.1708      2.00000
     49       3.7083      2.00000
     50       3.7293      2.00000
     51       4.2142      2.00000
     52       4.6386      2.00000
     53       5.9993      2.00000
     54       6.3002      1.99837
     55       6.3320      1.97566
     56       6.7684      0.00000
     57       7.1138      0.00000
     58       7.4629      0.00000
     59       7.4963      0.00000
     60       7.7362      0.00000
     61       7.9316      0.00000
     62       7.9830      0.00000
     63       9.7126      0.00000
     64       9.9213      0.00000
     65      10.2258      0.00000
     66      10.3721      0.00000
     67      10.5856      0.00000
     68      11.3452      0.00000

 k-point    21 :       0.3077    0.3077    0.0000
  band No.  band energies     occupation 
      1     -13.4735      2.00000
      2     -13.4590      2.00000
      3     -13.4495      2.00000
      4     -13.4387      2.00000
      5     -13.4250      2.00000
      6     -13.4106      2.00000
      7     -13.3961      2.00000
      8     -13.3826      2.00000
      9     -13.3695      2.00000
     10     -13.2441      2.00000
     11     -13.2180      2.00000
     12      -1.3076      2.00000
     13      -1.2956      2.00000
     14      -1.2662      2.00000
     15      -1.2342      2.00000
     16      -1.1868      2.00000
     17      -1.1261      2.00000
     18      -1.0958      2.00000
     19      -0.9897      2.00000
     20      -0.8900      2.00000
     21      -0.8325      2.00000
     22      -0.8183      2.00000
     23      -0.7239      2.00000
     24      -0.5984      2.00000
     25      -0.5193      2.00000
     26      -0.4524      2.00000
     27      -0.3876      2.00000
     28      -0.3295      2.00000
     29      -0.2947      2.00000
     30      -0.1655      2.00000
     31      -0.1481      2.00000
     32      -0.0143      2.00000
     33      -0.0085      2.00000
     34       0.5408      2.00000
     35       0.5643      2.00000
     36       0.8586      2.00000
     37       0.9629      2.00000
     38       1.0484      2.00000
     39       1.0754      2.00000
     40       1.1044      2.00000
     41       1.1494      2.00000
     42       1.1497      2.00000
     43       1.1969      2.00000
     44       1.2919      2.00000
     45       2.6728      2.00000
     46       3.2645      2.00000
     47       3.2858      2.00000
     48       4.1834      2.00000
     49       4.2740      2.00000
     50       4.3929      2.00000
     51       4.5532      2.00000
     52       4.5747      2.00000
     53       5.1460      2.00000
     54       5.1665      2.00000
     55       5.7847      2.00000
     56       6.0931      2.00000
     57       6.8812      0.00000
     58       7.3994      0.00000
     59       7.5462      0.00000
     60       8.2351      0.00000
     61       8.5633      0.00000
     62       8.7801      0.00000
     63       8.8020      0.00000
     64       9.2050      0.00000
     65       9.2251      0.00000
     66       9.8426      0.00000
     67      11.2259      0.00000
     68      11.3524      0.00000


--------------------------------------------------------------------------------------------------------


 soft charge-density along one line, spin component           1
         0         1         2         3         4         5         6         7         8         9
 total charge-density along one line
 
 pseudopotential strength for first ion, spin component:           1
 12.242   0.000 -14.901   0.000  -0.000   0.000  -0.005   0.000   0.000   0.000   0.000   0.000   0.006   0.000  -0.000   0.000
-14.901   0.000  18.157   0.000   0.000   0.000   0.006   0.000  -0.000   0.000  -0.000   0.000  -0.008   0.000   0.000   0.000
 -0.000   0.000   0.000   0.000  -8.415   0.000  -0.000   0.000   0.000   0.000  10.097   0.000   0.000   0.000  -0.000   0.000
 -0.005   0.000   0.006   0.000  -0.000   0.000  -8.425   0.000   0.000   0.000   0.000   0.000  10.110   0.000  -0.000   0.000
  0.000   0.000  -0.000   0.000   0.000   0.000   0.000   0.000  -8.415   0.000  -0.000   0.000  -0.000   0.000  10.097   0.000
  0.000   0.000  -0.000   0.000  10.097   0.000   0.000   0.000  -0.000   0.000 -11.959   0.000  -0.000   0.000   0.000   0.000
  0.006   0.000  -0.008   0.000   0.000   0.000  10.110   0.000  -0.000   0.000  -0.000   0.000 -11.976   0.000   0.000   0.000
 -0.000   0.000   0.000   0.000  -0.000   0.000  -0.000   0.000  10.097   0.000   0.000   0.000   0.000   0.000 -11.959   0.000
 total augmentation occupancy for first ion, spin component:           1
  2.524   0.326   0.000   0.037  -0.000   0.000   0.005  -0.000
  0.326   0.082   0.000   0.016  -0.000   0.000  -0.008   0.000
  0.000   0.000   2.071   0.000   0.000   0.233   0.000   0.000
  0.037   0.016   0.000   2.069  -0.000   0.000   0.243  -0.000
 -0.000  -0.000   0.000  -0.000   2.071   0.000  -0.000   0.233
  0.000   0.000   0.233   0.000   0.000   0.030   0.000   0.000
  0.005  -0.008   0.000   0.243  -0.000   0.000   0.035  -0.000
 -0.000   0.000   0.000  -0.000   0.233   0.000  -0.000   0.030


------------------------ aborting loop because EDIFF is reached ----------------------------------------


    CHARGE:  cpu time    0.44: real time    0.44
    FORLOC:  cpu time    0.04: real time    0.04
    FORNL :  cpu time    3.58: real time    3.58
    STRESS:  cpu time    4.55: real time    4.55
    FORCOR:  cpu time    0.15: real time    0.15
    FORHAR:  cpu time    0.06: real time    0.06
    MIXING:  cpu time    0.00: real time    0.00
    OFIELD:  cpu time    0.00: real time    0.00

  FORCE on cell =-STRESS in cart. coord.  units (eV):
  Direction    XX          YY          ZZ          XY          YZ          ZX
  --------------------------------------------------------------------------------------
  Alpha Z   145.55942   145.55942   145.55942
  Ewald   23837.56792 23837.56844-26746.73851    -0.00019    -0.00001    -0.00013
  Hartree 25699.52138 25699.52129-24668.08196     0.00000     0.00000     0.00004
  E(xc)    -450.59982  -450.59984  -450.64613    -0.00000     0.00000    -0.00000
  Local  -50870.27288-50870.27232 50089.63348    -0.00019    -0.00001     0.00004
  n-local   -73.70630   -87.67716   -81.05927     3.30902    -1.73042     4.96423
  augment    66.89381    66.89354    66.24241     0.00019    -0.00000     0.00000
  Kinetic  1651.85563  1643.16869  1636.34028    -1.85095     0.13597     1.43525
  Fock        0.00000     0.00000     0.00000     0.00000     0.00000     0.00000
  -------------------------------------------------------------------------------------
  Total      -4.50939    -4.50939    -8.75028     0.00000     0.00000     0.00000
  in kB     -20.82558   -20.82557   -40.41117     0.00000     0.00000     0.00000
  external pressure =      -27.35 kB  Pullay stress =        0.00 kB


 VOLUME and BASIS-vectors are now :
 -----------------------------------------------------------------------------
  energy-cutoff  :      520.00
  volume of cell :      346.92
      direct lattice vectors                 reciprocal lattice vectors
     2.575303410 -1.486851677  0.000000000     0.388303761  0.000000000  0.000000000
     0.000000000  2.973703354  0.000000000     0.194151881  0.336281021  0.000000000
    -0.000000000  0.000000000 45.300737193     0.000000000  0.000000000  0.022074696

  length of vectors
     2.973704014  2.973703354 45.300737193     0.388303761  0.388303847  0.022074696


 FORCES acting on ions
    electron-ion (+dipol)            ewald-force                    non-local-force                 convergence-correction
 -----------------------------------------------------------------------------------------------
   0.586E-03 -.102E-02 0.148E+04   0.521E-04 -.615E-04 -.149E+04   -.663E-17 0.139E-16 0.193E+01   0.156E-08 -.337E-08 -.199E-01
   -.471E-03 0.815E-03 0.898E+03   -.454E-07 0.529E-07 -.898E+03   -.350E-19 -.339E-20 0.105E-02   0.121E-08 -.159E-08 -.493E-02
   0.583E-03 -.101E-02 0.598E+03   0.563E-04 -.975E-04 -.598E+03   0.550E-19 -.152E-19 -.225E-02   0.171E-08 -.279E-08 0.118E-01
   -.471E-03 0.815E-03 0.113E-01   0.483E-08 -.545E-08 -.111E-02   -.189E-20 0.000E+00 0.325E-18   -.169E-08 0.293E-08 -.258E-04
   0.583E-03 -.101E-02 -.299E+03   0.562E-04 -.973E-04 0.299E+03   0.287E-19 -.474E-19 -.984E-03   -.420E-08 0.683E-08 -.145E-01
   -.471E-03 0.815E-03 -.898E+03   0.162E-07 -.195E-07 0.898E+03   0.387E-19 0.678E-20 -.105E-02   -.654E-09 0.640E-09 0.491E-02
   0.583E-03 -.101E-02 -.120E+04   0.564E-04 -.973E-04 0.120E+04   0.880E-18 -.163E-18 -.545E-01   -.889E-09 0.156E-08 0.181E-01
   -.152E-02 0.264E-02 0.120E+04   -.564E-04 0.972E-04 -.120E+04   -.872E-18 0.813E-19 0.545E-01   0.403E-09 -.722E-09 -.181E-01
   -.152E-02 0.264E-02 0.299E+03   -.562E-04 0.973E-04 -.299E+03   -.304E-19 0.339E-19 0.984E-03   0.107E-07 -.181E-07 0.144E-01
   -.152E-02 0.264E-02 -.598E+03   -.563E-04 0.975E-04 0.598E+03   -.575E-19 0.678E-20 0.225E-02   -.460E-08 0.780E-08 -.118E-01
   -.153E-02 0.265E-02 -.148E+04   -.520E-04 0.615E-04 0.149E+04   0.670E-17 -.139E-16 -.193E+01   -.645E-08 0.118E-07 0.200E-01
   0.208E-04 -.368E-04 0.448E+03   0.105E-05 -.132E-05 -.448E+03   0.592E-19 -.173E-17 -.340E-01   -.619E-09 0.109E-08 -.664E-02
   0.222E-04 -.385E-04 0.150E+03   -.335E-08 0.406E-08 -.150E+03   -.182E-19 -.678E-20 0.831E-03   -.804E-09 0.146E-08 0.436E-02
   0.222E-04 -.385E-04 -.150E+03   0.298E-08 -.361E-08 0.150E+03   0.172E-19 0.102E-19 -.831E-03   0.791E-09 -.144E-08 -.437E-02
   0.220E-04 -.374E-04 -.448E+03   -.105E-05 0.131E-05 0.448E+03   -.534E-19 0.173E-17 0.340E-01   0.639E-09 -.112E-08 0.665E-02
   0.655E-04 -.113E-03 0.249E+03   -.484E-04 0.839E-04 -.249E+03   -.847E-19 0.000E+00 0.517E-03   0.663E-09 -.118E-08 0.154E-02
   0.653E-04 -.113E-03 -.498E+02   -.483E-04 0.837E-04 0.498E+02   -.312E-20 0.106E-20 0.148E-03   -.152E-08 0.271E-08 -.345E-02
   0.655E-04 -.113E-03 -.349E+03   -.485E-04 0.839E-04 0.349E+03   -.104E-18 -.542E-19 0.609E-02   0.582E-09 -.100E-08 0.429E-02
   -.210E-04 0.363E-04 0.349E+03   0.485E-04 -.839E-04 -.349E+03   0.105E-18 0.813E-19 -.609E-02   -.582E-09 0.101E-08 -.429E-02
   -.209E-04 0.362E-04 0.498E+02   0.483E-04 -.837E-04 -.498E+02   0.245E-20 -.169E-20 -.148E-03   0.153E-08 -.271E-08 0.343E-02
   -.209E-04 0.363E-04 -.249E+03   0.484E-04 -.839E-04 0.249E+03   0.898E-19 0.000E+00 -.517E-03   -.646E-09 0.115E-08 -.155E-02
   0.504E-05 -.873E-05 0.444E-02   -.357E-09 0.354E-09 -.104E-01   -.149E-19 0.000E+00 0.651E-18   -.108E-11 0.187E-11 0.456E-05
   0.216E-04 -.245E-04 0.796E+03   -.220E-04 0.232E-04 -.803E+03   -.164E-15 -.139E-16 0.667E+01   -.101E-08 0.178E-08 -.808E-02
   0.221E-04 -.377E-04 0.659E+03   -.269E-05 0.282E-05 -.657E+03   0.350E-16 -.555E-16 -.118E+01   -.443E-10 0.671E-10 -.664E-02
   -.104E-04 0.174E-04 0.178E+03   0.199E-05 -.191E-05 -.179E+03   -.268E-16 0.278E-16 0.150E+01   -.389E-12 0.696E-12 -.259E-02
   0.356E-05 -.190E-04 -.796E+03   0.220E-04 -.232E-04 0.803E+03   0.164E-15 0.139E-16 -.667E+01   0.127E-08 -.224E-08 0.809E-02
   0.209E-04 -.356E-04 -.178E+03   -.199E-05 0.191E-05 0.179E+03   0.337E-16 -.278E-16 -.150E+01   -.229E-11 0.394E-11 0.260E-02
   -.106E-04 0.177E-04 -.659E+03   0.269E-05 -.282E-05 0.657E+03   -.418E-16 0.694E-16 0.118E+01   0.424E-10 -.639E-10 0.665E-02
 -----------------------------------------------------------------------------------------------
   -.490E-02 0.849E-02 0.644E+00   -.127E-13 -.281E-14 -.125E-11   0.174E-18 0.138E-16 0.133E-14   -.261E-08 0.451E-08 -.807E-04
 
 
 POSITION                                       TOTAL-FORCE (eV/Angst)
 -----------------------------------------------------------------------------------
      0.85843      1.48685     11.27314        -0.000000     -0.000000      0.002747
     -0.00000     -0.00000     16.28227        -0.000000      0.000000     -0.000296
      0.85843      1.48685     18.77437         0.000000     -0.000000      0.000727
     -0.00000      0.00000     23.76210         0.000000     -0.000000      0.000000
      0.85843      1.48685     26.25654        -0.000000     -0.000000     -0.002382
     -0.00000      0.00000     31.24175        -0.000000     -0.000000      0.000296
      0.85843      1.48685     33.73322         0.000000     -0.000000     -0.006102
      1.71687     -0.00000     13.79091        -0.000000      0.000000      0.006102
      1.71687     -0.00000     21.26767        -0.000000      0.000000      0.002382
      1.71687     -0.00000     28.74977        -0.000000      0.000000     -0.000727
      1.71687     -0.00000     36.25101         0.000000      0.000000     -0.002747
     -0.00000      0.00000     12.55003        -0.000000     -0.000000      0.012051
     -0.00000     -0.00000     20.02096        -0.000000      0.000000      0.007008
     -0.00000      0.00000     27.50320         0.000000     -0.000000     -0.007008
     -0.00000     -0.00000     34.97413         0.000000      0.000000     -0.012051
      1.71687     -0.00000     17.52840        -0.000000     -0.000000      0.011136
      1.71687     -0.00000     25.00926         0.000000      0.000000     -0.002378
      1.71687     -0.00000     32.48706         0.000000      0.000000     -0.014417
      0.85843      1.48685     15.03730        -0.000000     -0.000000      0.014417
      0.85843      1.48685     22.51484        -0.000000     -0.000000      0.002378
      0.85843      1.48685     29.99595         0.000000      0.000000     -0.011136
     -0.00000     -0.00000      1.11178        -0.000000     -0.000000      0.000000
     -0.00000     -0.00000      9.79761        -0.000000     -0.000000      0.019657
      1.71687     -0.00000      7.58752         0.000000      0.000000     -0.015073
      0.85843      1.48685      3.44677         0.000000     -0.000000     -0.001145
     -0.00000     -0.00000     37.72666         0.000000     -0.000000     -0.019657
      1.71687     -0.00000     44.07745        -0.000000      0.000000      0.001145
      0.85843      1.48685     39.93674        -0.000000     -0.000000      0.015073
 -----------------------------------------------------------------------------------
    total drift:                               -0.004903      0.008493      0.643928


--------------------------------------------------------------------------------------------------------



  FREE ENERGIE OF THE ION-ELECTRON SYSTEM (eV)
  ---------------------------------------------------
  free  energy   TOTEN  =      -151.19498348 eV

  energy  without entropy=     -151.19193365  energy(sigma->0) =     -151.19345856
 
 d Force = 0.1479426E-03[ 0.112E-03, 0.184E-03]  d Energy = 0.1432337E-03 0.471E-05
 d Force =-0.6760048E+01[-0.676E+01,-0.676E+01]  d Ewald  =-0.6760048E+01 0.248E-07


--------------------------------------------------------------------------------------------------------


    POTLOK:  cpu time    0.21: real time    0.21


--------------------------------------------------------------------------------------------------------


 Conjugate gradient step on ions:
 trial-energy change:   -0.000143  1 .order   -0.000148   -0.000184   -0.000112
  (g-gl).g = 0.151E-03      g.g   = 0.215E-03  gl.gl    = 0.973E-03
 g(Force)  = 0.215E-03   g(Stress)= 0.000E+00 ortho     = 0.398E-05
 gamma     =   0.15556
 trial     =   0.85503
 opt step  =   2.18462  (harmonic =   2.18462) maximal distance =0.00291242
 next E    =  -151.195075   (d E  =  -0.00023)


--------------------------------------------------------------------------------------------------------


  
 reached required accuracy - stopping structural energy minimisation
     LOOP+:  cpu time   36.48: real time   36.50
    4ORBIT:  cpu time    0.00: real time    0.00

 total amount of memory used by VASP on root node   159377. kBytes
========================================================================

   base      :      30000. kBytes
   nonl-proj :      16702. kBytes
   fftplans  :      60347. kBytes
   grid      :      24192. kBytes
   one-center:         56. kBytes
   wavefun   :      28080. kBytes
 
  
  
 General timing and accounting informations for this job:
 ========================================================
  
                  Total CPU time used (sec):     2919.982
                            User time (sec):     2890.633
                          System time (sec):       29.349
                         Elapsed time (sec):     2921.848
  
                   Maximum memory used (kb):      270484.
                   Average memory used (kb):           0.
  
                          Minor page faults:       717064
                          Major page faults:            0
                 Voluntary context switches:           81
