       N       E                     dE             d eps       ncg     rms          rms(c)
DAV:   1     0.477226607195E+03    0.47723E+03   -0.40807E+04  6100   0.131E+03
DAV:   2    -0.872846453027E+02   -0.56451E+03   -0.53336E+03  7986   0.246E+02
DAV:   3    -0.146179278516E+03   -0.58895E+02   -0.58498E+02  7136   0.859E+01
DAV:   4    -0.146995116540E+03   -0.81584E+00   -0.81391E+00  7136   0.110E+01
DAV:   5    -0.147008042031E+03   -0.12925E-01   -0.12918E-01  7206   0.136E+00    0.220E+01
DAV:   6    -0.132567698716E+03    0.14440E+02   -0.83752E+01  7166   0.290E+01    0.751E+00
DAV:   7    -0.132466774674E+03    0.10092E+00   -0.20011E+00  6748   0.528E+00    0.460E+00
DAV:   8    -0.132374880476E+03    0.91894E-01   -0.55973E-01  7090   0.407E+00    0.921E-01
DAV:   9    -0.132350335709E+03    0.24545E-01   -0.85306E-02  6984   0.126E+00    0.545E-01
DAV:  10    -0.132348502054E+03    0.18337E-02   -0.35378E-02  6880   0.761E-01    0.245E-01
DAV:  11    -0.132349662995E+03   -0.11609E-02   -0.57622E-03  7030   0.315E-01    0.173E-01
DAV:  12    -0.132349555000E+03    0.10799E-03   -0.11670E-03  9068   0.242E-01    0.936E-02
DAV:  13    -0.132349444546E+03    0.11045E-03   -0.12911E-03  6878   0.174E-01    0.292E-02
DAV:  14    -0.132349407313E+03    0.37233E-04   -0.21557E-04  6886   0.810E-02    0.997E-03
DAV:  15    -0.132349380932E+03    0.26382E-04   -0.20052E-05  5008   0.445E-02    0.912E-03
DAV:  16    -0.132349314792E+03    0.66140E-04   -0.19565E-05  5318   0.101E-01    0.947E-03
DAV:  17    -0.132349290481E+03    0.24311E-04   -0.34959E-05  5880   0.524E-02    0.110E-02
DAV:  18    -0.132349218252E+03    0.72229E-04   -0.52040E-05  6624   0.184E-01    0.879E-03
DAV:  19    -0.132349190228E+03    0.28025E-04   -0.16485E-04  8404   0.193E-01    0.362E-03
DAV:  20    -0.132349207979E+03   -0.17751E-04   -0.18837E-04  6258   0.453E-02    0.115E-02
DAV:  21    -0.132349207511E+03    0.46744E-06   -0.60170E-06  3714   0.972E-03
   1 F= -.13234921E+03 E0= -.13234690E+03  d E =-.132349E+03
       N       E                     dE             d eps       ncg     rms          rms(c)
DAV:   1    -0.132350067122E+03   -0.85914E-03   -0.23476E-02  6648   0.665E-01    0.235E-02
DAV:   2    -0.132350101593E+03   -0.34470E-04   -0.63416E-04  7030   0.104E-01    0.204E-02
DAV:   3    -0.132350086060E+03    0.15533E-04   -0.18352E-05  4850   0.288E-02    0.138E-02
DAV:   4    -0.132350062289E+03    0.23771E-04   -0.39098E-05  6190   0.473E-02    0.648E-03
DAV:   5    -0.132350052279E+03    0.10009E-04   -0.17348E-05  4360   0.278E-02    0.609E-03
DAV:   6    -0.132350038821E+03    0.13459E-04   -0.76926E-06  4192   0.288E-02    0.365E-03
DAV:   7    -0.132350017841E+03    0.20980E-04   -0.80554E-06  4836   0.518E-02    0.546E-03
DAV:   8    -0.132349994205E+03    0.23636E-04   -0.17676E-05  5316   0.776E-02    0.412E-03
DAV:   9    -0.132349974371E+03    0.19834E-04   -0.48519E-05  7160   0.123E-01    0.440E-03
DAV:  10    -0.132349976910E+03   -0.25390E-05   -0.61597E-05  6116   0.465E-02
   2 F= -.13234998E+03 E0= -.13234765E+03  d E =-.769399E-03
       N       E                     dE             d eps       ncg     rms          rms(c)
DAV:   1    -0.132350326667E+03   -0.35230E-03   -0.24002E-02  6624   0.673E-01    0.239E-02
DAV:   2    -0.132350367896E+03   -0.41229E-04   -0.72222E-04  7018   0.110E-01    0.208E-02
DAV:   3    -0.132350353829E+03    0.14067E-04   -0.16585E-05  5008   0.270E-02    0.153E-02
DAV:   4    -0.132350329029E+03    0.24800E-04   -0.61440E-05  6300   0.596E-02    0.862E-03
DAV:   5    -0.132350321034E+03    0.79948E-05   -0.26059E-05  5358   0.267E-02    0.888E-03
DAV:   6    -0.132350311649E+03    0.93855E-05   -0.92458E-06  3928   0.173E-02
   3 F= -.13235031E+03 E0= -.13234798E+03  d E =-.110414E-02
       N       E                     dE             d eps       ncg     rms          rms(c)
DAV:   1    -0.132349867185E+03    0.45385E-03   -0.95606E-02  6480   0.134E+00    0.465E-02
DAV:   2    -0.132349994861E+03   -0.12768E-03   -0.27256E-03  6992   0.214E-01    0.401E-02
DAV:   3    -0.132349917964E+03    0.76897E-04   -0.78172E-05  7134   0.611E-02    0.275E-02
DAV:   4    -0.132349771367E+03    0.14660E-03   -0.18717E-04  7816   0.120E-01    0.153E-02
DAV:   5    -0.132349704701E+03    0.66665E-04   -0.10284E-04  7000   0.708E-02    0.156E-02
DAV:   6    -0.132349611867E+03    0.92835E-04   -0.55515E-05  6780   0.762E-02    0.104E-02
DAV:   7    -0.132349471333E+03    0.14053E-03   -0.55653E-05  6792   0.146E-01    0.142E-02
DAV:   8    -0.132349276992E+03    0.19434E-03   -0.25958E-04  9512   0.311E-01    0.859E-03
DAV:   9    -0.132349252726E+03    0.24266E-04   -0.31456E-04  7888   0.173E-01    0.680E-03
DAV:  10    -0.132349268320E+03   -0.15595E-04   -0.19266E-04  6404   0.568E-02    0.957E-03
DAV:  11    -0.132349268601E+03   -0.28038E-06   -0.10708E-05  4032   0.193E-02
   4 F= -.13234927E+03 E0= -.13234691E+03  d E =-.610896E-04
       N       E                     dE             d eps       ncg     rms          rms(c)
DAV:   1    -0.132350409496E+03   -0.11412E-02   -0.68289E-02  6330   0.113E+00    0.459E-02
DAV:   2    -0.132350531485E+03   -0.12199E-03   -0.22065E-03  7018   0.194E-01    0.346E-02
DAV:   3    -0.132350491417E+03    0.40068E-04   -0.63551E-05  6990   0.474E-02    0.250E-02
DAV:   4    -0.132350431769E+03    0.59647E-04   -0.14447E-04  6998   0.788E-02    0.130E-02
DAV:   5    -0.132350403872E+03    0.27897E-04   -0.49961E-05  6598   0.425E-02    0.140E-02
DAV:   6    -0.132350376421E+03    0.27451E-04   -0.21057E-05  4804   0.314E-02    0.576E-03
DAV:   7    -0.132350333977E+03    0.42444E-04   -0.20349E-05  5164   0.604E-02    0.942E-03
DAV:   8    -0.132350269410E+03    0.64567E-04   -0.44479E-05  6664   0.129E-01    0.117E-02
DAV:   9    -0.132350237166E+03    0.32244E-04   -0.80198E-05  7394   0.118E-01    0.682E-03
DAV:  10    -0.132350232557E+03    0.46094E-05   -0.76832E-05  6716   0.770E-02
   5 F= -.13235023E+03 E0= -.13234789E+03  d E =-.102505E-02
       N       E                     dE             d eps       ncg     rms          rms(c)
DAV:   1    -0.132350588047E+03   -0.35088E-03   -0.30563E-02  6342   0.762E-01    0.239E-02
DAV:   2    -0.132350650464E+03   -0.62417E-04   -0.75233E-04  6868   0.113E-01    0.145E-02
DAV:   3    -0.132350645912E+03    0.45521E-05   -0.14857E-05  4460   0.186E-02    0.108E-02
DAV:   4    -0.132350640402E+03    0.55098E-05   -0.12685E-05  4050   0.188E-02    0.442E-03
DAV:   5    -0.132350638627E+03    0.17754E-05   -0.38748E-06  3812   0.158E-02    0.487E-03
DAV:   6    -0.132350636915E+03    0.17121E-05   -0.33329E-06  3790   0.185E-02
   6 F= -.13235064E+03 E0= -.13234830E+03  d E =-.404358E-03
       N       E                     dE             d eps       ncg     rms          rms(c)
DAV:   1    -0.132350837412E+03   -0.19879E-03   -0.27305E-01  6168   0.228E+00    0.694E-02
DAV:   2    -0.132351425190E+03   -0.58778E-03   -0.67123E-03  6858   0.330E-01    0.435E-02
DAV:   3    -0.132351385280E+03    0.39910E-04   -0.10166E-04  7140   0.502E-02    0.316E-02
DAV:   4    -0.132351344574E+03    0.40706E-04   -0.14629E-04  6868   0.557E-02    0.155E-02
DAV:   5    -0.132351334822E+03    0.97520E-05   -0.21683E-05  5158   0.361E-02    0.143E-02
DAV:   6    -0.132351323042E+03    0.11780E-04   -0.30899E-05  5508   0.489E-02    0.505E-03
DAV:   7    -0.132351318205E+03    0.48373E-05   -0.23677E-05  4864   0.345E-02
   7 F= -.13235132E+03 E0= -.13234896E+03  d E =-.108565E-02
       N       E                     dE             d eps       ncg     rms          rms(c)
DAV:   1    -0.132351255934E+03    0.67108E-04   -0.62060E-02  6216   0.109E+00    0.352E-02
DAV:   2    -0.132351386034E+03   -0.13010E-03   -0.15928E-03  6920   0.167E-01    0.209E-02
DAV:   3    -0.132351374799E+03    0.11235E-04   -0.39555E-05  6276   0.306E-02    0.163E-02
DAV:   4    -0.132351359171E+03    0.15628E-04   -0.23537E-05  5072   0.257E-02    0.724E-03
DAV:   5    -0.132351348751E+03    0.10420E-04   -0.68543E-06  4000   0.307E-02    0.760E-03
DAV:   6    -0.132351337831E+03    0.10920E-04   -0.80150E-06  4232   0.418E-02    0.423E-03
DAV:   7    -0.132351324070E+03    0.13761E-04   -0.27856E-05  5636   0.755E-02    0.799E-03
DAV:   8    -0.132351308878E+03    0.15192E-04   -0.11865E-05  4700   0.709E-02    0.601E-03
DAV:   9    -0.132351301370E+03    0.75080E-05   -0.20562E-05  5124   0.596E-02
   8 F= -.13235130E+03 E0= -.13234894E+03  d E =-.106881E-02
       N       E                     dE             d eps       ncg     rms          rms(c)
DAV:   1    -0.132351796750E+03   -0.48787E-03   -0.26129E-01  6366   0.220E+00    0.621E-02
DAV:   2    -0.132352290830E+03   -0.49408E-03   -0.57316E-03  6696   0.295E-01    0.392E-02
DAV:   3    -0.132352247943E+03    0.42887E-04   -0.77666E-05  7132   0.464E-02    0.277E-02
DAV:   4    -0.132352214098E+03    0.33844E-04   -0.74976E-05  6714   0.505E-02    0.114E-02
DAV:   5    -0.132352202233E+03    0.11865E-04   -0.34716E-05  6276   0.309E-02    0.702E-03
DAV:   6    -0.132352197134E+03    0.50999E-05   -0.10620E-05  4344   0.148E-02
   9 F= -.13235220E+03 E0= -.13234984E+03  d E =-.895764E-03
       N       E                     dE             d eps       ncg     rms          rms(c)
DAV:   1    -0.132351119353E+03    0.10829E-02   -0.12240E+00  6380   0.476E+00    0.133E-01
DAV:   2    -0.132353436512E+03   -0.23172E-02   -0.26692E-02  6690   0.636E-01    0.818E-02
DAV:   3    -0.132353233476E+03    0.20304E-03   -0.30544E-04  7218   0.931E-02    0.576E-02
DAV:   4    -0.132353057247E+03    0.17623E-03   -0.38952E-04  7084   0.116E-01    0.212E-02
DAV:   5    -0.132353009654E+03    0.47593E-04   -0.16972E-04  6910   0.624E-02    0.148E-02
DAV:   6    -0.132352982871E+03    0.26783E-04   -0.40583E-05  6304   0.288E-02    0.781E-03
DAV:   7    -0.132352942552E+03    0.40319E-04   -0.19725E-05  5044   0.406E-02    0.102E-02
DAV:   8    -0.132352910004E+03    0.32549E-04   -0.19116E-05  5364   0.489E-02    0.701E-03
DAV:   9    -0.132352858962E+03    0.51042E-04   -0.94289E-05  8176   0.120E-01    0.115E-02
DAV:  10    -0.132352843952E+03    0.15010E-04   -0.61063E-05  6720   0.543E-02    0.761E-03
DAV:  11    -0.132352827369E+03    0.16583E-04   -0.28547E-05  5948   0.759E-02    0.990E-03
DAV:  12    -0.132352819247E+03    0.81216E-05   -0.23676E-05  5226   0.525E-02
  10 F= -.13235282E+03 E0= -.13235050E+03  d E =-.151788E-02
       N       E                     dE             d eps       ncg     rms          rms(c)
DAV:   1    -0.132353594041E+03   -0.76667E-03   -0.11669E-01  6112   0.151E+00    0.524E-02
DAV:   2    -0.132353830389E+03   -0.23635E-03   -0.29240E-03  6750   0.227E-01    0.274E-02
DAV:   3    -0.132353822556E+03    0.78327E-05   -0.10676E-04  6902   0.460E-02    0.234E-02
DAV:   4    -0.132353813552E+03    0.90040E-05   -0.30147E-05  5178   0.255E-02    0.118E-02
DAV:   5    -0.132353805765E+03    0.77869E-05   -0.21276E-05  4518   0.277E-02    0.864E-03
DAV:   6    -0.132353802000E+03    0.37650E-05   -0.64833E-06  3804   0.218E-02
  11 F= -.13235380E+03 E0= -.13235150E+03  d E =-.982752E-03
       N       E                     dE             d eps       ncg     rms          rms(c)
DAV:   1    -0.132353216333E+03    0.58943E-03   -0.84803E-01  6076   0.407E+00    0.136E-01
DAV:   2    -0.132355030223E+03   -0.18139E-02   -0.22015E-02  6758   0.619E-01    0.798E-02
DAV:   3    -0.132354927972E+03    0.10225E-03   -0.61900E-04  7032   0.119E-01    0.661E-02
DAV:   4    -0.132354821652E+03    0.10632E-03   -0.34471E-04  6976   0.895E-02    0.287E-02
DAV:   5    -0.132354732797E+03    0.88855E-04   -0.17007E-04  7290   0.104E-01    0.349E-02
DAV:   6    -0.132354661272E+03    0.71525E-04   -0.80503E-05  7512   0.898E-02    0.275E-02
DAV:   7    -0.132354626680E+03    0.34592E-04   -0.10116E-04  6572   0.598E-02    0.163E-02
DAV:   8    -0.132354586248E+03    0.40432E-04   -0.16638E-05  4720   0.410E-02    0.171E-02
DAV:   9    -0.132354435099E+03    0.15115E-03   -0.98949E-05  7572   0.188E-01    0.202E-02
DAV:  10    -0.132354392962E+03    0.42137E-04   -0.10689E-04  6964   0.925E-02    0.133E-02
DAV:  11    -0.132354312456E+03    0.80506E-04   -0.18963E-04  9976   0.266E-01    0.141E-02
DAV:  12    -0.132354321251E+03   -0.87955E-05   -0.26160E-04  6572   0.943E-02    0.175E-02
DAV:  13    -0.132354316878E+03    0.43733E-05   -0.42488E-05  5644   0.359E-02
  12 F= -.13235432E+03 E0= -.13235205E+03  d E =-.149763E-02
       N       E                     dE             d eps       ncg     rms          rms(c)
DAV:   1    -0.132354348298E+03   -0.27046E-04   -0.67360E-02  6160   0.115E+00    0.406E-02
DAV:   2    -0.132354498134E+03   -0.14984E-03   -0.17527E-03  6812   0.173E-01    0.223E-02
DAV:   3    -0.132354490202E+03    0.79321E-05   -0.34852E-05  6110   0.297E-02    0.170E-02
DAV:   4    -0.132354484551E+03    0.56511E-05   -0.50957E-05  5994   0.339E-02    0.836E-03
DAV:   5    -0.132354482526E+03    0.20253E-05   -0.69417E-06  3662   0.185E-02    0.966E-03
DAV:   6    -0.132354479313E+03    0.32128E-05   -0.40618E-06  3692   0.180E-02
  13 F= -.13235448E+03 E0= -.13235220E+03  d E =-.166007E-02
       N       E                     dE             d eps       ncg     rms          rms(c)
DAV:   1    -0.132354971550E+03   -0.48902E-03   -0.15175E-01  6100   0.167E+00    0.449E-02
DAV:   2    -0.132355246672E+03   -0.27512E-03   -0.30413E-03  6826   0.221E-01    0.275E-02
DAV:   3    -0.132355226449E+03    0.20222E-04   -0.26573E-05  5770   0.315E-02    0.189E-02
DAV:   4    -0.132355207631E+03    0.18819E-04   -0.59086E-05  6634   0.557E-02    0.561E-03
DAV:   5    -0.132355208532E+03   -0.90101E-06   -0.33704E-05  5744   0.260E-02    0.756E-03
DAV:   6    -0.132355208568E+03   -0.35973E-07   -0.21443E-06  3620   0.585E-03
  14 F= -.13235521E+03 E0= -.13235293E+03  d E =-.729255E-03
       N       E                     dE             d eps       ncg     rms          rms(c)
DAV:   1    -0.132354429346E+03    0.77919E-03   -0.13658E+00  6100   0.503E+00    0.141E-01
DAV:   2    -0.132356951855E+03   -0.25225E-02   -0.27836E-02  6792   0.666E-01    0.806E-02
DAV:   3    -0.132356782036E+03    0.16982E-03   -0.25303E-04  7268   0.931E-02    0.553E-02
DAV:   4    -0.132356649358E+03    0.13268E-03   -0.54100E-04  7030   0.159E-01    0.184E-02
DAV:   5    -0.132356662599E+03   -0.13241E-04   -0.26710E-04  6892   0.699E-02    0.244E-02
DAV:   6    -0.132356661002E+03    0.15974E-05   -0.10418E-05  3690   0.136E-02
  15 F= -.13235666E+03 E0= -.13235439E+03  d E =-.218169E-02
       N       E                     dE             d eps       ncg     rms          rms(c)
DAV:   1    -0.132347121103E+03    0.95415E-02   -0.54623E+00  6100   0.101E+01    0.286E-01
DAV:   2    -0.132357321590E+03   -0.10200E-01   -0.11277E-01  6830   0.134E+00    0.163E-01
DAV:   3    -0.132356637570E+03    0.68402E-03   -0.10734E-03  7276   0.187E-01    0.112E-01
DAV:   4    -0.132356110882E+03    0.52669E-03   -0.21607E-03  7028   0.309E-01    0.387E-02
DAV:   5    -0.132356158037E+03   -0.47155E-04   -0.10189E-03  7004   0.139E-01    0.480E-02
DAV:   6    -0.132356142671E+03    0.15367E-04   -0.57402E-05  6198   0.328E-02    0.394E-02
DAV:   7    -0.132356117039E+03    0.25632E-04   -0.55714E-05  6252   0.259E-02    0.281E-02
DAV:   8    -0.132356072757E+03    0.44282E-04   -0.12424E-04  6600   0.707E-02    0.246E-02
DAV:   9    -0.132356051592E+03    0.21164E-04   -0.11616E-04  6672   0.717E-02    0.234E-02
DAV:  10    -0.132356041564E+03    0.10028E-04   -0.17618E-04  6572   0.783E-02    0.250E-02
DAV:  11    -0.132356025858E+03    0.15706E-04   -0.37166E-05  5710   0.356E-02    0.192E-02
DAV:  12    -0.132356000878E+03    0.24980E-04   -0.24898E-05  5500   0.361E-02    0.867E-03
DAV:  13    -0.132355957763E+03    0.43115E-04   -0.92801E-05  7538   0.147E-01    0.198E-02
DAV:  14    -0.132355934113E+03    0.23650E-04   -0.73419E-05  7322   0.110E-01    0.139E-02
DAV:  15    -0.132355930761E+03    0.33519E-05   -0.85595E-05  6380   0.467E-02
  16 F= -.13235593E+03 E0= -.13235366E+03  d E =-.145145E-02
       N       E                     dE             d eps       ncg     rms          rms(c)
DAV:   1    -0.132353499880E+03    0.24342E-02   -0.20244E+00  6144   0.609E+00    0.171E-01
DAV:   2    -0.132357342935E+03   -0.38431E-02   -0.42271E-02  6860   0.805E-01    0.101E-01
DAV:   3    -0.132357087449E+03    0.25549E-03   -0.37016E-04  7276   0.113E-01    0.695E-02
DAV:   4    -0.132356901423E+03    0.18603E-03   -0.94647E-04  7118   0.201E-01    0.237E-02
DAV:   5    -0.132356926345E+03   -0.24922E-04   -0.39266E-04  6914   0.808E-02    0.325E-02
DAV:   6    -0.132356927914E+03   -0.15689E-05   -0.77354E-06  3714   0.113E-02
  17 F= -.13235693E+03 E0= -.13235467E+03  d E =-.244860E-02
       N       E                     dE             d eps       ncg     rms          rms(c)
DAV:   1    -0.132357358700E+03   -0.43236E-03   -0.29123E-01  6116   0.240E+00    0.675E-02
DAV:   2    -0.132357947568E+03   -0.58887E-03   -0.68212E-03  6706   0.337E-01    0.431E-02
DAV:   3    -0.132357910242E+03    0.37325E-04   -0.12622E-04  7344   0.541E-02    0.302E-02
DAV:   4    -0.132357880647E+03    0.29595E-04   -0.50416E-05  6424   0.382E-02    0.146E-02
DAV:   5    -0.132357864639E+03    0.16008E-04   -0.24322E-05  5236   0.437E-02    0.858E-03
DAV:   6    -0.132357858130E+03    0.65088E-05   -0.21557E-05  4886   0.392E-02
  18 F= -.13235786E+03 E0= -.13235560E+03  d E =-.930216E-03
       N       E                     dE             d eps       ncg     rms          rms(c)
DAV:   1    -0.132355105588E+03    0.27591E-02   -0.19353E+00  6116   0.618E+00    0.186E-01
DAV:   2    -0.132359297714E+03   -0.41921E-02   -0.46412E-02  6718   0.879E-01    0.104E-01
DAV:   3    -0.132359094968E+03    0.20275E-03   -0.73497E-04  7298   0.127E-01    0.745E-02
DAV:   4    -0.132358951218E+03    0.14375E-03   -0.41562E-04  6944   0.949E-02    0.326E-02
DAV:   5    -0.132358906050E+03    0.45168E-04   -0.12547E-04  7134   0.817E-02    0.223E-02
DAV:   6    -0.132358890253E+03    0.15798E-04   -0.10837E-04  7010   0.733E-02    0.134E-02
DAV:   7    -0.132358887567E+03    0.26859E-05   -0.59086E-05  6166   0.405E-02
  19 F= -.13235889E+03 E0= -.13235662E+03  d E =-.195965E-02
       N       E                     dE             d eps       ncg     rms          rms(c)
DAV:   1    -0.132359200935E+03   -0.31068E-03   -0.43348E-01  6108   0.291E+00    0.859E-02
DAV:   2    -0.132360095002E+03   -0.89407E-03   -0.99119E-03  6746   0.402E-01    0.472E-02
DAV:   3    -0.132360049194E+03    0.45808E-04   -0.14036E-04  7400   0.563E-02    0.335E-02
DAV:   4    -0.132360019784E+03    0.29411E-04   -0.10672E-04  6644   0.539E-02    0.139E-02
DAV:   5    -0.132360016221E+03    0.35624E-05   -0.36472E-05  5860   0.306E-02    0.115E-02
DAV:   6    -0.132360013608E+03    0.26134E-05   -0.19060E-05  4168   0.254E-02
  20 F= -.13236001E+03 E0= -.13235774E+03  d E =-.112604E-02
       N       E                     dE             d eps       ncg     rms          rms(c)
DAV:   1    -0.132355100954E+03    0.49153E-02   -0.33918E+00  6108   0.813E+00    0.233E-01
DAV:   2    -0.132362001213E+03   -0.69003E-02   -0.76233E-02  6726   0.112E+00    0.134E-01
DAV:   3    -0.132361607646E+03    0.39357E-03   -0.93207E-04  7390   0.153E-01    0.931E-02
DAV:   4    -0.132361323987E+03    0.28366E-03   -0.83030E-04  7152   0.178E-01    0.352E-02
DAV:   5    -0.132361312477E+03    0.11510E-04   -0.46651E-04  7112   0.108E-01    0.325E-02
DAV:   6    -0.132361300059E+03    0.12418E-04   -0.87066E-05  6428   0.416E-02    0.207E-02
DAV:   7    -0.132361289558E+03    0.10501E-04   -0.36372E-05  6022   0.221E-02    0.926E-03
DAV:   8    -0.132361281907E+03    0.76514E-05   -0.14180E-05  4526   0.302E-02
  21 F= -.13236128E+03 E0= -.13235898E+03  d E =-.239434E-02
       N       E                     dE             d eps       ncg     rms          rms(c)
DAV:   1    -0.132361077841E+03    0.21172E-03   -0.52690E-01  6128   0.318E+00    0.902E-02
DAV:   2    -0.132362157884E+03   -0.10800E-02   -0.11736E-02  6700   0.437E-01    0.542E-02
DAV:   3    -0.132362090501E+03    0.67383E-04   -0.10642E-04  7266   0.560E-02    0.371E-02
DAV:   4    -0.132362039306E+03    0.51195E-04   -0.19945E-04  7012   0.894E-02    0.120E-02
DAV:   5    -0.132362042156E+03   -0.28500E-05   -0.88332E-05  6436   0.414E-02    0.133E-02
DAV:   6    -0.132362040183E+03    0.19723E-05   -0.76623E-06  3680   0.127E-02
  22 F= -.13236204E+03 E0= -.13235972E+03  d E =-.758277E-03
       N       E                     dE             d eps       ncg     rms          rms(c)
DAV:   1    -0.132360662953E+03    0.13792E-02   -0.93434E-01  6108   0.424E+00    0.124E-01
DAV:   2    -0.132362590675E+03   -0.19277E-02   -0.21126E-02  6708   0.587E-01    0.721E-02
DAV:   3    -0.132362468621E+03    0.12205E-03   -0.20363E-04  7228   0.795E-02    0.503E-02
DAV:   4    -0.132362373373E+03    0.95249E-04   -0.36023E-04  7314   0.125E-01    0.181E-02
DAV:   5    -0.132362372915E+03    0.45741E-06   -0.17445E-04  6722   0.623E-02    0.199E-02
DAV:   6    -0.132362367317E+03    0.55986E-05   -0.20352E-05  4166   0.207E-02
  23 F= -.13236237E+03 E0= -.13236002E+03  d E =-.108541E-02
       N       E                     dE             d eps       ncg     rms          rms(c)
DAV:   1    -0.132362509587E+03   -0.13667E-03   -0.84580E-02  6430   0.128E+00    0.417E-02
DAV:   2    -0.132362663445E+03   -0.15386E-03   -0.20823E-03  6862   0.192E-01    0.264E-02
DAV:   3    -0.132362637977E+03    0.25467E-04   -0.51806E-05  6862   0.400E-02    0.196E-02
DAV:   4    -0.132362617686E+03    0.20291E-04   -0.31321E-05  5952   0.326E-02    0.996E-03
DAV:   5    -0.132362601172E+03    0.16515E-04   -0.17745E-05  4736   0.350E-02    0.525E-03
DAV:   6    -0.132362594312E+03    0.68593E-05   -0.20159E-05  5112   0.286E-02
  24 F= -.13236259E+03 E0= -.13236025E+03  d E =-.226996E-03
       N       E                     dE             d eps       ncg     rms          rms(c)
DAV:   1    -0.132362590915E+03    0.10256E-04   -0.13947E-03  6772   0.166E-01    0.566E-03
DAV:   2    -0.132362591330E+03   -0.41482E-06   -0.37636E-05  6254   0.265E-02    0.494E-03
DAV:   3    -0.132362589328E+03    0.20018E-05   -0.17308E-06  3632   0.840E-03    0.323E-03
DAV:   4    -0.132362586309E+03    0.30193E-05   -0.19018E-06  3962   0.120E-02    0.183E-03
DAV:   5    -0.132362584218E+03    0.20904E-05   -0.22178E-06  3872   0.127E-02    0.140E-03
DAV:   6    -0.132362580493E+03    0.37256E-05   -0.36770E-06  4500   0.269E-02
  25 F= -.13236258E+03 E0= -.13236025E+03  d E =-.213176E-03
       N       E                     dE             d eps       ncg     rms          rms(c)
DAV:   1    -0.132362761595E+03   -0.17738E-03   -0.18713E-02  6290   0.594E-01    0.213E-02
DAV:   2    -0.132362794901E+03   -0.33306E-04   -0.48702E-04  7008   0.962E-02    0.133E-02
DAV:   3    -0.132362790724E+03    0.41769E-05   -0.19180E-05  4346   0.226E-02    0.109E-02
DAV:   4    -0.132362786064E+03    0.46608E-05   -0.84980E-06  3798   0.178E-02    0.525E-03
DAV:   5    -0.132362780522E+03    0.55418E-05   -0.83603E-06  3880   0.264E-02    0.574E-03
DAV:   6    -0.132362778020E+03    0.25022E-05   -0.66706E-06  3796   0.186E-02
  26 F= -.13236278E+03 E0= -.13236045E+03  d E =-.197527E-03
