 vasp.5.3.5 31Mar14 (build Apr 08 2024 10:12:10) complex                        
  
 executed on             LinuxIFC date 2024.07.29  22:27:53
 running on    8 total cores
 distrk:  each k-point on    8 cores,    1 groups
 distr:  one band on NCORES_PER_BAND=   4 cores,    2 groups


--------------------------------------------------------------------------------------------------------


 INCAR:
 POTCAR:    PAW_PBE O 08Apr2002                   
 POTCAR:    PAW_PBE Mg 13Apr2007                  
 POTCAR:    PAW_PBE Al 04Jan2001                  
 POTCAR:    PAW_PBE O 08Apr2002                   
   VRHFIN =O: s2p4                                                              
   LEXCH  = PE                                                                  
   EATOM  =   432.3788 eV,   31.7789 Ry                                         
                                                                                
   TITEL  = PAW_PBE O 08Apr2002                                                 
   LULTRA =        F    use ultrasoft PP ?                                      
   IUNSCR =        1    unscreen: 0-lin 1-nonlin 2-no                           
   RPACOR =    1.200    partial core radius                                     
   POMASS =   16.000; ZVAL   =    6.000    mass and valenz                      
   RCORE  =    1.520    outmost cutoff radius                                   
   RWIGS  =    1.550; RWIGS  =    0.820    wigner-seitz radius (au A)           
   ENMAX  =  400.000; ENMIN  =  300.000 eV                                      
   ICORE  =        2    local potential                                         
   LCOR   =        T    correct aug charges                                     
   LPAW   =        T    paw PP                                                  
   EAUG   =  605.392                                                            
   DEXC   =    0.000                                                            
   RMAX   =    1.553    core radius for proj-oper                               
   RAUG   =    1.300    factor for augmentation sphere                          
   RDEP   =    1.550    radius for radial grids                                 
   RDEPT  =    1.329    core radius for aug-charge                              
                                                                                
   Atomic configuration                                                         
    4 entries                                                                   
     n  l   j            E        occ.                                          
     1  0  0.50      -514.6923   2.0000                                         
     2  0  0.50       -23.9615   2.0000                                         
     2  1  0.50        -9.0305   4.0000                                         
     3  2  1.50        -9.5241   0.0000                                         
   Description                                                                  
     l       E           TYP  RCUT    TYP  RCUT                                 
     0    -23.9615318     23  1.200                                             
     0     -9.5240782     23  1.200                                             
     1     -9.0304911     23  1.520                                             
     1      8.1634956     23  1.520                                             
     2     -9.5240782      7  1.500                                             
  local pseudopotential read in
  partial core-charges read in
  partial kinetic energy density read in
  kinetic energy density of atom read in
  atomic valenz-charges read in
  non local Contribution for L=           0  read in
    real space projection operators read in
  non local Contribution for L=           0  read in
    real space projection operators read in
  non local Contribution for L=           1  read in
    real space projection operators read in
  non local Contribution for L=           1  read in
    real space projection operators read in
    PAW grid and wavefunctions read in
 
   number of l-projection  operators is LMAX  =           4
   number of lm-projection operators is LMMAX =           8
 
 POTCAR:    PAW_PBE Mg 13Apr2007                  
   VRHFIN =Mg: s2p0                                                             
   LEXCH  = PE                                                                  
   EATOM  =    23.0369 eV,    1.6932 Ry                                         
                                                                                
   TITEL  = PAW_PBE Mg 13Apr2007                                                
   LULTRA =        F    use ultrasoft PP ?                                      
   IUNSCR =        1    unscreen: 0-lin 1-nonlin 2-no                           
   RPACOR =    1.500    partial core radius                                     
   POMASS =   24.305; ZVAL   =    2.000    mass and valenz                      
   RCORE  =    2.000    outmost cutoff radius                                   
   RWIGS  =    2.880; RWIGS  =    1.524    wigner-seitz radius (au A)           
   ENMAX  =  200.000; ENMIN  =  100.000 eV                                      
   RCLOC  =    1.506    cutoff for local pot                                    
   LCOR   =        T    correct aug charges                                     
   LPAW   =        T    paw PP                                                  
   EAUG   =  454.734                                                            
   DEXC   =    0.000                                                            
   RMAX   =    2.045    core radius for proj-oper                               
   RAUG   =    1.300    factor for augmentation sphere                          
   RDEP   =    2.025    radius for radial grids                                 
   RDEPT  =    1.942    core radius for aug-charge                              
                                                                                
   Atomic configuration                                                         
    6 entries                                                                   
     n  l   j            E        occ.                                          
     1  0  0.50     -1259.6230   2.0000                                         
     2  0  0.50       -79.8442   2.0000                                         
     2  1  1.50       -46.6121   6.0000                                         
     3  0  0.50        -4.7055   2.0000                                         
     3  1  0.50        -1.3660   0.0000                                         
     3  2  1.50        -1.3606   0.0000                                         
   Description                                                                  
     l       E           TYP  RCUT    TYP  RCUT                                 
     0     -4.7054661     23  2.000                                             
     0     27.2116520     23  2.000                                             
     1      1.3605826     23  2.000                                             
     1     27.2116520     23  2.000                                             
     2     -1.3605826     23  2.000                                             
  local pseudopotential read in
  partial core-charges read in
  partial kinetic energy density read in
  atomic valenz-charges read in
  non local Contribution for L=           0  read in
    real space projection operators read in
  non local Contribution for L=           0  read in
    real space projection operators read in
  non local Contribution for L=           1  read in
    real space projection operators read in
  non local Contribution for L=           1  read in
    real space projection operators read in
  non local Contribution for L=           2  read in
    real space projection operators read in
    PAW grid and wavefunctions read in
 
   number of l-projection  operators is LMAX  =           5
   number of lm-projection operators is LMMAX =          13
 
 POTCAR:    PAW_PBE Al 04Jan2001                  
   VRHFIN =Al: s2p1                                                             
   LEXCH  = PE                                                                  
   EATOM  =    53.5387 eV,    3.9350 Ry                                         
                                                                                
   TITEL  = PAW_PBE Al 04Jan2001                                                
   LULTRA =        F    use ultrasoft PP ?                                      
   IUNSCR =        1    unscreen: 0-lin 1-nonlin 2-no                           
   RPACOR =    1.500    partial core radius                                     
   POMASS =   26.981; ZVAL   =    3.000    mass and valenz                      
   RCORE  =    1.900    outmost cutoff radius                                   
   RWIGS  =    2.650; RWIGS  =    1.402    wigner-seitz radius (au A)           
   ENMAX  =  240.300; ENMIN  =  180.225 eV                                      
   ICORE  =        2    local potential                                         
   LCOR   =        T    correct aug charges                                     
   LPAW   =        T    paw PP                                                  
   EAUG   =  291.052                                                            
   DEXC   =    0.000                                                            
   RMAX   =    1.939    core radius for proj-oper                               
   RAUG   =    1.300    factor for augmentation sphere                          
   RDEP   =    1.966    radius for radial grids                                 
   RDEPT  =    1.856    core radius for aug-charge                              
                                                                                
   Atomic configuration                                                         
    6 entries                                                                   
     n  l   j            E        occ.                                          
     1  0  0.50     -1511.1048   2.0000                                         
     2  0  0.50      -108.1629   2.0000                                         
     2  1  1.50       -69.6402   6.0000                                         
     3  0  0.50        -7.7528   2.0000                                         
     3  1  1.50        -2.7121   1.0000                                         
     3  2  2.50        -2.7212   0.0000                                         
   Description                                                                  
     l       E           TYP  RCUT    TYP  RCUT                                 
     0     -7.7528455     23  1.900                                             
     0     -3.3096929     23  1.900                                             
     1     -2.7120682     23  1.900                                             
     1     13.6058260     23  1.900                                             
     2     -2.7211652      7  1.900                                             
  local pseudopotential read in
  partial core-charges read in
  partial kinetic energy density read in
  atomic valenz-charges read in
  non local Contribution for L=           0  read in
    real space projection operators read in
  non local Contribution for L=           0  read in
    real space projection operators read in
  non local Contribution for L=           1  read in
    real space projection operators read in
  non local Contribution for L=           1  read in
    real space projection operators read in
    PAW grid and wavefunctions read in
 
   number of l-projection  operators is LMAX  =           4
   number of lm-projection operators is LMMAX =           8
 

 ----------------------------------------------------------------------------- 
|                                                                             |
|  ADVICE TO THIS USER RUNNING 'VASP/VAMP'   (HEAR YOUR MASTER'S VOICE ...):  |
|                                                                             |
|      You have a (more or less) 'large supercell' and for larger cells       |
|      it might be more efficient to use real space projection opertators     |
|      So try LREAL= Auto  in the INCAR   file.                               |
|      Mind: At the moment your POTCAR file does not contain real space       |
|       projectors, and has to be modified,  BUT if you                       |
|      want to do an extremely  accurate calculation you might also keep the  |
|      reciprocal projection scheme          (i.e. LREAL=.FALSE.)             |
|                                                                             |
 ----------------------------------------------------------------------------- 

  PAW_PBE O 08Apr2002                   :
 energy of atom  1       EATOM= -432.3788
 kinetic energy error for atom=    0.0208 (will be added to EATOM!!)
  PAW_PBE Mg 13Apr2007                  :
 energy of atom  2       EATOM=  -23.0369
 kinetic energy error for atom=    0.0000 (will be added to EATOM!!)
  PAW_PBE Al 04Jan2001                  :
 energy of atom  3       EATOM=  -53.5387
 kinetic energy error for atom=    0.0002 (will be added to EATOM!!)
 
 
 POSCAR: Layer                                   
  positions in direct lattice
  velocities in cartesian coordinates
 exchange correlation table for  LEXCH =        8
   RHO(1)=    0.500       N(1)  =     2000
   RHO(2)=  100.500       N(2)  =     4000
 


--------------------------------------------------------------------------------------------------------


 ion  position               nearest neighbor table
   1  0.556  0.444  0.356-  15 2.15  14 2.15  15 2.15  15 2.15  14 2.15  14 2.15
   2  0.500  0.500  0.526-  17 2.15  16 2.15  17 2.15  17 2.15  16 2.15  16 2.15
   3  0.444  0.556  0.696-  18 2.15  19 2.15  18 2.15  18 2.15  19 2.15  19 2.15
   4  0.241  0.759  0.299-  14 2.15  14 2.15  14 2.15  10 2.17  10 2.17  10 2.17
   5  0.870  0.130  0.413-  11 2.15  15 2.15  11 2.15  11 2.15  15 2.15  15 2.15
   6  0.185  0.815  0.469-  16 2.15  11 2.15  16 2.15  16 2.15  11 2.15  11 2.15
   7  0.815  0.185  0.582-  17 2.15  12 2.15  17 2.15  17 2.15  12 2.15  12 2.15
   8  0.130  0.870  0.639-  12 2.15  18 2.15  12 2.15  12 2.15  18 2.15  18 2.15
   9  0.759  0.241  0.752-  19 2.15  19 2.15  19 2.15  13 2.17  13 2.17  13 2.17
  10  0.584  0.416  0.270-   4 2.17   4 2.17   4 2.17  14 3.11  14 3.11  14 3.11  21 3.23  21 3.23
                            21 3.23
  11  0.528  0.472  0.441-   5 2.15   6 2.15   5 2.15   5 2.15   6 2.15   6 2.15  16 3.08  16 3.08
                            15 3.08  15 3.08  16 3.08  15 3.08
  12  0.472  0.528  0.611-   8 2.15   7 2.15   8 2.15   8 2.15   7 2.15   7 2.15  17 3.08  17 3.08
                            18 3.08  18 3.08  17 3.08  18 3.08
  13  0.416  0.584  0.781-   9 2.17   9 2.17   9 2.17  19 3.11  19 3.11  19 3.11  24 3.23  24 3.23
                            24 3.23
  14  0.898  0.102  0.328-   4 2.15   4 2.15   4 2.15   1 2.15   1 2.15   1 2.15  15 3.08  15 3.08
                            15 3.09  10 3.11  10 3.11  10 3.11
  15  0.213  0.787  0.384-   1 2.15   5 2.15   1 2.15   1 2.15   5 2.15   5 2.15  11 3.08  11 3.08
                            11 3.08  14 3.08  14 3.08  14 3.09
  16  0.843  0.157  0.497-   6 2.15   2 2.15   6 2.15   6 2.15   2 2.15   2 2.15  11 3.08  11 3.08
                            11 3.08  17 3.08  17 3.08  17 3.09
  17  0.157  0.843  0.554-   7 2.15   2 2.15   7 2.15   7 2.15   2 2.15   2 2.15  12 3.08  12 3.08
                            12 3.08  16 3.08  16 3.08  16 3.09
  18  0.787  0.213  0.667-   3 2.15   8 2.15   3 2.15   3 2.15   8 2.15   8 2.15  12 3.08  12 3.08
                            12 3.08  19 3.08  19 3.08  19 3.09
  19  0.102  0.898  0.724-   9 2.15   9 2.15   9 2.15   3 2.15   3 2.15   3 2.15  18 3.08  18 3.08
                            18 3.09  13 3.11  13 3.11  13 3.11
  20  1.000  0.000  0.026-  23 3.15  25 3.15  23 3.15  23 3.15  25 3.15  25 3.15
  21  0.937  0.063  0.210-  10 3.23  10 3.23  10 3.23
  22  0.625  0.375  0.146-  23 3.27  23 3.27  23 3.27
  23  0.314  0.686  0.084-  20 3.15  20 3.15  20 3.15  22 3.27  22 3.27  22 3.27
  24  0.063  0.937  0.842-  13 3.23  13 3.23  13 3.23
  25  0.686  0.314  0.967-  20 3.15  20 3.15  20 3.15  26 3.27  26 3.27  26 3.27
  26  0.375  0.625  0.906-  25 3.27  25 3.27  25 3.27
 
  LATTYP: Found a base centered monoclinic cell.
 ALAT       =     5.1835214829
 B/A-ratio  =     0.5778353023
 C/A-ratio  =     8.8588502906
 COS(beta)  =    -0.1630194733
  
  Lattice vectors:
  
 A1 = (  -2.5925900058,   1.4952752266,  -0.0518951648)
 A2 = (   0.0013482762,   2.9928857368,  -0.0518951490)
 A3 = (   4.7735158528,  -8.2679694689, -44.9166380519)


Analysis of symmetry for initial positions (statically):
=====================================================================
 Subroutine PRICEL returns:
 Original cell was already a primitive cell.
 

 Routine SETGRP: Setting up the symmetry group for a 
 base centered monoclinic supercell.


 Subroutine GETGRP returns: Found  2 space group operations
 (whereof  2 operations were pure point group operations)
 out of a pool of  4 trial point group operations.


The static configuration has the point symmetry C_1h.


Analysis of symmetry for dynamics (positions and initial velocities):
=====================================================================
 Subroutine PRICEL returns:
 Original cell was already a primitive cell.
 

 Routine SETGRP: Setting up the symmetry group for a 
 base centered monoclinic supercell.


 Subroutine GETGRP returns: Found  2 space group operations
 (whereof  2 operations were pure point group operations)
 out of a pool of  4 trial point group operations.


The dynamic configuration has the point symmetry C_1h.


Analysis of constrained symmetry for selective dynamics:
=====================================================================
 Subroutine PRICEL returns:
 Original cell was already a primitive cell.
 

 Routine SETGRP: Setting up the symmetry group for a 
 base centered monoclinic supercell.


 Subroutine GETGRP returns: Found  2 space group operations
 (whereof  2 operations were pure point group operations)
 out of a pool of  4 trial point group operations.


The constrained configuration has the point symmetry C_1h.
 
 
 KPOINTS: K-Spacing Value to Generate K-Mesh: 0.02

Automatic generation of k-mesh.
Space group operators:
 irot       det(A)        alpha          n_x          n_y          n_z        tau_x        tau_y        tau_z
    1     1.000000     0.000000     1.000000     0.000000     0.000000     0.000000     0.000000     0.000000
    2    -1.000000   180.000000     0.866025     0.500000     0.000000     0.000000     0.000000     0.000000
 
 Subroutine IBZKPT returns following result:
 ===========================================
 
 Found     49 irreducible k-points:
 
 Following reciprocal coordinates:
            Coordinates               Weight
  0.000000  0.000000  0.000000      1.000000
  0.076923 -0.000000 -0.000000      4.000000
  0.153846 -0.000000 -0.000000      4.000000
  0.230769 -0.000000 -0.000000      4.000000
  0.307692 -0.000000 -0.000000      4.000000
  0.384615  0.000000 -0.000000      4.000000
  0.461538 -0.000000 -0.000000      4.000000
  0.076923  0.076923 -0.000000      2.000000
  0.153846  0.076923 -0.000000      4.000000
  0.230769  0.076923 -0.000000      4.000000
  0.307692  0.076923 -0.000000      4.000000
  0.384615  0.076923 -0.000000      4.000000
  0.461538  0.076923 -0.000000      4.000000
 -0.461538  0.076923  0.000000      4.000000
 -0.384615  0.076923  0.000000      4.000000
 -0.307692  0.076923 -0.000000      4.000000
 -0.230769  0.076923  0.000000      4.000000
 -0.153846  0.076923  0.000000      4.000000
 -0.076923  0.076923  0.000000      2.000000
  0.153846  0.153846 -0.000000      2.000000
  0.230769  0.153846 -0.000000      4.000000
  0.307692  0.153846 -0.000000      4.000000
  0.384615  0.153846 -0.000000      4.000000
  0.461538  0.153846 -0.000000      4.000000
 -0.461538  0.153846 -0.000000      4.000000
 -0.384615  0.153846  0.000000      4.000000
 -0.307692  0.153846  0.000000      4.000000
 -0.230769  0.153846 -0.000000      4.000000
 -0.153846  0.153846  0.000000      2.000000
  0.230769  0.230769 -0.000000      2.000000
  0.307692  0.230769 -0.000000      4.000000
  0.384615  0.230769 -0.000000      4.000000
  0.461538  0.230769 -0.000000      4.000000
 -0.461538  0.230769  0.000000      4.000000
 -0.384615  0.230769 -0.000000      4.000000
 -0.307692  0.230769 -0.000000      4.000000
 -0.230769  0.230769 -0.000000      2.000000
  0.307692  0.307692 -0.000000      2.000000
  0.384615  0.307692 -0.000000      4.000000
  0.461538  0.307692 -0.000000      4.000000
 -0.461538  0.307692  0.000000      4.000000
 -0.384615  0.307692  0.000000      4.000000
 -0.307692  0.307692  0.000000      2.000000
  0.384615  0.384615 -0.000000      2.000000
  0.461538  0.384615 -0.000000      4.000000
 -0.461538  0.384615  0.000000      4.000000
 -0.384615  0.384615  0.000000      2.000000
  0.461538  0.461538 -0.000000      2.000000
 -0.461538  0.461538 -0.000000      2.000000
 
 Following cartesian coordinates:
            Coordinates               Weight
  0.000000  0.000000  0.000000      1.000000
  0.029665 -0.000018 -0.000269      4.000000
  0.059331 -0.000036 -0.000538      4.000000
  0.088996 -0.000054 -0.000807      4.000000
  0.118661 -0.000072 -0.001077      4.000000
  0.148327 -0.000090 -0.001346      4.000000
  0.177992 -0.000108 -0.001615      4.000000
  0.044482  0.025682  0.000000      2.000000
  0.074148  0.025664 -0.000269      4.000000
  0.103813  0.025646 -0.000538      4.000000
  0.133478  0.025628 -0.000807      4.000000
  0.163144  0.025610 -0.001077      4.000000
  0.192809  0.025592 -0.001346      4.000000
 -0.163175  0.025808  0.001884      4.000000
 -0.133510  0.025790  0.001615      4.000000
 -0.103844  0.025772  0.001346      4.000000
 -0.074179  0.025754  0.001077      4.000000
 -0.044514  0.025736  0.000807      4.000000
 -0.014848  0.025718  0.000538      2.000000
  0.088965  0.051364  0.000000      2.000000
  0.118630  0.051346 -0.000269      4.000000
  0.148296  0.051328 -0.000538      4.000000
  0.177961  0.051310 -0.000807      4.000000
  0.207626  0.051292 -0.001077      4.000000
 -0.148358  0.051508  0.002153      4.000000
 -0.118693  0.051490  0.001884      4.000000
 -0.089027  0.051472  0.001615      4.000000
 -0.059362  0.051454  0.001346      4.000000
 -0.029697  0.051436  0.001077      2.000000
  0.133447  0.077046  0.000000      2.000000
  0.163113  0.077028 -0.000269      4.000000
  0.192778  0.077010 -0.000538      4.000000
  0.222443  0.076992 -0.000807      4.000000
 -0.133541  0.077208  0.002422      4.000000
 -0.103876  0.077190  0.002153      4.000000
 -0.074210  0.077172  0.001884      4.000000
 -0.044545  0.077154  0.001615      2.000000
  0.177930  0.102728  0.000000      2.000000
  0.207595  0.102710 -0.000269      4.000000
  0.237260  0.102692 -0.000538      4.000000
 -0.118724  0.102908  0.002691      4.000000
 -0.089059  0.102890  0.002422      4.000000
 -0.059393  0.102872  0.002153      2.000000
  0.222412  0.128410  0.000000      2.000000
  0.252077  0.128392 -0.000269      4.000000
 -0.103907  0.128608  0.002961      4.000000
 -0.074241  0.128590  0.002691      2.000000
  0.266894  0.154092  0.000000      2.000000
 -0.089090  0.154308  0.003230      2.000000
 


--------------------------------------------------------------------------------------------------------




 Dimension of arrays:
   k-points           NKPTS =     49   k-points in BZ     NKDIM =     49   number of bands    NBANDS=     62
   number of dos      NEDOS =    301   number of ions     NIONS =     26
   non local maximal  LDIM  =      5   non local SUM 2l+1 LMDIM =     13
   total plane-waves  NPLWV = 193536
   max r-space proj   IRMAX =      1   max aug-charges    IRDMAX= 188043
   dimension x,y,z NGX =    24 NGY =   24 NGZ =  336
   dimension x,y,z NGXF=    48 NGYF=   48 NGZF=  672
   support grid    NGXF=    96 NGYF=   96 NGZF= 1344
   ions per type =               9  10   7
 NGX,Y,Z   is equivalent  to a cutoff of  13.33, 13.33, 12.38 a.u.
 NGXF,Y,Z  is equivalent  to a cutoff of  26.66, 26.66, 24.75 a.u.


 I would recommend the setting:
   dimension x,y,z NGX =    22 NGY =   22 NGZ =  336
 SYSTEM =  unknown system                          
 POSCAR =  Layer                                   

 Startparameter for this run:
   NWRITE =      2    write-flag & timer
   PREC   = accura    normal or accurate (medium, high low for compatibility)
   ISTART =      0    job   : 0-new  1-cont  2-samecut
   ICHARG =      2    charge: 1-file 2-atom 10-const
   ISPIN  =      1    spin polarized calculation?
   LNONCOLLINEAR =      F non collinear calculations
   LSORBIT =      F    spin-orbit coupling
   INIWAV =      1    electr: 0-lowe 1-rand  2-diag
   LASPH  =      F    aspherical Exc in radial PAW
   METAGGA=      F    non-selfconsistent MetaGGA calc.

 Electronic Relaxation 1
   ENCUT  =  520.0 eV  38.22 Ry    6.18 a.u.   5.57  5.57 83.91*2*pi/ulx,y,z
   ENINI  =  520.0     initial cutoff
   ENAUG  =  605.4 eV  augmentation charge cutoff
   NELM   =    100;   NELMIN=  6; NELMDL=  0     # of ELM steps 
   EDIFF  = 0.1E-04   stopping-criterion for ELM
   LREAL  =      F    real-space projection
   NLSPLINE    = F    spline interpolate recip. space projectors
   LCOMPAT=      F    compatible to vasp.4.4
   GGA_COMPAT  = T    GGA compatible to vasp.4.4-vasp.4.6
   LMAXPAW     = -100 max onsite density
   LMAXMIX     =    2 max onsite mixed and CHGCAR
   VOSKOWN=      0    Vosko Wilk Nusair interpolation
   ROPT   =    0.00000   0.00000   0.00000
 Ionic relaxation
   EDIFFG = -.2E-01   stopping-criterion for IOM
   NSW    =    500    number of steps for IOM
   NBLOCK =      1;   KBLOCK =    500    inner block; outer block 
   IBRION =      2    ionic relax: 0-MD 1-quasi-New 2-CG
   NFREE  =      1    steps in history (QN), initial steepest desc. (CG)
   ISIF   =      2    stress and relaxation
   IWAVPR =     11    prediction:  0-non 1-charg 2-wave 3-comb
   ISYM   =      2    0-nonsym 1-usesym 2-fastsym
   LCORR  =      T    Harris-Foulkes like correction to forces

   POTIM  = 0.5000    time-step for ionic-motion
   TEIN   =    0.0    initial temperature
   TEBEG  =    0.0;   TEEND  =   0.0 temperature during run
   SMASS  =  -3.00    Nose mass-parameter (am)
   estimated Nose-frequenzy (Omega)   =  0.10E-29 period in steps =****** mass=  -0.205E-27a.u.
   SCALEE = 1.0000    scale energy and forces
   NPACO  =    256;   APACO  = 16.0  distance and # of slots for P.C.
   PSTRESS=    0.0 pullay stress

  Mass of Ions in am
   POMASS =  16.00 24.30 26.98
  Ionic Valenz
   ZVAL   =   6.00  2.00  3.00
  Atomic Wigner-Seitz radii
   RWIGS  =  -1.00 -1.00 -1.00
  virtual crystal weights 
   VCA    =   1.00  1.00  1.00
   NELECT =      95.0000    total number of electrons
   NUPDOWN=      -1.0000    fix difference up-down

 DOS related values:
   EMIN   =  10.00;   EMAX   =-10.00  energy-range for DOS
   EFERMI =   0.00
   ISMEAR =     0;   SIGMA  =   0.05  broadening in eV -4-tet -1-fermi 0-gaus

 Electronic relaxation 2 (details)
   IALGO  =     38    algorithm
   LDIAG  =      T    sub-space diagonalisation (order eigenvalues)
   LSUBROT=      F    optimize rotation matrix (better conditioning)
   TURBO    =      0    0=normal 1=particle mesh
   IRESTART =      0    0=no restart 2=restart with 2 vectors
   NREBOOT  =      0    no. of reboots
   NMIN     =      0    reboot dimension
   EREF     =   0.00    reference energy to select bands
   IMIX   =      4    mixing-type and parameters
     AMIX     =   0.40;   BMIX     =  1.00
     AMIX_MAG =   1.60;   BMIX_MAG =  1.00
     AMIN     =   0.01
     WC   =   100.;   INIMIX=   1;  MIXPRE=   1;  MAXMIX= -45

 Intra band minimization:
   WEIMIN = 0.0010     energy-eigenvalue tresh-hold
   EBREAK =  0.40E-07  absolut break condition
   DEPER  =   0.30     relativ break condition  

   TIME   =   0.40     timestep for ELM

  volume/ion in A,a.u.               =      13.47        90.87
  Fermi-wavevector in a.u.,A,eV,Ry     =   1.059871  2.002866 15.283791  1.123327
  Thomas-Fermi vector in A             =   2.195232
 
 Write flags
   LWAVE  =      F    write WAVECAR
   LCHARG =      T    write CHGCAR
   LVTOT  =      F    write LOCPOT, total local potential
   LVHAR  =      F    write LOCPOT, Hartree potential only
   LELF   =      F    write electronic localiz. function (ELF)
   LORBIT =      0    0 simple, 1 ext, 2 COOP (PROOUT)


 Dipole corrections
   LMONO  =      F    monopole corrections only (constant potential shift)
   LDIPOL =      F    correct potential (dipole corrections)
   IDIPOL =      0    1-x, 2-y, 3-z, 4-all directions 
   EPSILON=  1.0000000 bulk dielectric constant

 Exchange correlation treatment:
   GGA     =    --    GGA type
   LEXCH   =     8    internal setting for exchange type
   VOSKOWN=      0    Vosko Wilk Nusair interpolation
   LHFCALC =     F    Hartree Fock is set to
   LHFONE  =     F    Hartree Fock one center treatment
   AEXX    =    0.0000 exact exchange contribution

 Linear response parameters
   LEPSILON=     F    determine dielectric tensor
   LRPA    =     F    only Hartree local field effects (RPA)
   LNABLA  =     F    use nabla operator in PAW spheres
   LVEL    =     F    velocity operator in full k-point grid
   LINTERFAST=   F  fast interpolation
   KINTER  =     0    interpolate to denser k-point grid
   CSHIFT  =0.1000    complex shift for real part using Kramers Kronig
   OMEGAMAX=  -1.0    maximum frequency
   DEG_THRESHOLD= 0.2000000E-02 threshold for treating states as degnerate
   RTIME   =    0.100 relaxation time in fs

 Orbital magnetization related:
   ORBITALMAG=     F  switch on orbital magnetization
   LCHIMAG   =     F  perturbation theory with respect to B field
   DQ        =  0.001000  dq finite difference perturbation B field



--------------------------------------------------------------------------------------------------------


 conjugate gradient relaxation of ions
   using selective dynamics as specified on POSCAR
 charge density and potential will be updated during run
 non-spin polarized calculation
 Variant of blocked Davidson
 Davidson routine will perform the subspace rotation
 perform sub-space diagonalisation
    after iterative eigenvector-optimisation
 modified Broyden-mixing scheme, WC =      100.0
 initial mixing is a Kerker type mixing with AMIX =  0.4000 and BMIX =      1.0000
 Hartree-type preconditioning will be used
 using additional bands           14
 reciprocal scheme for non local part
 use partial core corrections
 calculate Harris-corrections to forces 
   (improved forces if not selfconsistent)
 use gradient corrections 
 use of overlap-Matrix (Vanderbilt PP)
 Gauss-broadening in eV      SIGMA  =   0.05


--------------------------------------------------------------------------------------------------------


  energy-cutoff  :      520.00
  volume of cell :      350.10
      direct lattice vectors                 reciprocal lattice vectors
     2.592590006 -1.495275227  0.051895165     0.385649516 -0.000234402 -0.003498879
     0.001348276  2.992885737 -0.051895149     0.192621760  0.334099580  0.003498879
     0.408967606 -0.708352458 45.124218679    -0.000221992  0.000384501  0.022169096

  length of vectors
     2.993336608  2.993335925 45.131631137     0.385665459  0.385665547  0.022173542


 
 k-points in units of 2pi/SCALE and weight: K-Spacing Value to Generate K-Mesh: 0.02
   0.00000000  0.00000000  0.00000000       0.006
   0.02966535 -0.00001803 -0.00026914       0.024
   0.05933069 -0.00003606 -0.00053829       0.024
   0.08899604 -0.00005409 -0.00080743       0.024
   0.11866139 -0.00007212 -0.00107658       0.024
   0.14832674 -0.00009015 -0.00134572       0.024
   0.17799208 -0.00010819 -0.00161487       0.024
   0.04448241  0.02568194  0.00000000       0.012
   0.07414775  0.02566391 -0.00026914       0.024
   0.10381310  0.02564588 -0.00053829       0.024
   0.13347845  0.02562784 -0.00080743       0.024
   0.16314380  0.02560981 -0.00107658       0.024
   0.19280914  0.02559178 -0.00134572       0.024
  -0.16317503  0.02580815  0.00188401       0.024
  -0.13350968  0.02579012  0.00161487       0.024
  -0.10384433  0.02577209  0.00134572       0.024
  -0.07417898  0.02575406  0.00107658       0.024
  -0.04451364  0.02573603  0.00080743       0.024
  -0.01484829  0.02571800  0.00053829       0.012
   0.08896481  0.05136387  0.00000000       0.012
   0.11863016  0.05134584 -0.00026914       0.024
   0.14829551  0.05132781 -0.00053829       0.024
   0.17796085  0.05130978 -0.00080743       0.024
   0.20762620  0.05129175 -0.00107658       0.024
  -0.14835797  0.05150812  0.00215316       0.024
  -0.11869262  0.05149009  0.00188401       0.024
  -0.08902727  0.05147206  0.00161487       0.024
  -0.05936193  0.05145403  0.00134572       0.024
  -0.02969658  0.05143600  0.00107658       0.012
   0.13344722  0.07704581  0.00000000       0.012
   0.16311256  0.07702778 -0.00026914       0.024
   0.19277791  0.07700975 -0.00053829       0.024
   0.22244326  0.07699172 -0.00080743       0.024
  -0.13354091  0.07720809  0.00242230       0.024
  -0.10387556  0.07719006  0.00215316       0.024
  -0.07421021  0.07717203  0.00188401       0.024
  -0.04454487  0.07715400  0.00161487       0.012
   0.17792962  0.10272775  0.00000000       0.012
   0.20759497  0.10270972 -0.00026914       0.024
   0.23726032  0.10269169 -0.00053829       0.024
  -0.11872385  0.10290806  0.00269145       0.024
  -0.08905850  0.10289003  0.00242230       0.024
  -0.05939316  0.10287199  0.00215316       0.012
   0.22241203  0.12840968  0.00000000       0.012
   0.25207738  0.12839165 -0.00026914       0.024
  -0.10390679  0.12860802  0.00296059       0.024
  -0.07424144  0.12858999  0.00269145       0.012
   0.26689444  0.15409162  0.00000000       0.012
  -0.08908973  0.15430799  0.00322973       0.012
 
 k-points in reciprocal lattice and weights: K-Spacing Value to Generate K-Mesh: 0.02
   0.00000000  0.00000000  0.00000000       0.006
   0.07692308 -0.00000000 -0.00000000       0.024
   0.15384615 -0.00000000 -0.00000000       0.024
   0.23076923 -0.00000000 -0.00000000       0.024
   0.30769231 -0.00000000 -0.00000000       0.024
   0.38461538  0.00000000 -0.00000000       0.024
   0.46153846 -0.00000000 -0.00000000       0.024
   0.07692308  0.07692308 -0.00000000       0.012
   0.15384615  0.07692308 -0.00000000       0.024
   0.23076923  0.07692308 -0.00000000       0.024
   0.30769231  0.07692308 -0.00000000       0.024
   0.38461538  0.07692308 -0.00000000       0.024
   0.46153846  0.07692308 -0.00000000       0.024
  -0.46153846  0.07692308  0.00000000       0.024
  -0.38461538  0.07692308  0.00000000       0.024
  -0.30769231  0.07692308 -0.00000000       0.024
  -0.23076923  0.07692308  0.00000000       0.024
  -0.15384615  0.07692308  0.00000000       0.024
  -0.07692308  0.07692308  0.00000000       0.012
   0.15384615  0.15384615 -0.00000000       0.012
   0.23076923  0.15384615 -0.00000000       0.024
   0.30769231  0.15384615 -0.00000000       0.024
   0.38461538  0.15384615 -0.00000000       0.024
   0.46153846  0.15384615 -0.00000000       0.024
  -0.46153846  0.15384615 -0.00000000       0.024
  -0.38461538  0.15384615  0.00000000       0.024
  -0.30769231  0.15384615  0.00000000       0.024
  -0.23076923  0.15384615 -0.00000000       0.024
  -0.15384615  0.15384615  0.00000000       0.012
   0.23076923  0.23076923 -0.00000000       0.012
   0.30769231  0.23076923 -0.00000000       0.024
   0.38461538  0.23076923 -0.00000000       0.024
   0.46153846  0.23076923 -0.00000000       0.024
  -0.46153846  0.23076923  0.00000000       0.024
  -0.38461538  0.23076923 -0.00000000       0.024
  -0.30769231  0.23076923 -0.00000000       0.024
  -0.23076923  0.23076923 -0.00000000       0.012
   0.30769231  0.30769231 -0.00000000       0.012
   0.38461538  0.30769231 -0.00000000       0.024
   0.46153846  0.30769231 -0.00000000       0.024
  -0.46153846  0.30769231  0.00000000       0.024
  -0.38461538  0.30769231  0.00000000       0.024
  -0.30769231  0.30769231  0.00000000       0.012
   0.38461538  0.38461538 -0.00000000       0.012
   0.46153846  0.38461538 -0.00000000       0.024
  -0.46153846  0.38461538  0.00000000       0.024
  -0.38461538  0.38461538  0.00000000       0.012
   0.46153846  0.46153846 -0.00000000       0.012
  -0.46153846  0.46153846 -0.00000000       0.012
 
 position of ions in fractional coordinates (direct lattice) 
   0.55559260  0.44440740  0.35592272
   0.50001175  0.49998825  0.52578789
   0.44442937  0.55557063  0.69565470
   0.24081158  0.75918842  0.29930798
   0.87039302  0.12960698  0.41255913
   0.18520846  0.81479154  0.46915977
   0.81481534  0.18518466  0.58241583
   0.12963004  0.87036996  0.63901719
   0.75920809  0.24079191  0.75227118
   0.58365382  0.41634618  0.27021237
   0.52780266  0.47219734  0.44084748
   0.47222066  0.52777934  0.61073044
   0.41636582  0.58363418  0.78136661
   0.89821118  0.10178882  0.32757354
   0.21299949  0.78700051  0.38422787
   0.84261271  0.15738729  0.49746228
   0.15741169  0.84258831  0.55411188
   0.78702262  0.21297738  0.66735029
   0.10181003  0.89818997  0.72400395
   0.99994396  0.00005604  0.02579217
   0.93691633  0.06308367  0.20975544
   0.62495633  0.37504367  0.14570684
   0.31387982  0.68612018  0.08410763
   0.06309600  0.93690400  0.84182350
   0.68602969  0.31397031  0.96747486
   0.37496695  0.62503305  0.90587143
 
 position of ions in cartesian coordinates  (Angst):
   1.58658388  0.24717797 16.06650469
   1.51202979  0.37630939 23.72576907
   1.43747245  0.50544646 31.38510724
   0.74775656  1.70006906 13.47913771
   2.42547032 -1.20581552 18.65485160
   0.67313932  1.82930988 21.13779594
   2.35092100 -1.07669235 26.31373407
   0.59858839  1.95843583 28.79671063
   2.27629450 -0.94743551 33.97255241
   1.62424451  0.18194786 12.20180472
   1.54930489  0.31174704 19.89578368
   1.47475512  0.44087101 27.55585063
   1.39980641  0.57068594 35.24987752
   2.46279754 -1.27046816 14.82283035
   0.71041819  1.76474099 17.30819476
   2.38820744 -1.14127434 22.48315672
   0.63585383  1.89389022 24.96830844
   2.31363877 -1.01211767 30.14345082
   0.56125684  2.02309595 32.62878424
   2.60299295 -1.51329364  1.21574104
   2.51490815 -1.36072634  9.51039801
   1.68035058  0.08476932  6.58787664
   0.84908405  1.52456476  3.77597367
   0.50912381  2.11339298 37.94128132
   2.17468290 -0.77143911 43.67585521
   1.34345034  0.66829747 40.86376319
 


--------------------------------------------------------------------------------------------------------


 k-point  1 :   0.0000 0.0000 0.0000  plane waves:    9569
 k-point  2 :   0.0769-0.0000-0.0000  plane waves:    9552
 k-point  3 :   0.1538-0.0000-0.0000  plane waves:    9512
 k-point  4 :   0.2308-0.0000-0.0000  plane waves:    9480
 k-point  5 :   0.3077-0.0000-0.0000  plane waves:    9427
 k-point  6 :   0.3846 0.0000-0.0000  plane waves:    9371
 k-point  7 :   0.4615-0.0000-0.0000  plane waves:    9375
 k-point  8 :   0.0769 0.0769-0.0000  plane waves:    9531
 k-point  9 :   0.1538 0.0769-0.0000  plane waves:    9501
 k-point 10 :   0.2308 0.0769-0.0000  plane waves:    9444
 k-point 11 :   0.3077 0.0769-0.0000  plane waves:    9416
 k-point 12 :   0.3846 0.0769-0.0000  plane waves:    9379
 k-point 13 :   0.4615 0.0769-0.0000  plane waves:    9341
 k-point 14 :  -0.4615 0.0769 0.0000  plane waves:    9375
 k-point 15 :  -0.3846 0.0769 0.0000  plane waves:    9417
 k-point 16 :  -0.3077 0.0769-0.0000  plane waves:    9440
 k-point 17 :  -0.2308 0.0769 0.0000  plane waves:    9499
 k-point 18 :  -0.1538 0.0769 0.0000  plane waves:    9529
 k-point 19 :  -0.0769 0.0769 0.0000  plane waves:    9552
 k-point 20 :   0.1538 0.1538-0.0000  plane waves:    9449
 k-point 21 :   0.2308 0.1538-0.0000  plane waves:    9423
 k-point 22 :   0.3077 0.1538-0.0000  plane waves:    9409
 k-point 23 :   0.3846 0.1538-0.0000  plane waves:    9373
 k-point 24 :   0.4615 0.1538-0.0000  plane waves:    9366
 k-point 25 :  -0.4615 0.1538-0.0000  plane waves:    9412
 k-point 26 :  -0.3846 0.1538 0.0000  plane waves:    9421
 k-point 27 :  -0.3077 0.1538 0.0000  plane waves:    9456
 k-point 28 :  -0.2308 0.1538-0.0000  plane waves:    9491
 k-point 29 :  -0.1538 0.1538 0.0000  plane waves:    9530
 k-point 30 :   0.2308 0.2308-0.0000  plane waves:    9418
 k-point 31 :   0.3077 0.2308-0.0000  plane waves:    9374
 k-point 32 :   0.3846 0.2308-0.0000  plane waves:    9406
 k-point 33 :   0.4615 0.2308-0.0000  plane waves:    9379
 k-point 34 :  -0.4615 0.2308 0.0000  plane waves:    9424
 k-point 35 :  -0.3846 0.2308-0.0000  plane waves:    9428
 k-point 36 :  -0.3077 0.2308-0.0000  plane waves:    9448
 k-point 37 :  -0.2308 0.2308-0.0000  plane waves:    9489
 k-point 38 :   0.3077 0.3077-0.0000  plane waves:    9418
 k-point 39 :   0.3846 0.3077-0.0000  plane waves:    9412
 k-point 40 :   0.4615 0.3077-0.0000  plane waves:    9371
 k-point 41 :  -0.4615 0.3077 0.0000  plane waves:    9399
 k-point 42 :  -0.3846 0.3077 0.0000  plane waves:    9418
 k-point 43 :  -0.3077 0.3077 0.0000  plane waves:    9421
 k-point 44 :   0.3846 0.3846-0.0000  plane waves:    9396
 k-point 45 :   0.4615 0.3846-0.0000  plane waves:    9364
 k-point 46 :  -0.4615 0.3846 0.0000  plane waves:    9379
 k-point 47 :  -0.3846 0.3846 0.0000  plane waves:    9373
 k-point 48 :   0.4615 0.4615-0.0000  plane waves:    9342
 k-point 49 :  -0.4615 0.4615-0.0000  plane waves:    9370

 maximum and minimum number of plane-waves per node :      2424     2322

 maximum number of plane-waves:      9569
 maximum index in each direction: 
   IXMAX=    6   IYMAX=    5   IZMAX=   83
   IXMIN=   -6   IYMIN=   -6   IZMIN=  -83

 WARNING: aliasing errors must be expected set NGX to  26 to avoid them
 NGY is ok and might be reduce to  24
 NGZ is ok and might be reduce to 334
 aliasing errors are usually negligible using standard VASP settings
 and one can safely disregard these warnings

 parallel 3D FFT for wavefunctions:
    minimum data exchange during FFTs selected (reduces bandwidth)
 parallel 3D FFT for charge:
    minimum data exchange during FFTs selected (reduces bandwidth)


 total amount of memory used by VASP on root node   207625. kBytes
========================================================================

   base      :      30000. kBytes
   nonl-proj :      37155. kBytes
   fftplans  :      57937. kBytes
   grid      :      23224. kBytes
   one-center:         56. kBytes
   wavefun   :      59253. kBytes
 
     INWAV:  cpu time    0.00: real time    0.00
 Broyden mixing: mesh for mixing (old mesh)
   NGX = 11   NGY = 11   NGZ =167
  (NGX  = 48   NGY  = 48   NGZ  =672)
  gives a total of  20207 points

 initial charge density was supplied:
 charge density of overlapping atoms calculated
 number of electron      95.0000000 magnetization 
 keeping initial charge density in first step


--------------------------------------------------------------------------------------------------------


 Maximum index for augmentation-charges        22882 (set IRDMAX)


--------------------------------------------------------------------------------------------------------


 First call to EWALD:  gamma=   0.251
 Maximum number of real-space cells 7x 7x 1
 Maximum number of reciprocal cells 1x 1x15

 FEWALD executed in parallel
    FEWALD:  cpu time    0.00: real time    0.00


----------------------------------------- Iteration    1(   1)  ---------------------------------------


    POTLOK:  cpu time    0.11: real time    0.11
    SETDIJ:  cpu time    0.10: real time    0.10
     EDDAV:  cpu time   10.24: real time   10.28
       DOS:  cpu time    0.00: real time    0.00
    --------------------------------------------
      LOOP:  cpu time   10.46: real time   10.49

 eigenvalue-minimisations  :  6100
 total energy-change (2. order) : 0.4772266E+03  (-0.4080651E+04)
 number of electron      95.0000000 magnetization 
 augmentation part       95.0000000 magnetization 

 Free energy of the ion-electron system (eV)
  ---------------------------------------------------
  alpha Z        PSCENC =       115.49412457
  Ewald energy   TEWEN  =     20036.25763124
  -Hartree energ DENC   =    -24733.18747612
  -exchange      EXHF   =         0.00000000
  -V(xc)+E(xc)   XCENC  =      -421.23310689
  PAW double counting   =      4235.41334458    -3509.29226066
  entropy T*S    EENTRO =        -0.00445539
  eigenvalues    EBANDS =       257.41909005
  atomic energy  EATOM  =      4496.35971583
  ---------------------------------------------------
  free energy    TOTEN  =       477.22660720 eV

  energy without entropy =      477.23106259  energy(sigma->0) =      477.22883489


--------------------------------------------------------------------------------------------------------




----------------------------------------- Iteration    1(   2)  ---------------------------------------


     EDDAV:  cpu time   12.29: real time   12.31
       DOS:  cpu time    0.00: real time    0.00
    --------------------------------------------
      LOOP:  cpu time   12.30: real time   12.31

 eigenvalue-minimisations  :  7986
 total energy-change (2. order) :-0.5645113E+03  (-0.5333629E+03)
 number of electron      95.0000000 magnetization 
 augmentation part       95.0000000 magnetization 

 Free energy of the ion-electron system (eV)
  ---------------------------------------------------
  alpha Z        PSCENC =       115.49412457
  Ewald energy   TEWEN  =     20036.25763124
  -Hartree energ DENC   =    -24733.18747612
  -exchange      EXHF   =         0.00000000
  -V(xc)+E(xc)   XCENC  =      -421.23310689
  PAW double counting   =      4235.41334458    -3509.29226066
  entropy T*S    EENTRO =        -0.00445821
  eigenvalues    EBANDS =      -307.09215963
  atomic energy  EATOM  =      4496.35971583
  ---------------------------------------------------
  free energy    TOTEN  =       -87.28464530 eV

  energy without entropy =      -87.28018709  energy(sigma->0) =      -87.28241620


--------------------------------------------------------------------------------------------------------




----------------------------------------- Iteration    1(   3)  ---------------------------------------


     EDDAV:  cpu time   11.37: real time   11.39
       DOS:  cpu time    0.00: real time    0.00
    --------------------------------------------
      LOOP:  cpu time   11.38: real time   11.39

 eigenvalue-minimisations  :  7136
 total energy-change (2. order) :-0.5889463E+02  (-0.5849833E+02)
 number of electron      95.0000000 magnetization 
 augmentation part       95.0000000 magnetization 

 Free energy of the ion-electron system (eV)
  ---------------------------------------------------
  alpha Z        PSCENC =       115.49412457
  Ewald energy   TEWEN  =     20036.25763124
  -Hartree energ DENC   =    -24733.18747612
  -exchange      EXHF   =         0.00000000
  -V(xc)+E(xc)   XCENC  =      -421.23310689
  PAW double counting   =      4235.41334458    -3509.29226066
  entropy T*S    EENTRO =        -0.00582870
  eigenvalues    EBANDS =      -365.98542236
  atomic energy  EATOM  =      4496.35971583
  ---------------------------------------------------
  free energy    TOTEN  =      -146.17927852 eV

  energy without entropy =     -146.17344982  energy(sigma->0) =     -146.17636417


--------------------------------------------------------------------------------------------------------




----------------------------------------- Iteration    1(   4)  ---------------------------------------


     EDDAV:  cpu time   11.07: real time   11.08
       DOS:  cpu time    0.00: real time    0.00
    --------------------------------------------
      LOOP:  cpu time   11.07: real time   11.09

 eigenvalue-minimisations  :  7136
 total energy-change (2. order) :-0.8158380E+00  (-0.8139094E+00)
 number of electron      95.0000000 magnetization 
 augmentation part       95.0000000 magnetization 

 Free energy of the ion-electron system (eV)
  ---------------------------------------------------
  alpha Z        PSCENC =       115.49412457
  Ewald energy   TEWEN  =     20036.25763124
  -Hartree energ DENC   =    -24733.18747612
  -exchange      EXHF   =         0.00000000
  -V(xc)+E(xc)   XCENC  =      -421.23310689
  PAW double counting   =      4235.41334458    -3509.29226066
  entropy T*S    EENTRO =        -0.00552019
  eigenvalues    EBANDS =      -366.80156889
  atomic energy  EATOM  =      4496.35971583
  ---------------------------------------------------
  free energy    TOTEN  =      -146.99511654 eV

  energy without entropy =     -146.98959635  energy(sigma->0) =     -146.99235644


--------------------------------------------------------------------------------------------------------




----------------------------------------- Iteration    1(   5)  ---------------------------------------


     EDDAV:  cpu time   11.10: real time   11.11
       DOS:  cpu time    0.00: real time    0.00
    CHARGE:  cpu time    0.74: real time    0.74
    MIXING:  cpu time    0.00: real time    0.00
    --------------------------------------------
      LOOP:  cpu time   11.84: real time   11.85

 eigenvalue-minimisations  :  7206
 total energy-change (2. order) :-0.1292549E-01  (-0.1291811E-01)
 number of electron      95.0000001 magnetization 
 augmentation part        6.8936741 magnetization 

 Broyden mixing:
  rms(total) = 0.21963E+01    rms(broyden)= 0.21958E+01
  rms(prec ) = 0.22442E+01
  weight for this iteration     100.00

 Free energy of the ion-electron system (eV)
  ---------------------------------------------------
  alpha Z        PSCENC =       115.49412457
  Ewald energy   TEWEN  =     20036.25763124
  -Hartree energ DENC   =    -24733.18747612
  -exchange      EXHF   =         0.00000000
  -V(xc)+E(xc)   XCENC  =      -421.23310689
  PAW double counting   =      4235.41334458    -3509.29226066
  entropy T*S    EENTRO =        -0.00552246
  eigenvalues    EBANDS =      -366.81449211
  atomic energy  EATOM  =      4496.35971583
  ---------------------------------------------------
  free energy    TOTEN  =      -147.00804203 eV

  energy without entropy =     -147.00251957  energy(sigma->0) =     -147.00528080


--------------------------------------------------------------------------------------------------------




----------------------------------------- Iteration    1(   6)  ---------------------------------------


    POTLOK:  cpu time    0.10: real time    0.10
    SETDIJ:  cpu time    0.10: real time    0.10
     EDDAV:  cpu time   11.17: real time   11.18
       DOS:  cpu time    0.00: real time    0.00
    CHARGE:  cpu time    0.72: real time    0.72
    MIXING:  cpu time    0.01: real time    0.01
    --------------------------------------------
      LOOP:  cpu time   12.10: real time   12.11

 eigenvalue-minimisations  :  7166
 total energy-change (2. order) : 0.1444034E+02  (-0.8375193E+01)
 number of electron      95.0000001 magnetization 
 augmentation part        5.5470328 magnetization 

 Broyden mixing:
  rms(total) = 0.75132E+00    rms(broyden)= 0.75038E+00
  rms(prec ) = 0.75765E+00
  weight for this iteration     100.00

 eigenvalues of (default mixing * dielectric matrix)
  average eigenvalue GAMMA=   0.8330
  0.8330

 Free energy of the ion-electron system (eV)
  ---------------------------------------------------
  alpha Z        PSCENC =       115.49412457
  Ewald energy   TEWEN  =     20036.25763124
  -Hartree energ DENC   =    -24910.52481060
  -exchange      EXHF   =         0.00000000
  -V(xc)+E(xc)   XCENC  =      -409.05534519
  PAW double counting   =      4970.77872028    -4247.70915849
  entropy T*S    EENTRO =        -0.00316224
  eigenvalues    EBANDS =      -184.16541411
  atomic energy  EATOM  =      4496.35971583
  ---------------------------------------------------
  free energy    TOTEN  =      -132.56769872 eV

  energy without entropy =     -132.56453648  energy(sigma->0) =     -132.56611760


--------------------------------------------------------------------------------------------------------




----------------------------------------- Iteration    1(   7)  ---------------------------------------


    POTLOK:  cpu time    0.10: real time    0.10
    SETDIJ:  cpu time    0.10: real time    0.10
     EDDAV:  cpu time   10.27: real time   10.28
       DOS:  cpu time    0.00: real time    0.00
    CHARGE:  cpu time    0.72: real time    0.72
    MIXING:  cpu time    0.00: real time    0.00
    --------------------------------------------
      LOOP:  cpu time   11.20: real time   11.21

 eigenvalue-minimisations  :  6748
 total energy-change (2. order) : 0.1009240E+00  (-0.2001101E+00)
 number of electron      95.0000001 magnetization 
 augmentation part        5.5895274 magnetization 

 Broyden mixing:
  rms(total) = 0.46034E+00    rms(broyden)= 0.46033E+00
  rms(prec ) = 0.46477E+00
  weight for this iteration     100.00

 eigenvalues of (default mixing * dielectric matrix)
  average eigenvalue GAMMA=   1.6453
  0.9743  2.3163

 Free energy of the ion-electron system (eV)
  ---------------------------------------------------
  alpha Z        PSCENC =       115.49412457
  Ewald energy   TEWEN  =     20036.25763124
  -Hartree energ DENC   =    -24907.97807807
  -exchange      EXHF   =         0.00000000
  -V(xc)+E(xc)   XCENC  =      -408.80483235
  PAW double counting   =      5205.68741990    -4482.16049193
  entropy T*S    EENTRO =        -0.00548327
  eigenvalues    EBANDS =      -187.31678060
  atomic energy  EATOM  =      4496.35971583
  ---------------------------------------------------
  free energy    TOTEN  =      -132.46677467 eV

  energy without entropy =     -132.46129141  energy(sigma->0) =     -132.46403304


--------------------------------------------------------------------------------------------------------




----------------------------------------- Iteration    1(   8)  ---------------------------------------


    POTLOK:  cpu time    0.10: real time    0.10
    SETDIJ:  cpu time    0.10: real time    0.10
     EDDAV:  cpu time   10.39: real time   10.41
       DOS:  cpu time    0.00: real time    0.00
    CHARGE:  cpu time    0.72: real time    0.72
    MIXING:  cpu time    0.01: real time    0.01
    --------------------------------------------
      LOOP:  cpu time   11.32: real time   11.34

 eigenvalue-minimisations  :  7090
 total energy-change (2. order) : 0.9189420E-01  (-0.5597313E-01)
 number of electron      95.0000001 magnetization 
 augmentation part        5.6500159 magnetization 

 Broyden mixing:
  rms(total) = 0.92050E-01    rms(broyden)= 0.91994E-01
  rms(prec ) = 0.10735E+00
  weight for this iteration     100.00

 eigenvalues of (default mixing * dielectric matrix)
  average eigenvalue GAMMA=   1.3552
  2.4328  0.9228  0.7099

 Free energy of the ion-electron system (eV)
  ---------------------------------------------------
  alpha Z        PSCENC =       115.49412457
  Ewald energy   TEWEN  =     20036.25763124
  -Hartree energ DENC   =    -24912.08806680
  -exchange      EXHF   =         0.00000000
  -V(xc)+E(xc)   XCENC  =      -407.55822849
  PAW double counting   =      5616.37053852    -4892.48847526
  entropy T*S    EENTRO =        -0.00344800
  eigenvalues    EBANDS =      -184.71867208
  atomic energy  EATOM  =      4496.35971583
  ---------------------------------------------------
  free energy    TOTEN  =      -132.37488048 eV

  energy without entropy =     -132.37143247  energy(sigma->0) =     -132.37315647


--------------------------------------------------------------------------------------------------------




----------------------------------------- Iteration    1(   9)  ---------------------------------------


    POTLOK:  cpu time    0.10: real time    0.10
    SETDIJ:  cpu time    0.10: real time    0.10
     EDDAV:  cpu time   10.27: real time   10.28
       DOS:  cpu time    0.00: real time    0.00
    CHARGE:  cpu time    0.72: real time    0.72
    MIXING:  cpu time    0.00: real time    0.00
    --------------------------------------------
      LOOP:  cpu time   11.20: real time   11.21

 eigenvalue-minimisations  :  6984
 total energy-change (2. order) : 0.2454477E-01  (-0.8530580E-02)
 number of electron      95.0000001 magnetization 
 augmentation part        5.6268885 magnetization 

 Broyden mixing:
  rms(total) = 0.54519E-01    rms(broyden)= 0.54518E-01
  rms(prec ) = 0.55417E-01
  weight for this iteration     100.00

 eigenvalues of (default mixing * dielectric matrix)
  average eigenvalue GAMMA=   1.3958
  2.4552  1.0401  1.0401  1.0478

 Free energy of the ion-electron system (eV)
  ---------------------------------------------------
  alpha Z        PSCENC =       115.49412457
  Ewald energy   TEWEN  =     20036.25763124
  -Hartree energ DENC   =    -24916.65634865
  -exchange      EXHF   =         0.00000000
  -V(xc)+E(xc)   XCENC  =      -407.16959797
  PAW double counting   =      5639.92954395    -4916.09517831
  entropy T*S    EENTRO =        -0.00473858
  eigenvalues    EBANDS =      -180.46548779
  atomic energy  EATOM  =      4496.35971583
  ---------------------------------------------------
  free energy    TOTEN  =      -132.35033571 eV

  energy without entropy =     -132.34559712  energy(sigma->0) =     -132.34796642


--------------------------------------------------------------------------------------------------------




----------------------------------------- Iteration    1(  10)  ---------------------------------------


    POTLOK:  cpu time    0.10: real time    0.10
    SETDIJ:  cpu time    0.10: real time    0.10
     EDDAV:  cpu time   10.15: real time   10.16
       DOS:  cpu time    0.00: real time    0.00
    CHARGE:  cpu time    0.72: real time    0.72
    MIXING:  cpu time    0.00: real time    0.00
    --------------------------------------------
      LOOP:  cpu time   11.07: real time   11.08

 eigenvalue-minimisations  :  6880
 total energy-change (2. order) : 0.1833655E-02  (-0.3537774E-02)
 number of electron      95.0000001 magnetization 
 augmentation part        5.6092234 magnetization 

 Broyden mixing:
  rms(total) = 0.24510E-01    rms(broyden)= 0.24492E-01
  rms(prec ) = 0.25405E-01
  weight for this iteration     100.00

 eigenvalues of (default mixing * dielectric matrix)
  average eigenvalue GAMMA=   1.2899
  2.5271  1.7295  0.8873  0.8873  0.4182

 Free energy of the ion-electron system (eV)
  ---------------------------------------------------
  alpha Z        PSCENC =       115.49412457
  Ewald energy   TEWEN  =     20036.25763124
  -Hartree energ DENC   =    -24918.42833841
  -exchange      EXHF   =         0.00000000
  -V(xc)+E(xc)   XCENC  =      -407.02304277
  PAW double counting   =      5630.16840441    -4906.36288640
  entropy T*S    EENTRO =        -0.00436044
  eigenvalues    EBANDS =      -178.80975008
  atomic energy  EATOM  =      4496.35971583
  ---------------------------------------------------
  free energy    TOTEN  =      -132.34850205 eV

  energy without entropy =     -132.34414161  energy(sigma->0) =     -132.34632183


--------------------------------------------------------------------------------------------------------




----------------------------------------- Iteration    1(  11)  ---------------------------------------


    POTLOK:  cpu time    0.10: real time    0.10
    SETDIJ:  cpu time    0.10: real time    0.10
     EDDAV:  cpu time   10.34: real time   10.35
       DOS:  cpu time    0.00: real time    0.00
    CHARGE:  cpu time    0.72: real time    0.72
    MIXING:  cpu time    0.01: real time    0.01
    --------------------------------------------
      LOOP:  cpu time   11.27: real time   11.28

 eigenvalue-minimisations  :  7030
 total energy-change (2. order) :-0.1160940E-02  (-0.5762227E-03)
 number of electron      95.0000001 magnetization 
 augmentation part        5.6059361 magnetization 

 Broyden mixing:
  rms(total) = 0.17307E-01    rms(broyden)= 0.17303E-01
  rms(prec ) = 0.17701E-01
  weight for this iteration     100.00

 eigenvalues of (default mixing * dielectric matrix)
  average eigenvalue GAMMA=   1.3670
  2.7289  2.1896  0.9617  0.7648  0.7784  0.7784

 Free energy of the ion-electron system (eV)
  ---------------------------------------------------
  alpha Z        PSCENC =       115.49412457
  Ewald energy   TEWEN  =     20036.25763124
  -Hartree energ DENC   =    -24919.38985592
  -exchange      EXHF   =         0.00000000
  -V(xc)+E(xc)   XCENC  =      -406.92620402
  PAW double counting   =      5607.74702911    -4883.95713905
  entropy T*S    EENTRO =        -0.00455412
  eigenvalues    EBANDS =      -177.93041064
  atomic energy  EATOM  =      4496.35971583
  ---------------------------------------------------
  free energy    TOTEN  =      -132.34966299 eV

  energy without entropy =     -132.34510888  energy(sigma->0) =     -132.34738594


--------------------------------------------------------------------------------------------------------




----------------------------------------- Iteration    1(  12)  ---------------------------------------


    POTLOK:  cpu time    0.11: real time    0.11
    SETDIJ:  cpu time    0.10: real time    0.10
     EDDAV:  cpu time   12.61: real time   12.62
       DOS:  cpu time    0.00: real time    0.00
    CHARGE:  cpu time    0.73: real time    0.73
    MIXING:  cpu time    0.01: real time    0.01
    --------------------------------------------
      LOOP:  cpu time   13.55: real time   13.56

 eigenvalue-minimisations  :  9068
 total energy-change (2. order) : 0.1079942E-03  (-0.1167010E-03)
 number of electron      95.0000001 magnetization 
 augmentation part        5.6043498 magnetization 

 Broyden mixing:
  rms(total) = 0.93612E-02    rms(broyden)= 0.93606E-02
  rms(prec ) = 0.97627E-02
  weight for this iteration     100.00

 eigenvalues of (default mixing * dielectric matrix)
  average eigenvalue GAMMA=   1.3623
  2.8113  2.4427  0.9317  0.9317  0.8988  0.8988  0.6209

 Free energy of the ion-electron system (eV)
  ---------------------------------------------------
  alpha Z        PSCENC =       115.49412457
  Ewald energy   TEWEN  =     20036.25763124
  -Hartree energ DENC   =    -24919.80226129
  -exchange      EXHF   =         0.00000000
  -V(xc)+E(xc)   XCENC  =      -406.88480121
  PAW double counting   =      5591.92867285    -4868.15274612
  entropy T*S    EENTRO =        -0.00458556
  eigenvalues    EBANDS =      -177.54530532
  atomic energy  EATOM  =      4496.35971583
  ---------------------------------------------------
  free energy    TOTEN  =      -132.34955500 eV

  energy without entropy =     -132.34496944  energy(sigma->0) =     -132.34726222


--------------------------------------------------------------------------------------------------------




----------------------------------------- Iteration    1(  13)  ---------------------------------------


    POTLOK:  cpu time    0.10: real time    0.10
    SETDIJ:  cpu time    0.10: real time    0.10
     EDDAV:  cpu time   10.18: real time   10.19
       DOS:  cpu time    0.00: real time    0.00
    CHARGE:  cpu time    0.73: real time    0.73
    MIXING:  cpu time    0.01: real time    0.01
    --------------------------------------------
      LOOP:  cpu time   11.12: real time   11.13

 eigenvalue-minimisations  :  6878
 total energy-change (2. order) : 0.1104545E-03  (-0.1291138E-03)
 number of electron      95.0000001 magnetization 
 augmentation part        5.6074937 magnetization 

 Broyden mixing:
  rms(total) = 0.29168E-02    rms(broyden)= 0.29107E-02
  rms(prec ) = 0.35936E-02
  weight for this iteration     100.00

 eigenvalues of (default mixing * dielectric matrix)
  average eigenvalue GAMMA=   1.3385
  2.8831  2.4703  1.0226  1.0226  0.9106  0.9106  0.7820  0.7063

 Free energy of the ion-electron system (eV)
  ---------------------------------------------------
  alpha Z        PSCENC =       115.49412457
  Ewald energy   TEWEN  =     20036.25763124
  -Hartree energ DENC   =    -24919.55615751
  -exchange      EXHF   =         0.00000000
  -V(xc)+E(xc)   XCENC  =      -406.90570358
  PAW double counting   =      5583.75165071    -4859.97298064
  entropy T*S    EENTRO =        -0.00460982
  eigenvalues    EBANDS =      -177.77311534
  atomic energy  EATOM  =      4496.35971583
  ---------------------------------------------------
  free energy    TOTEN  =      -132.34944455 eV

  energy without entropy =     -132.34483472  energy(sigma->0) =     -132.34713964


--------------------------------------------------------------------------------------------------------




----------------------------------------- Iteration    1(  14)  ---------------------------------------


    POTLOK:  cpu time    0.10: real time    0.10
    SETDIJ:  cpu time    0.10: real time    0.10
     EDDAV:  cpu time   10.18: real time   10.19
       DOS:  cpu time    0.00: real time    0.00
    CHARGE:  cpu time    0.73: real time    0.73
    MIXING:  cpu time    0.01: real time    0.01
    --------------------------------------------
      LOOP:  cpu time   11.12: real time   11.13

 eigenvalue-minimisations  :  6886
 total energy-change (2. order) : 0.3723280E-04  (-0.2155708E-04)
 number of electron      95.0000001 magnetization 
 augmentation part        5.6084269 magnetization 

 Broyden mixing:
  rms(total) = 0.99696E-03    rms(broyden)= 0.99535E-03
  rms(prec ) = 0.21693E-02
  weight for this iteration     100.00

 eigenvalues of (default mixing * dielectric matrix)
  average eigenvalue GAMMA=   1.3467
  2.8515  2.5257  1.0922  1.0922  1.2385  0.6444  0.8360  0.8360  1.0034

 Free energy of the ion-electron system (eV)
  ---------------------------------------------------
  alpha Z        PSCENC =       115.49412457
  Ewald energy   TEWEN  =     20036.25763124
  -Hartree energ DENC   =    -24919.54891539
  -exchange      EXHF   =         0.00000000
  -V(xc)+E(xc)   XCENC  =      -406.91427083
  PAW double counting   =      5581.87235749    -4858.09271416
  entropy T*S    EENTRO =        -0.00461243
  eigenvalues    EBANDS =      -177.77272363
  atomic energy  EATOM  =      4496.35971583
  ---------------------------------------------------
  free energy    TOTEN  =      -132.34940731 eV

  energy without entropy =     -132.34479489  energy(sigma->0) =     -132.34710110


--------------------------------------------------------------------------------------------------------




----------------------------------------- Iteration    1(  15)  ---------------------------------------


    POTLOK:  cpu time    0.11: real time    0.11
    SETDIJ:  cpu time    0.10: real time    0.10
     EDDAV:  cpu time    8.19: real time    8.20
       DOS:  cpu time    0.00: real time    0.00
    CHARGE:  cpu time    0.72: real time    0.72
    MIXING:  cpu time    0.01: real time    0.01
    --------------------------------------------
      LOOP:  cpu time    9.13: real time    9.14

 eigenvalue-minimisations  :  5008
 total energy-change (2. order) : 0.2638165E-04  (-0.2005202E-05)
 number of electron      95.0000001 magnetization 
 augmentation part        5.6083651 magnetization 

 Broyden mixing:
  rms(total) = 0.91173E-03    rms(broyden)= 0.91168E-03
  rms(prec ) = 0.20298E-02
  weight for this iteration     100.00

 eigenvalues of (default mixing * dielectric matrix)
  average eigenvalue GAMMA=   1.4502
  3.0983  2.6844  2.2645  1.0638  1.0638  0.6550  0.9291  0.9291  0.9067  0.9067

 Free energy of the ion-electron system (eV)
  ---------------------------------------------------
  alpha Z        PSCENC =       115.49412457
  Ewald energy   TEWEN  =     20036.25763124
  -Hartree energ DENC   =    -24919.65743022
  -exchange      EXHF   =         0.00000000
  -V(xc)+E(xc)   XCENC  =      -406.91496435
  PAW double counting   =      5581.71941733    -4857.93952990
  entropy T*S    EENTRO =        -0.00461392
  eigenvalues    EBANDS =      -177.66373152
  atomic energy  EATOM  =      4496.35971583
  ---------------------------------------------------
  free energy    TOTEN  =      -132.34938093 eV

  energy without entropy =     -132.34476701  energy(sigma->0) =     -132.34707397


--------------------------------------------------------------------------------------------------------




----------------------------------------- Iteration    1(  16)  ---------------------------------------


    POTLOK:  cpu time    0.10: real time    0.10
    SETDIJ:  cpu time    0.10: real time    0.10
     EDDAV:  cpu time    8.53: real time    8.54
       DOS:  cpu time    0.00: real time    0.00
    CHARGE:  cpu time    0.72: real time    0.72
    MIXING:  cpu time    0.01: real time    0.01
    --------------------------------------------
      LOOP:  cpu time    9.46: real time    9.47

 eigenvalue-minimisations  :  5318
 total energy-change (2. order) : 0.6613997E-04  (-0.1956508E-05)
 number of electron      95.0000001 magnetization 
 augmentation part        5.6082483 magnetization 

 Broyden mixing:
  rms(total) = 0.94706E-03    rms(broyden)= 0.94698E-03
  rms(prec ) = 0.18256E-02
  weight for this iteration     100.00

 eigenvalues of (default mixing * dielectric matrix)
  average eigenvalue GAMMA=   1.4174
  2.9537  2.5254  2.5254  1.1036  1.1036  1.0562  1.0562  0.6534  0.8751  0.8751
  0.8636

 Free energy of the ion-electron system (eV)
  ---------------------------------------------------
  alpha Z        PSCENC =       115.49412457
  Ewald energy   TEWEN  =     20036.25763124
  -Hartree energ DENC   =    -24919.96527367
  -exchange      EXHF   =         0.00000000
  -V(xc)+E(xc)   XCENC  =      -406.91501386
  PAW double counting   =      5581.45959305    -4857.67863575
  entropy T*S    EENTRO =        -0.00461662
  eigenvalues    EBANDS =      -177.35683958
  atomic energy  EATOM  =      4496.35971583
  ---------------------------------------------------
  free energy    TOTEN  =      -132.34931479 eV

  energy without entropy =     -132.34469817  energy(sigma->0) =     -132.34700648


--------------------------------------------------------------------------------------------------------




----------------------------------------- Iteration    1(  17)  ---------------------------------------


    POTLOK:  cpu time    0.10: real time    0.10
    SETDIJ:  cpu time    0.10: real time    0.10
     EDDAV:  cpu time    9.12: real time    9.13
       DOS:  cpu time    0.00: real time    0.00
    CHARGE:  cpu time    0.72: real time    0.72
    MIXING:  cpu time    0.01: real time    0.01
    --------------------------------------------
      LOOP:  cpu time   10.05: real time   10.06

 eigenvalue-minimisations  :  5880
 total energy-change (2. order) : 0.2431055E-04  (-0.3495896E-05)
 number of electron      95.0000001 magnetization 
 augmentation part        5.6081179 magnetization 

 Broyden mixing:
  rms(total) = 0.10963E-02    rms(broyden)= 0.10962E-02
  rms(prec ) = 0.17281E-02
  weight for this iteration     100.00

 eigenvalues of (default mixing * dielectric matrix)
  average eigenvalue GAMMA=   1.3310
  3.0002  2.5515  2.5515  1.1187  1.1187  1.0621  1.0621  0.8768  0.8768  0.6541
  0.8265  0.2726

 Free energy of the ion-electron system (eV)
  ---------------------------------------------------
  alpha Z        PSCENC =       115.49412457
  Ewald energy   TEWEN  =     20036.25763124
  -Hartree energ DENC   =    -24920.12734670
  -exchange      EXHF   =         0.00000000
  -V(xc)+E(xc)   XCENC  =      -406.91392261
  PAW double counting   =      5582.00975363    -4858.22876144
  entropy T*S    EENTRO =        -0.00461784
  eigenvalues    EBANDS =      -177.19586716
  atomic energy  EATOM  =      4496.35971583
  ---------------------------------------------------
  free energy    TOTEN  =      -132.34929048 eV

  energy without entropy =     -132.34467264  energy(sigma->0) =     -132.34698156


--------------------------------------------------------------------------------------------------------




----------------------------------------- Iteration    1(  18)  ---------------------------------------


    POTLOK:  cpu time    0.10: real time    0.10
    SETDIJ:  cpu time    0.10: real time    0.10
     EDDAV:  cpu time    9.97: real time    9.98
       DOS:  cpu time    0.00: real time    0.00
    CHARGE:  cpu time    0.73: real time    0.73
    MIXING:  cpu time    0.01: real time    0.01
    --------------------------------------------
      LOOP:  cpu time   10.91: real time   10.92

 eigenvalue-minimisations  :  6624
 total energy-change (2. order) : 0.7222879E-04  (-0.5203971E-05)
 number of electron      95.0000001 magnetization 
 augmentation part        5.6079981 magnetization 

 Broyden mixing:
  rms(total) = 0.87863E-03    rms(broyden)= 0.87840E-03
  rms(prec ) = 0.11902E-02
  weight for this iteration     100.00

 eigenvalues of (default mixing * dielectric matrix)
  average eigenvalue GAMMA=   1.7136
  6.5700  2.8182  2.4106  1.9497  1.0468  1.0468  1.1758  1.1758  0.8831  0.8831
  0.6535  0.8520  0.8110

 Free energy of the ion-electron system (eV)
  ---------------------------------------------------
  alpha Z        PSCENC =       115.49412457
  Ewald energy   TEWEN  =     20036.25763124
  -Hartree energ DENC   =    -24920.66357069
  -exchange      EXHF   =         0.00000000
  -V(xc)+E(xc)   XCENC  =      -406.91413627
  PAW double counting   =      5582.02476988    -4858.24375256
  entropy T*S    EENTRO =        -0.00462164
  eigenvalues    EBANDS =      -176.65937861
  atomic energy  EATOM  =      4496.35971583
  ---------------------------------------------------
  free energy    TOTEN  =      -132.34921825 eV

  energy without entropy =     -132.34459661  energy(sigma->0) =     -132.34690743


--------------------------------------------------------------------------------------------------------




----------------------------------------- Iteration    1(  19)  ---------------------------------------


    POTLOK:  cpu time    0.10: real time    0.11
    SETDIJ:  cpu time    0.10: real time    0.10
     EDDAV:  cpu time   11.88: real time   11.90
       DOS:  cpu time    0.00: real time    0.00
    CHARGE:  cpu time    0.72: real time    0.72
    MIXING:  cpu time    0.01: real time    0.01
    --------------------------------------------
      LOOP:  cpu time   12.83: real time   12.85

 eigenvalue-minimisations  :  8404
 total energy-change (2. order) : 0.2802458E-04  (-0.1648492E-04)
 number of electron      95.0000001 magnetization 
 augmentation part        5.6080638 magnetization 

 Broyden mixing:
  rms(total) = 0.36157E-03    rms(broyden)= 0.36025E-03
  rms(prec ) = 0.41290E-03
  weight for this iteration     100.00

 eigenvalues of (default mixing * dielectric matrix)
  average eigenvalue GAMMA=   2.0196
 10.9954  2.8084  2.2694  2.2694  1.8100  1.0793  1.0793  1.0281  1.0281  0.8763
  0.8763  0.6525  0.7510  0.7510

 Free energy of the ion-electron system (eV)
  ---------------------------------------------------
  alpha Z        PSCENC =       115.49412457
  Ewald energy   TEWEN  =     20036.25763124
  -Hartree energ DENC   =    -24921.19491111
  -exchange      EXHF   =         0.00000000
  -V(xc)+E(xc)   XCENC  =      -406.91641771
  PAW double counting   =      5581.84008758    -4858.05854319
  entropy T*S    EENTRO =        -0.00462374
  eigenvalues    EBANDS =      -176.12625369
  atomic energy  EATOM  =      4496.35971583
  ---------------------------------------------------
  free energy    TOTEN  =      -132.34919023 eV

  energy without entropy =     -132.34456648  energy(sigma->0) =     -132.34687836


--------------------------------------------------------------------------------------------------------




----------------------------------------- Iteration    1(  20)  ---------------------------------------


    POTLOK:  cpu time    0.10: real time    0.10
    SETDIJ:  cpu time    0.10: real time    0.10
     EDDAV:  cpu time    9.51: real time    9.52
       DOS:  cpu time    0.00: real time    0.00
    CHARGE:  cpu time    0.74: real time    0.74
    MIXING:  cpu time    0.01: real time    0.01
    --------------------------------------------
      LOOP:  cpu time   10.46: real time   10.47

 eigenvalue-minimisations  :  6258
 total energy-change (2. order) :-0.1775085E-04  (-0.1883707E-04)
 number of electron      95.0000001 magnetization 
 augmentation part        5.6082598 magnetization 

 Broyden mixing:
  rms(total) = 0.11452E-02    rms(broyden)= 0.11446E-02
  rms(prec ) = 0.11705E-02
  weight for this iteration     100.00

 eigenvalues of (default mixing * dielectric matrix)
  average eigenvalue GAMMA=   2.0129
 12.5338  2.8178  2.2847  2.2847  1.8125  1.0892  1.0892  1.0816  1.0180  0.8819
  0.8819  0.6522  0.7588  0.7588  0.2482

 Free energy of the ion-electron system (eV)
  ---------------------------------------------------
  alpha Z        PSCENC =       115.49412457
  Ewald energy   TEWEN  =     20036.25763124
  -Hartree energ DENC   =    -24921.25349365
  -exchange      EXHF   =         0.00000000
  -V(xc)+E(xc)   XCENC  =      -406.91658471
  PAW double counting   =      5581.90038747    -4858.11886413
  entropy T*S    EENTRO =        -0.00462462
  eigenvalues    EBANDS =      -176.06749998
  atomic energy  EATOM  =      4496.35971583
  ---------------------------------------------------
  free energy    TOTEN  =      -132.34920798 eV

  energy without entropy =     -132.34458335  energy(sigma->0) =     -132.34689567


--------------------------------------------------------------------------------------------------------




----------------------------------------- Iteration    1(  21)  ---------------------------------------


    POTLOK:  cpu time    0.10: real time    0.10
    SETDIJ:  cpu time    0.10: real time    0.10
     EDDAV:  cpu time    6.79: real time    6.80
       DOS:  cpu time    0.00: real time    0.00
    --------------------------------------------
      LOOP:  cpu time    7.00: real time    7.01

 eigenvalue-minimisations  :  3714
 total energy-change (2. order) : 0.4674366E-06  (-0.6016959E-06)
 number of electron      95.0000001 magnetization 
 augmentation part        5.6082598 magnetization 

 Free energy of the ion-electron system (eV)
  ---------------------------------------------------
  alpha Z        PSCENC =       115.49412457
  Ewald energy   TEWEN  =     20036.25763124
  -Hartree energ DENC   =    -24921.26116655
  -exchange      EXHF   =         0.00000000
  -V(xc)+E(xc)   XCENC  =      -406.91656450
  PAW double counting   =      5581.86992329    -4858.08836110
  entropy T*S    EENTRO =        -0.00462459
  eigenvalues    EBANDS =      -176.05988570
  atomic energy  EATOM  =      4496.35971583
  ---------------------------------------------------
  free energy    TOTEN  =      -132.34920751 eV

  energy without entropy =     -132.34458292  energy(sigma->0) =     -132.34689522


--------------------------------------------------------------------------------------------------------




 average (electrostatic) potential at core
  the test charge radii are     0.7215  1.0714  1.0406
  (the norm of the test charge is              1.0000)
       1 -70.4910       2 -70.4513       3 -70.4918       4 -70.5972       5 -70.4726
       6 -70.4602       7 -70.4592       8 -70.4727       9 -70.5967      10 -36.4151
[...]
     58       9.8445      0.00000
     59       9.9797      0.00000
     60      10.0098      0.00000
     61      10.1922      0.00000
     62      10.3805      0.00000

 k-point    47 :      -0.3846    0.3846    0.0000
  band No.  band energies     occupation 
      1     -13.8042      2.00000
      2     -13.7766      2.00000
      3     -13.7388      2.00000
      4     -13.6812      2.00000
      5     -13.6156      2.00000
      6     -13.5424      2.00000
      7     -13.4762      2.00000
      8     -13.4197      2.00000
      9     -13.3875      2.00000
     10      -1.7404      2.00000
     11      -1.6344      2.00000
     12      -1.4805      2.00000
     13      -1.4499      2.00000
     14      -1.3509      2.00000
     15      -1.2894      2.00000
     16      -1.2123      2.00000
     17      -1.1134      2.00000
     18      -1.0906      2.00000
     19      -0.4720      2.00000
     20      -0.4544      2.00000
     21      -0.2134      2.00000
     22      -0.0339      2.00000
     23       0.1557      2.00000
     24       0.2879      2.00000
     25       0.5425      2.00000
     26       0.7136      2.00000
     27       0.8629      2.00000
     28       0.9594      2.00000
     29       1.0467      2.00000
     30       1.1784      2.00000
     31       1.2173      2.00000
     32       1.2483      2.00000
     33       1.2704      2.00000
     34       1.3471      2.00000
     35       1.4117      2.00000
     36       1.4335      2.00000
     37       1.4868      2.00000
     38       1.5292      2.00000
     39       1.6168      2.00000
     40       1.6914      2.00000
     41       1.7353      2.00000
     42       2.0119      2.00000
     43       3.0100      2.00000
     44       4.4041      2.00000
     45       4.6251      2.00000
     46       4.8654      2.00000
     47       5.0898      2.00000
     48       5.3457      2.00000
     49       5.6483      1.99960
     50       6.2270      0.00000
     51       6.2956      0.00000
     52       6.8670      0.00000
     53       7.5326      0.00000
     54       7.8970      0.00000
     55       8.6981      0.00000
     56       9.3371      0.00000
     57       9.6792      0.00000
     58       9.7710      0.00000
     59      10.0430      0.00000
     60      10.1804      0.00000
     61      10.3021      0.00000
     62      10.8108      0.00000

 k-point    48 :       0.4615    0.4615   -0.0000
  band No.  band energies     occupation 
      1     -13.5747      2.00000
      2     -13.5662      2.00000
      3     -13.5538      2.00000
      4     -13.5262      2.00000
      5     -13.4953      2.00000
      6     -13.4576      2.00000
      7     -13.4243      2.00000
      8     -13.3935      2.00000
      9     -13.3779      2.00000
     10      -2.0246      2.00000
     11      -1.9167      2.00000
     12      -1.7613      2.00000
     13      -1.5770      2.00000
     14      -1.5631      2.00000
     15      -1.4812      2.00000
     16      -1.4283      2.00000
     17      -1.3722      2.00000
     18      -1.3389      2.00000
     19       0.2381      2.00000
     20       0.2651      2.00000
     21       0.3850      2.00000
     22       0.4732      2.00000
     23       0.5906      2.00000
     24       0.7602      2.00000
     25       0.7620      2.00000
     26       0.9233      2.00000
     27       0.9800      2.00000
     28       1.0258      2.00000
     29       1.0838      2.00000
     30       1.1446      2.00000
     31       1.2605      2.00000
     32       1.3002      2.00000
     33       1.3889      2.00000
     34       1.4493      2.00000
     35       1.5173      2.00000
     36       1.5221      2.00000
     37       1.7955      2.00000
     38       1.8282      2.00000
     39       2.2453      2.00000
     40       2.2585      2.00000
     41       2.5385      2.00000
     42       2.6069      2.00000
     43       2.9442      2.00000
     44       3.0456      2.00000
     45       3.5406      2.00000
     46       3.6300      2.00000
     47       4.0962      2.00000
     48       4.3683      2.00000
     49       5.2009      2.00000
     50       5.3084      2.00000
     51       6.5077      0.00000
     52       6.8711      0.00000
     53       7.1154      0.00000
     54       7.7538      0.00000
     55       8.1497      0.00000
     56       8.6860      0.00000
     57       9.3641      0.00000
     58       9.6830      0.00000
     59       9.8727      0.00000
     60      10.0534      0.00000
     61      10.0655      0.00000
     62      10.2749      0.00000

 k-point    49 :      -0.4615    0.4615   -0.0000
  band No.  band energies     occupation 
      1     -13.6206      2.00000
      2     -13.6076      2.00000
      3     -13.5901      2.00000
      4     -13.5569      2.00000
      5     -13.5191      2.00000
      6     -13.4745      2.00000
      7     -13.4350      2.00000
      8     -13.3994      2.00000
      9     -13.3808      2.00000
     10      -2.0451      2.00000
     11      -1.9367      2.00000
     12      -1.7803      2.00000
     13      -1.5993      2.00000
     14      -1.5932      2.00000
     15      -1.5088      2.00000
     16      -1.4469      2.00000
     17      -1.3884      2.00000
     18      -1.3526      2.00000
     19       0.0584      2.00000
     20       0.1911      2.00000
     21       0.3980      2.00000
     22       0.5931      2.00000
     23       0.6205      2.00000
     24       0.7685      2.00000
     25       0.8629      2.00000
     26       0.9306      2.00000
     27       1.1084      2.00000
     28       1.1474      2.00000
     29       1.1690      2.00000
     30       1.2007      2.00000
     31       1.2778      2.00000
     32       1.3646      2.00000
     33       1.3834      2.00000
     34       1.4051      2.00000
     35       1.4607      2.00000
     36       1.5487      2.00000
     37       1.6237      2.00000
     38       1.6678      2.00000
     39       1.6959      2.00000
     40       2.1270      2.00000
     41       2.5664      2.00000
     42       2.7168      2.00000
     43       3.0109      2.00000
     44       3.2617      2.00000
     45       3.4000      2.00000
     46       3.7497      2.00000
     47       4.2229      2.00000
     48       4.5035      2.00000
     49       4.9666      2.00000
     50       5.9053      0.00019
     51       6.0138      0.00000
     52       6.4769      0.00000
     53       7.2739      0.00000
     54       7.8613      0.00000
     55       8.0379      0.00000
     56       8.8706      0.00000
     57       9.1809      0.00000
     58       9.7706      0.00000
     59       9.8114      0.00000
     60      10.1085      0.00000
     61      10.2441      0.00000
     62      10.8875      0.00000


--------------------------------------------------------------------------------------------------------


 soft charge-density along one line, spin component           1
         0         1         2         3         4         5         6         7         8         9
 total charge-density along one line
 
 pseudopotential strength for first ion, spin component:           1
 12.243   0.000 -14.902   0.000  -0.000   0.000  -0.000   0.000   0.000   0.000   0.000   0.000   0.000   0.000  -0.000   0.000
-14.902   0.000  18.157   0.000   0.000   0.000   0.000   0.000  -0.000   0.000  -0.000   0.000  -0.000   0.000   0.000   0.000
 -0.000   0.000   0.000   0.000  -8.395   0.000  -0.000   0.000  -0.000   0.000  10.068   0.000   0.000   0.000   0.000   0.000
 -0.000   0.000   0.000   0.000  -0.000   0.000  -8.403   0.000   0.000   0.000   0.000   0.000  10.078   0.000  -0.000   0.000
  0.000   0.000  -0.000   0.000  -0.000   0.000   0.000   0.000  -8.395   0.000   0.000   0.000  -0.000   0.000  10.068   0.000
  0.000   0.000  -0.000   0.000  10.068   0.000   0.000   0.000   0.000   0.000 -11.916   0.000  -0.000   0.000  -0.000   0.000
  0.000   0.000  -0.000   0.000   0.000   0.000  10.078   0.000  -0.000   0.000  -0.000   0.000 -11.930   0.000   0.000   0.000
 -0.000   0.000   0.000   0.000   0.000   0.000  -0.000   0.000  10.068   0.000  -0.000   0.000   0.000   0.000 -11.916   0.000
 total augmentation occupancy for first ion, spin component:           1
  2.585   0.354   0.000  -0.000  -0.000  -0.000  -0.000   0.000
  0.354   0.066   0.000   0.000  -0.000  -0.000  -0.000   0.000
  0.000   0.000   2.148   0.000  -0.000   0.253   0.000   0.000
 -0.000   0.000   0.000   2.141  -0.000   0.000   0.261  -0.000
 -0.000  -0.000  -0.000  -0.000   2.148   0.000  -0.000   0.253
 -0.000  -0.000   0.253   0.000   0.000   0.032   0.000   0.000
 -0.000  -0.000   0.000   0.261  -0.000   0.000   0.034  -0.000
  0.000   0.000   0.000  -0.000   0.253   0.000  -0.000   0.032


------------------------ aborting loop because EDIFF is reached ----------------------------------------


    CHARGE:  cpu time    0.72: real time    0.72
    FORLOC:  cpu time    0.03: real time    0.03
    FORNL :  cpu time    6.55: real time    6.55
    STRESS:  cpu time    7.24: real time    7.25
    FORCOR:  cpu time    0.14: real time    0.14
    FORHAR:  cpu time    0.06: real time    0.06
    MIXING:  cpu time    0.00: real time    0.00
    OFIELD:  cpu time    0.00: real time    0.00

  FORCE on cell =-STRESS in cart. coord.  units (eV):
  Direction    XX          YY          ZZ          XY          YZ          ZX
  --------------------------------------------------------------------------------------
  Alpha Z   115.49412   115.49412   115.49412
  Ewald   23272.88307 23263.67131-25709.63503     7.97785  -849.06352   490.20704
  Hartree 24844.48959 24834.92127-23973.81931     8.28635  -846.82924   488.91727
  E(xc)    -386.12775  -386.13378  -385.71178     0.00521     0.00251    -0.00145
  Local  -49245.91445-49227.12304 48555.39700   -16.27359  1695.93768  -979.15031
  n-local   -28.24361   -35.67297   -35.17688    -2.19130     1.47257     2.60903
  augment    52.90604    52.90829    52.26694    -0.00198    -0.01338     0.00775
  Kinetic  1384.20943  1355.66499  1357.45865    -8.30851     0.42715     1.34152
  Fock        0.00000     0.00000     0.00000     0.00000     0.00000     0.00000
  -------------------------------------------------------------------------------------
  Total      -8.34015    -8.23323   -23.72629    -0.09259    -0.25173     0.14534
  in kB     -38.16766   -37.67837  -108.58044    -0.42372    -1.15202     0.66512
  external pressure =      -61.48 kB  Pullay stress =        0.00 kB


 VOLUME and BASIS-vectors are now :
 -----------------------------------------------------------------------------
  energy-cutoff  :      520.00
  volume of cell :      350.10
      direct lattice vectors                 reciprocal lattice vectors
     2.592590006 -1.495275227  0.051895165     0.385649516 -0.000234402 -0.003498879
     0.001348276  2.992885737 -0.051895149     0.192621760  0.334099580  0.003498879
     0.408967606 -0.708352458 45.124218679    -0.000221992  0.000384501  0.022169096

  length of vectors
     2.993336608  2.993335925 45.131631137     0.385665459  0.385665547  0.022173542


 FORCES acting on ions
    electron-ion (+dipol)            ewald-force                    non-local-force                 convergence-correction
 -----------------------------------------------------------------------------------------------
   -.112E+02 0.193E+02 0.112E+04   0.112E+02 -.193E+02 -.112E+04   -.427E-05 0.739E-05 0.194E-01   -.806E-03 0.140E-02 0.885E-01
   0.941E-04 -.163E-03 -.629E-02   -.380E-04 0.659E-04 -.135E-03   -.331E-05 0.574E-05 0.640E-03   -.654E-04 0.113E-03 0.661E-02
   0.112E+02 -.193E+02 -.112E+04   -.112E+02 0.193E+02 0.112E+04   0.808E-05 -.140E-04 -.198E-01   0.834E-03 -.144E-02 -.905E-01
   -.148E+02 0.257E+02 0.148E+04   0.149E+02 -.257E+02 -.148E+04   -.850E-02 0.147E-01 0.859E+00   -.739E-03 0.128E-02 0.760E-01
   -.745E+01 0.129E+02 0.744E+03   0.745E+01 -.129E+02 -.744E+03   -.729E-04 0.126E-03 0.210E-01   -.640E-03 0.111E-02 0.736E-01
   -.373E+01 0.646E+01 0.372E+03   0.373E+01 -.646E+01 -.372E+03   0.220E-03 -.381E-03 -.171E-01   -.289E-03 0.500E-03 0.358E-01
   0.373E+01 -.646E+01 -.372E+03   -.373E+01 0.646E+01 0.372E+03   -.215E-03 0.372E-03 0.168E-01   0.160E-03 -.277E-03 -.234E-01
   0.745E+01 -.129E+02 -.744E+03   -.745E+01 0.129E+02 0.744E+03   0.831E-04 -.144E-03 -.214E-01   0.593E-03 -.103E-02 -.684E-01
   0.148E+02 -.257E+02 -.148E+04   -.149E+02 0.257E+02 0.148E+04   0.850E-02 -.147E-01 -.860E+00   0.759E-03 -.131E-02 -.810E-01
   -.542E+01 0.939E+01 0.539E+03   0.542E+01 -.938E+01 -.539E+03   0.353E-02 -.612E-02 -.194E+00   -.226E-03 0.391E-03 0.226E-01
   -.186E+01 0.323E+01 0.186E+03   0.186E+01 -.323E+01 -.186E+03   0.378E-03 -.654E-03 -.808E-02   -.197E-03 0.341E-03 0.196E-01
   0.186E+01 -.323E+01 -.186E+03   -.186E+01 0.323E+01 0.186E+03   -.365E-03 0.632E-03 0.733E-02   0.166E-03 -.288E-03 -.166E-01
   0.542E+01 -.939E+01 -.539E+03   -.542E+01 0.938E+01 0.539E+03   -.355E-02 0.616E-02 0.194E+00   0.245E-03 -.425E-03 -.245E-01
   -.435E+01 0.753E+01 0.434E+03   0.435E+01 -.753E+01 -.434E+03   0.654E-03 -.113E-02 -.361E-01   -.286E-03 0.495E-03 0.285E-01
   -.310E+01 0.538E+01 0.310E+03   0.310E+01 -.538E+01 -.310E+03   0.606E-03 -.105E-02 -.159E-01   -.280E-03 0.485E-03 0.279E-01
   -.622E+00 0.108E+01 0.621E+02   0.622E+00 -.108E+01 -.621E+02   0.169E-03 -.292E-03 -.854E-02   -.851E-04 0.147E-03 0.849E-02
   0.622E+00 -.108E+01 -.621E+02   -.622E+00 0.108E+01 0.621E+02   -.147E-03 0.255E-03 0.686E-02   0.360E-04 -.623E-04 -.358E-02
   0.310E+01 -.538E+01 -.310E+03   -.310E+01 0.538E+01 0.310E+03   -.603E-03 0.104E-02 0.162E-01   0.277E-03 -.479E-03 -.276E-01
   0.435E+01 -.753E+01 -.434E+03   -.435E+01 0.753E+01 0.434E+03   -.676E-03 0.117E-02 0.375E-01   0.300E-03 -.519E-03 -.299E-01
   -.169E-03 0.294E-03 0.734E-02   0.119E-03 -.206E-03 -.662E-02   0.434E-04 -.751E-04 -.116E-04   0.707E-05 -.122E-04 -.706E-03
   -.610E+01 0.106E+02 0.609E+03   0.609E+01 -.105E+02 -.608E+03   0.128E-01 -.221E-01 -.132E+01   -.294E-03 0.509E-03 0.293E-01
   -.391E+01 0.676E+01 0.390E+03   0.391E+01 -.677E+01 -.390E+03   -.148E-02 0.256E-02 0.722E-01   -.241E-03 0.418E-03 0.241E-01
   -.182E+01 0.315E+01 0.182E+03   0.182E+01 -.316E+01 -.182E+03   -.467E-02 0.810E-02 0.293E+00   -.146E-03 0.252E-03 0.145E-01
   0.610E+01 -.106E+02 -.609E+03   -.609E+01 0.105E+02 0.608E+03   -.129E-01 0.223E-01 0.132E+01   0.318E-03 -.551E-03 -.318E-01
   0.182E+01 -.315E+01 -.182E+03   -.182E+01 0.316E+01 0.182E+03   0.464E-02 -.803E-02 -.293E+00   0.161E-03 -.279E-03 -.161E-01
   0.391E+01 -.676E+01 -.390E+03   -.391E+01 0.677E+01 0.390E+03   0.152E-02 -.262E-02 -.723E-01   0.260E-03 -.451E-03 -.260E-01
 -----------------------------------------------------------------------------------------------
   0.177E-03 -.307E-03 -.149E-01   -.564E-13 -.107E-13 0.114E-12   -.203E-04 0.351E-04 -.643E-03   -.177E-03 0.306E-03 0.157E-01
 
 
 POSITION                                       TOTAL-FORCE (eV/Angst)
 -----------------------------------------------------------------------------------
      1.58644      0.24743     16.12018         0.000119     -0.000205     -0.002094
      1.51203      0.37631     23.72580        -0.000012      0.000021      0.000818
      1.43761      0.50520     31.33146        -0.000112      0.000194      0.001375
      0.74776      1.70005     13.55280         0.000143     -0.000248     -0.012861
      2.42525     -1.20543     18.68999        -0.000043      0.000075      0.015476
      0.67296      1.82962     21.15783         0.000136     -0.000236     -0.008164
      2.35110     -1.07700     26.29380        -0.000148      0.000256      0.008764
      0.59881      1.95805     28.76166         0.000037     -0.000065     -0.015392
      2.27629     -0.94742     33.89883        -0.000139      0.000242      0.012313
      1.62437      0.18173     12.28421        -0.000148      0.000257      0.010794
      1.54907      0.31215     19.92465         0.000203     -0.000351     -0.005372
      1.47499      0.44047     27.52706        -0.000194      0.000335      0.004912
      1.39969      0.57089     35.16733         0.000147     -0.000254     -0.010763
      2.46271     -1.27032     14.88680        -0.000076      0.000131      0.014884
      0.71017      1.76517     17.35454         0.000337     -0.000584     -0.011598
      2.38810     -1.14109     22.49440         0.000182     -0.000316     -0.014238
      0.63596      1.89371     24.95737        -0.000165      0.000286      0.012881
      2.31388     -1.01254     30.09709        -0.000333      0.000577      0.011620
      0.56134      2.02294     32.56470         0.000058     -0.000101     -0.013312
      2.60299     -1.51328      1.21564         0.000001     -0.000001     -0.000006
      2.51472     -1.36039      9.61568         0.000202     -0.000350     -0.005149
      1.67875      0.08754      6.67509        -0.000302      0.000524      0.012668
      0.84822      1.52606      3.80550        -0.000092      0.000159      0.013531
      0.50932      2.11306     37.83585        -0.000199      0.000345      0.005162
      2.17557     -0.77297     43.64621         0.000095     -0.000165     -0.013565
      1.34505      0.66553     40.77659         0.000303     -0.000525     -0.012684
 -----------------------------------------------------------------------------------
    total drift:                               -0.000020      0.000034      0.000180


--------------------------------------------------------------------------------------------------------



  FREE ENERGIE OF THE ION-ELECTRON SYSTEM (eV)
  ---------------------------------------------------
  free  energy   TOTEN  =      -132.36277802 eV

  energy  without entropy=     -132.35811819  energy(sigma->0) =     -132.36044810
 
 d Force = 0.2031084E-03[ 0.126E-03, 0.280E-03]  d Energy = 0.1975267E-03 0.558E-05
 d Force =-0.7029969E+01[-0.703E+01,-0.703E+01]  d Ewald  =-0.7029970E+01 0.239E-06


--------------------------------------------------------------------------------------------------------


    POTLOK:  cpu time    0.20: real time    0.20


--------------------------------------------------------------------------------------------------------


 Conjugate gradient step on ions:
 trial-energy change:   -0.000198  1 .order   -0.000203   -0.000280   -0.000126
  (g-gl).g = 0.221E-03      g.g   = 0.235E-03  gl.gl    = 0.398E-03
 g(Force)  = 0.235E-03   g(Stress)= 0.000E+00 ortho     = 0.190E-05
 gamma     =   0.55577
 trial     =   1.18459
 opt step  =   2.15910  (harmonic =   2.15910) maximal distance =0.00381172
 next E    =  -132.362836   (d E  =  -0.00026)


--------------------------------------------------------------------------------------------------------


  
 reached required accuracy - stopping structural energy minimisation
     LOOP+:  cpu time   68.01: real time   68.07
    4ORBIT:  cpu time    0.00: real time    0.00

 total amount of memory used by VASP on root node   207625. kBytes
========================================================================

   base      :      30000. kBytes
   nonl-proj :      37155. kBytes
   fftplans  :      57937. kBytes
   grid      :      23224. kBytes
   one-center:         56. kBytes
   wavefun   :      59253. kBytes
 
  
  
 General timing and accounting informations for this job:
 ========================================================
  
                  Total CPU time used (sec):     2622.617
                            User time (sec):     2606.568
                          System time (sec):       16.048
                         Elapsed time (sec):     2625.560
  
                   Maximum memory used (kb):      316920.
                   Average memory used (kb):           0.
  
                          Minor page faults:       653733
                          Major page faults:            0
                 Voluntary context switches:          498
