       N       E                     dE             d eps       ncg     rms          rms(c)
DAV:   1     0.555841882549E+03    0.55584E+03   -0.44907E+04  2788   0.134E+03
DAV:   2    -0.895227635621E+02   -0.64536E+03   -0.61077E+03  3604   0.259E+02
DAV:   3    -0.159581054134E+03   -0.70058E+02   -0.69674E+02  3256   0.924E+01
DAV:   4    -0.160886999316E+03   -0.13059E+01   -0.13033E+01  3208   0.137E+01
DAV:   5    -0.160917478076E+03   -0.30479E-01   -0.30455E-01  3454   0.203E+00    0.232E+01
DAV:   6    -0.144410262909E+03    0.16507E+02   -0.92905E+01  3124   0.302E+01    0.775E+00
DAV:   7    -0.144257715636E+03    0.15255E+00   -0.18920E+00  3004   0.511E+00    0.478E+00
DAV:   8    -0.144200570416E+03    0.57145E-01   -0.72659E-01  3094   0.379E+00    0.112E+00
DAV:   9    -0.144128431392E+03    0.72139E-01   -0.25929E-01  3090   0.119E+00    0.620E-01
DAV:  10    -0.144123812757E+03    0.46186E-02   -0.35252E-02  3316   0.836E-01    0.256E-01
DAV:  11    -0.144126956105E+03   -0.31433E-02   -0.12180E-02  3146   0.434E-01    0.198E-01
DAV:  12    -0.144126874827E+03    0.81278E-04   -0.16627E-03  3678   0.244E-01    0.947E-02
DAV:  13    -0.144126920960E+03   -0.46133E-04   -0.17261E-03  3218   0.189E-01    0.269E-02
DAV:  14    -0.144126971471E+03   -0.50511E-04   -0.22308E-04  3046   0.663E-02    0.188E-02
DAV:  15    -0.144126978828E+03   -0.73573E-05   -0.85395E-05  2946   0.414E-02
   1 F= -.14412698E+03 E0= -.14412263E+03  d E =-.144127E+03
       N       E                     dE             d eps       ncg     rms          rms(c)
DAV:   1    -0.144128725065E+03   -0.17536E-02   -0.15468E-02  2906   0.542E-01    0.431E-02
DAV:   2    -0.144128812765E+03   -0.87700E-04   -0.11434E-03  3242   0.139E-01    0.415E-02
DAV:   3    -0.144128688989E+03    0.12378E-03   -0.15555E-04  2964   0.427E-02    0.221E-02
DAV:   4    -0.144128686346E+03    0.26430E-05   -0.14859E-05  2398   0.155E-02    0.165E-02
DAV:   5    -0.144128686165E+03    0.18016E-06   -0.96980E-06  1932   0.226E-02    0.858E-03
DAV:   6    -0.144128694603E+03   -0.84376E-05   -0.15949E-05  2194   0.440E-02
   2 F= -.14412869E+03 E0= -.14412443E+03  d E =-.171577E-02
       N       E                     dE             d eps       ncg     rms          rms(c)
DAV:   1    -0.144131600338E+03   -0.29142E-02   -0.14012E-01  2880   0.162E+00    0.126E-01
DAV:   2    -0.144132064849E+03   -0.46451E-03   -0.93736E-03  3212   0.382E-01    0.112E-01
DAV:   3    -0.144131139625E+03    0.92522E-03   -0.11601E-03  3032   0.114E-01    0.583E-02
DAV:   4    -0.144131098282E+03    0.41343E-04   -0.13251E-04  3238   0.414E-02    0.428E-02
DAV:   5    -0.144131047485E+03    0.50797E-04   -0.41781E-05  3076   0.358E-02    0.253E-02
DAV:   6    -0.144131006755E+03    0.40730E-04   -0.11510E-04  3304   0.826E-02    0.100E-02
DAV:   7    -0.144131014788E+03   -0.80332E-05   -0.63204E-05  3090   0.486E-02
   3 F= -.14413101E+03 E0= -.14412687E+03  d E =-.403596E-02
       N       E                     dE             d eps       ncg     rms          rms(c)
DAV:   1    -0.144131975809E+03   -0.96905E-03   -0.31824E-02  2854   0.777E-01    0.351E-02
DAV:   2    -0.144132060563E+03   -0.84754E-04   -0.94219E-04  3062   0.118E-01    0.240E-02
DAV:   3    -0.144132019455E+03    0.41108E-04   -0.59828E-05  2384   0.221E-02    0.120E-02
DAV:   4    -0.144132021367E+03   -0.19122E-05   -0.68585E-06  1964   0.114E-02    0.786E-03
DAV:   5    -0.144132034164E+03   -0.12797E-04   -0.55723E-06  1742   0.147E-02    0.274E-03
DAV:   6    -0.144132046140E+03   -0.11976E-04   -0.30770E-06  1686   0.117E-02    0.209E-03
DAV:   7    -0.144132062088E+03   -0.15948E-04   -0.17869E-06  1756   0.114E-02    0.153E-03
DAV:   8    -0.144132076487E+03   -0.14399E-04   -0.12978E-06  1592   0.901E-03    0.119E-03
DAV:   9    -0.144132120300E+03   -0.43813E-04   -0.41698E-06  1946   0.216E-02    0.180E-03
DAV:  10    -0.144132148411E+03   -0.28110E-04   -0.36227E-06  1656   0.145E-02    0.193E-03
DAV:  11    -0.144132160574E+03   -0.12164E-04   -0.32021E-06  1656   0.931E-03    0.207E-03
DAV:  12    -0.144132180381E+03   -0.19806E-04   -0.87133E-07  1672   0.942E-03    0.197E-03
DAV:  13    -0.144132233953E+03   -0.53572E-04   -0.35460E-06  1942   0.225E-02    0.995E-04
DAV:  14    -0.144132253324E+03   -0.19371E-04   -0.26181E-06  1592   0.960E-03    0.717E-04
DAV:  15    -0.144132266996E+03   -0.13672E-04   -0.98889E-07  1584   0.706E-03    0.613E-04
DAV:  16    -0.144132289365E+03   -0.22369E-04   -0.69074E-07  1608   0.840E-03    0.542E-04
DAV:  17    -0.144132301429E+03   -0.12064E-04   -0.56072E-07  1544   0.475E-03    0.269E-04
DAV:  18    -0.144132304950E+03   -0.35209E-05   -0.27794E-07  1464   0.232E-03
   4 F= -.14413230E+03 E0= -.14412820E+03  d E =-.129016E-02
       N       E                     dE             d eps       ncg     rms          rms(c)
DAV:   1    -0.144134289128E+03   -0.19877E-02   -0.28665E-01  2828   0.234E+00    0.971E-02
DAV:   2    -0.144134975627E+03   -0.68650E-03   -0.84007E-03  3080   0.355E-01    0.722E-02
DAV:   3    -0.144134588328E+03    0.38730E-03   -0.49014E-04  3000   0.699E-02    0.378E-02
DAV:   4    -0.144134563788E+03    0.24540E-04   -0.62166E-05  3110   0.387E-02    0.271E-02
DAV:   5    -0.144134543616E+03    0.20172E-04   -0.19778E-05  2064   0.414E-02    0.137E-02
DAV:   6    -0.144134531231E+03    0.12385E-04   -0.31658E-05  2528   0.580E-02    0.434E-03
DAV:   7    -0.144134527785E+03    0.34459E-05   -0.26808E-05  2324   0.460E-02
   5 F= -.14413453E+03 E0= -.14413036E+03  d E =-.351300E-02
       N       E                     dE             d eps       ncg     rms          rms(c)
DAV:   1    -0.144134787949E+03   -0.25672E-03   -0.11465E+00  2836   0.467E+00    0.195E-01
DAV:   2    -0.144137470509E+03   -0.26826E-02   -0.33258E-02  3082   0.711E-01    0.147E-01
DAV:   3    -0.144135979459E+03    0.14911E-02   -0.18552E-03  3008   0.143E-01    0.784E-02
DAV:   4    -0.144135821451E+03    0.15801E-03   -0.24542E-04  3308   0.822E-02    0.561E-02
DAV:   5    -0.144135693027E+03    0.12842E-03   -0.94293E-05  3396   0.978E-02    0.281E-02
DAV:   6    -0.144135581298E+03    0.11173E-03   -0.12927E-04  3416   0.135E-01    0.102E-02
DAV:   7    -0.144135526651E+03    0.54648E-04   -0.13502E-04  3228   0.106E-01    0.108E-02
DAV:   8    -0.144135498762E+03    0.27889E-04   -0.68524E-05  2768   0.560E-02    0.120E-02
DAV:   9    -0.144135437425E+03    0.61337E-04   -0.19984E-05  2266   0.693E-02    0.742E-03
DAV:  10    -0.144135287087E+03    0.15034E-03   -0.25231E-04  4054   0.300E-01    0.315E-02
DAV:  11    -0.144135283246E+03    0.38418E-05   -0.22373E-04  2850   0.577E-02    0.133E-02
DAV:  12    -0.144135273598E+03    0.96478E-05   -0.40794E-05  2814   0.586E-02
   6 F= -.14413527E+03 E0= -.14413086E+03  d E =-.425881E-02
       N       E                     dE             d eps       ncg     rms          rms(c)
DAV:   1    -0.144135397475E+03   -0.11423E-03   -0.96183E-02  2844   0.137E+00    0.661E-02
DAV:   2    -0.144135724303E+03   -0.32683E-03   -0.39170E-03  3074   0.244E-01    0.526E-02
DAV:   3    -0.144135568208E+03    0.15610E-03   -0.17477E-04  2894   0.527E-02    0.303E-02
DAV:   4    -0.144135558988E+03    0.92201E-05   -0.40381E-05  2836   0.300E-02    0.206E-02
DAV:   5    -0.144135549129E+03    0.98591E-05   -0.73045E-06  1848   0.267E-02    0.128E-02
DAV:   6    -0.144135542012E+03    0.71165E-05   -0.23940E-05  2402   0.463E-02
   7 F= -.14413554E+03 E0= -.14413122E+03  d E =-.452722E-02
       N       E                     dE             d eps       ncg     rms          rms(c)
DAV:   1    -0.144136501171E+03   -0.95204E-03   -0.40467E-01  2916   0.270E+00    0.924E-02
DAV:   2    -0.144137375797E+03   -0.87463E-03   -0.10255E-02  3032   0.390E-01    0.560E-02
DAV:   3    -0.144137253789E+03    0.12201E-03   -0.23534E-04  3040   0.575E-02    0.405E-02
DAV:   4    -0.144137209018E+03    0.44772E-04   -0.57430E-05  2992   0.399E-02    0.277E-02
DAV:   5    -0.144137133366E+03    0.75652E-04   -0.84738E-05  3018   0.774E-02    0.982E-03
DAV:   6    -0.144137112545E+03    0.20821E-04   -0.61782E-05  3064   0.468E-02    0.110E-02
DAV:   7    -0.144137093327E+03    0.19218E-04   -0.16088E-05  1962   0.294E-02    0.551E-03
DAV:   8    -0.144137049710E+03    0.43618E-04   -0.92094E-06  2074   0.658E-02    0.658E-03
DAV:   9    -0.144136986710E+03    0.62999E-04   -0.42784E-05  3170   0.118E-01    0.628E-03
DAV:  10    -0.144136918865E+03    0.67845E-04   -0.11165E-04  3762   0.205E-01    0.611E-03
DAV:  11    -0.144136908390E+03    0.10475E-04   -0.13901E-04  3724   0.153E-01    0.529E-03
DAV:  12    -0.144136924083E+03   -0.15694E-04   -0.15756E-04  2884   0.411E-02    0.120E-02
DAV:  13    -0.144136924125E+03   -0.41285E-07   -0.17534E-06  1660   0.501E-03
   8 F= -.14413692E+03 E0= -.14413249E+03  d E =-.138211E-02
       N       E                     dE             d eps       ncg     rms          rms(c)
DAV:   1    -0.144136990876E+03   -0.66793E-04   -0.14426E-01  2932   0.162E+00    0.532E-02
DAV:   2    -0.144137307339E+03   -0.31646E-03   -0.36734E-03  3056   0.234E-01    0.350E-02
DAV:   3    -0.144137265785E+03    0.41554E-04   -0.82895E-05  2960   0.339E-02    0.256E-02
DAV:   4    -0.144137252082E+03    0.13703E-04   -0.18553E-05  2108   0.234E-02    0.180E-02
DAV:   5    -0.144137229115E+03    0.22966E-04   -0.34681E-05  2720   0.459E-02    0.635E-03
DAV:   6    -0.144137224161E+03    0.49543E-05   -0.20852E-05  2194   0.237E-02
   9 F= -.14413722E+03 E0= -.14413270E+03  d E =-.168215E-02
       N       E                     dE             d eps       ncg     rms          rms(c)
DAV:   1    -0.144135982229E+03    0.12469E-02   -0.57694E-01  2916   0.325E+00    0.111E-01
DAV:   2    -0.144137232156E+03   -0.12499E-02   -0.14827E-02  3064   0.471E-01    0.670E-02
DAV:   3    -0.144137068309E+03    0.16385E-03   -0.30239E-04  3058   0.695E-02    0.502E-02
DAV:   4    -0.144136992304E+03    0.76005E-04   -0.94685E-05  3082   0.514E-02    0.346E-02
DAV:   5    -0.144136844355E+03    0.14795E-03   -0.14185E-04  3250   0.105E-01    0.137E-02
DAV:   6    -0.144136803125E+03    0.41230E-04   -0.11138E-04  3144   0.624E-02    0.154E-02
DAV:   7    -0.144136767609E+03    0.35516E-04   -0.32167E-05  2672   0.386E-02    0.797E-03
DAV:   8    -0.144136664509E+03    0.10310E-03   -0.21050E-05  2384   0.101E-01    0.948E-03
DAV:   9    -0.144136512466E+03    0.15204E-03   -0.11389E-04  3628   0.194E-01    0.117E-02
DAV:  10    -0.144136393636E+03    0.11883E-03   -0.21918E-04  4114   0.252E-01    0.777E-03
DAV:  11    -0.144136373733E+03    0.19902E-04   -0.28004E-04  3756   0.198E-01    0.103E-02
DAV:  12    -0.144136392579E+03   -0.18846E-04   -0.23934E-04  3002   0.560E-02    0.154E-02
DAV:  13    -0.144136392582E+03   -0.21901E-08   -0.10699E-05  1694   0.123E-02
  10 F= -.14413639E+03 E0= -.14413169E+03  d E =-.850569E-03
       N       E                     dE             d eps       ncg     rms          rms(c)
DAV:   1    -0.144136637604E+03   -0.24502E-03   -0.39943E-01  2932   0.266E+00    0.962E-02
DAV:   2    -0.144137534504E+03   -0.89690E-03   -0.10533E-02  3024   0.383E-01    0.549E-02
DAV:   3    -0.144137423153E+03    0.11135E-03   -0.20327E-04  3070   0.556E-02    0.401E-02
DAV:   4    -0.144137383732E+03    0.39422E-04   -0.66835E-05  3078   0.398E-02    0.267E-02
DAV:   5    -0.144137317978E+03    0.65754E-04   -0.83745E-05  3132   0.662E-02    0.897E-03
DAV:   6    -0.144137302459E+03    0.15519E-04   -0.45992E-05  2982   0.371E-02    0.892E-03
DAV:   7    -0.144137279575E+03    0.22884E-04   -0.14729E-05  2052   0.342E-02    0.550E-03
DAV:   8    -0.144137255183E+03    0.24392E-04   -0.71699E-06  1948   0.417E-02    0.710E-03
DAV:   9    -0.144137214281E+03    0.40903E-04   -0.38110E-05  2854   0.898E-02    0.702E-03
DAV:  10    -0.144137165429E+03    0.48852E-04   -0.58763E-05  3454   0.140E-01    0.865E-03
DAV:  11    -0.144137151751E+03    0.13677E-04   -0.91167E-05  3488   0.105E-01    0.820E-03
DAV:  12    -0.144137156960E+03   -0.52091E-05   -0.77616E-05  2730   0.383E-02
  11 F= -.14413716E+03 E0= -.14413261E+03  d E =-.161495E-02
       N       E                     dE             d eps       ncg     rms          rms(c)
DAV:   1    -0.144137997977E+03   -0.84623E-03   -0.11617E-01  2872   0.144E+00    0.492E-02
DAV:   2    -0.144138218463E+03   -0.22049E-03   -0.26819E-03  3032   0.201E-01    0.267E-02
DAV:   3    -0.144138200646E+03    0.17817E-04   -0.46038E-05  2822   0.327E-02    0.193E-02
DAV:   4    -0.144138193682E+03    0.69641E-05   -0.17260E-05  2012   0.199E-02    0.131E-02
DAV:   5    -0.144138186031E+03    0.76510E-05   -0.19025E-05  2236   0.301E-02    0.452E-03
DAV:   6    -0.144138186046E+03   -0.14667E-07   -0.10721E-05  1634   0.158E-02
  12 F= -.14413819E+03 E0= -.14413364E+03  d E =-.102909E-02
       N       E                     dE             d eps       ncg     rms          rms(c)
DAV:   1    -0.144138540486E+03   -0.35445E-03   -0.10449E+00  2836   0.433E+00    0.144E-01
DAV:   2    -0.144140507166E+03   -0.19667E-02   -0.24009E-02  3020   0.605E-01    0.811E-02
DAV:   3    -0.144140356289E+03    0.15088E-03   -0.43922E-04  3270   0.972E-02    0.590E-02
DAV:   4    -0.144140301396E+03    0.54893E-04   -0.15530E-04  3102   0.568E-02    0.398E-02
DAV:   5    -0.144140241775E+03    0.59621E-04   -0.13967E-04  3168   0.711E-02    0.149E-02
DAV:   6    -0.144140239590E+03    0.21846E-05   -0.62982E-05  2946   0.412E-02
  13 F= -.14414024E+03 E0= -.14413569E+03  d E =-.308263E-02
       N       E                     dE             d eps       ncg     rms          rms(c)
DAV:   1    -0.144132791324E+03    0.74505E-02   -0.41810E+00  2820   0.869E+00    0.287E-01
DAV:   2    -0.144140662910E+03   -0.78716E-02   -0.96456E-02  3020   0.122E+00    0.163E-01
DAV:   3    -0.144140057774E+03    0.60514E-03   -0.16588E-03  3264   0.193E-01    0.117E-01
DAV:   4    -0.144139848814E+03    0.20896E-03   -0.68152E-04  3112   0.122E-01    0.762E-02
DAV:   5    -0.144139618349E+03    0.23047E-03   -0.49788E-04  3182   0.139E-01    0.285E-02
DAV:   6    -0.144139609685E+03    0.86639E-05   -0.22850E-04  3194   0.795E-02    0.224E-02
DAV:   7    -0.144139593617E+03    0.16068E-04   -0.13963E-04  3132   0.773E-02    0.152E-02
DAV:   8    -0.144139587091E+03    0.65259E-05   -0.53083E-05  2802   0.401E-02
  14 F= -.14413959E+03 E0= -.14413502E+03  d E =-.243013E-02
       N       E                     dE             d eps       ncg     rms          rms(c)
DAV:   1    -0.144138240939E+03    0.13527E-02   -0.15436E+00  2820   0.528E+00    0.171E-01
DAV:   2    -0.144141094727E+03   -0.28538E-02   -0.35105E-02  3018   0.736E-01    0.993E-02
DAV:   3    -0.144140879391E+03    0.21534E-03   -0.62683E-04  3248   0.112E-01    0.725E-02
DAV:   4    -0.144140797684E+03    0.81707E-04   -0.21107E-04  3078   0.646E-02    0.488E-02
DAV:   5    -0.144140719634E+03    0.78050E-04   -0.24068E-04  3174   0.844E-02    0.171E-02
DAV:   6    -0.144140720682E+03   -0.10476E-05   -0.82427E-05  3026   0.386E-02
  15 F= -.14414072E+03 E0= -.14413616E+03  d E =-.356372E-02
       N       E                     dE             d eps       ncg     rms          rms(c)
DAV:   1    -0.144141500278E+03   -0.78064E-03   -0.38094E-02  2804   0.838E-01    0.279E-02
DAV:   2    -0.144141567140E+03   -0.66862E-04   -0.86510E-04  3078   0.118E-01    0.164E-02
DAV:   3    -0.144141555200E+03    0.11939E-04   -0.29363E-05  2508   0.199E-02    0.112E-02
DAV:   4    -0.144141550891E+03    0.43092E-05   -0.49611E-06  1858   0.102E-02    0.757E-03
DAV:   5    -0.144141544793E+03    0.60980E-05   -0.83376E-06  1954   0.156E-02    0.337E-03
DAV:   6    -0.144141543564E+03    0.12298E-05   -0.39733E-06  1610   0.106E-02
  16 F= -.14414154E+03 E0= -.14413702E+03  d E =-.822882E-03
       N       E                     dE             d eps       ncg     rms          rms(c)
DAV:   1    -0.144143192613E+03   -0.16478E-02   -0.34311E-01  2796   0.252E+00    0.868E-02
DAV:   2    -0.144143810953E+03   -0.61834E-03   -0.77886E-03  3078   0.353E-01    0.468E-02
DAV:   3    -0.144143734549E+03    0.76404E-04   -0.20914E-04  3246   0.546E-02    0.337E-02
DAV:   4    -0.144143705541E+03    0.29008E-04   -0.42976E-05  2620   0.303E-02    0.225E-02
DAV:   5    -0.144143672714E+03    0.32827E-04   -0.67786E-05  3208   0.448E-02    0.930E-03
DAV:   6    -0.144143669301E+03    0.34132E-05   -0.25527E-05  2538   0.252E-02
  17 F= -.14414367E+03 E0= -.14413926E+03  d E =-.294862E-02
       N       E                     dE             d eps       ncg     rms          rms(c)
DAV:   1    -0.144144344098E+03   -0.67138E-03   -0.13733E+00  2804   0.503E+00    0.173E-01
DAV:   2    -0.144146800048E+03   -0.24560E-02   -0.31293E-02  3086   0.705E-01    0.914E-02
DAV:   3    -0.144146540932E+03    0.25912E-03   -0.76146E-04  3262   0.110E-01    0.663E-02
DAV:   4    -0.144146435776E+03    0.10516E-03   -0.18552E-04  3084   0.626E-02    0.437E-02
DAV:   5    -0.144146311741E+03    0.12403E-03   -0.22188E-04  3264   0.830E-02    0.179E-02
DAV:   6    -0.144146295803E+03    0.15938E-04   -0.96834E-05  3186   0.506E-02    0.154E-02
DAV:   7    -0.144146276236E+03    0.19567E-04   -0.47555E-05  2926   0.419E-02    0.103E-02
DAV:   8    -0.144146265714E+03    0.10522E-04   -0.11750E-05  1990   0.167E-02    0.760E-03
DAV:   9    -0.144146242614E+03    0.23100E-04   -0.29593E-05  2758   0.395E-02    0.106E-02
DAV:  10    -0.144146232158E+03    0.10456E-04   -0.13642E-05  2264   0.319E-02    0.901E-03
DAV:  11    -0.144146225383E+03    0.67747E-05   -0.46482E-05  2690   0.445E-02
  18 F= -.14414623E+03 E0= -.14414203E+03  d E =-.550470E-02
       N       E                     dE             d eps       ncg     rms          rms(c)
DAV:   1    -0.144136320416E+03    0.99117E-02   -0.54948E+00  2804   0.101E+01    0.343E-01
DAV:   2    -0.144146360874E+03   -0.10040E-01   -0.12564E-01  3084   0.140E+00    0.180E-01
DAV:   3    -0.144145514575E+03    0.84630E-03   -0.27323E-03  3264   0.221E-01    0.130E-01
DAV:   4    -0.144145161891E+03    0.35268E-03   -0.80360E-04  3106   0.134E-01    0.819E-02
DAV:   5    -0.144144800395E+03    0.36150E-03   -0.69483E-04  3280   0.150E-01    0.355E-02
DAV:   6    -0.144144758469E+03    0.41926E-04   -0.31166E-04  3212   0.914E-02    0.295E-02
DAV:   7    -0.144144709297E+03    0.49172E-04   -0.16821E-04  3216   0.709E-02    0.187E-02
DAV:   8    -0.144144682093E+03    0.27204E-04   -0.32919E-05  2832   0.275E-02    0.130E-02
DAV:   9    -0.144144632643E+03    0.49449E-04   -0.65182E-05  3054   0.468E-02    0.161E-02
DAV:  10    -0.144144604795E+03    0.27848E-04   -0.24861E-05  2592   0.464E-02    0.129E-02
DAV:  11    -0.144144581323E+03    0.23472E-04   -0.16891E-04  3480   0.103E-01    0.199E-02
DAV:  12    -0.144144552465E+03    0.28858E-04   -0.33053E-05  2844   0.787E-02    0.160E-02
DAV:  13    -0.144144538357E+03    0.14108E-04   -0.40722E-05  2920   0.509E-02    0.623E-03
DAV:  14    -0.144144533576E+03    0.47816E-05   -0.19017E-05  2232   0.361E-02
  19 F= -.14414453E+03 E0= -.14414075E+03  d E =-.381289E-02
       N       E                     dE             d eps       ncg     rms          rms(c)
DAV:   1    -0.144143148259E+03    0.13901E-02   -0.24394E+00  2796   0.669E+00    0.225E-01
DAV:   2    -0.144147533372E+03   -0.43851E-02   -0.54901E-02  3086   0.931E-01    0.122E-01
DAV:   3    -0.144147094850E+03    0.43852E-03   -0.12719E-03  3272   0.142E-01    0.868E-02
DAV:   4    -0.144146918909E+03    0.17594E-03   -0.29710E-04  3100   0.798E-02    0.578E-02
DAV:   5    -0.144146738155E+03    0.18075E-03   -0.35259E-04  3268   0.111E-01    0.203E-02
DAV:   6    -0.144146725320E+03    0.12835E-04   -0.17838E-04  3194   0.674E-02    0.181E-02
DAV:   7    -0.144146710821E+03    0.14499E-04   -0.62515E-05  3048   0.424E-02    0.131E-02
DAV:   8    -0.144146701590E+03    0.92314E-05   -0.13617E-05  1974   0.181E-02
  20 F= -.14414670E+03 E0= -.14414265E+03  d E =-.598091E-02
       N       E                     dE             d eps       ncg     rms          rms(c)
DAV:   1    -0.144147560932E+03   -0.85011E-03   -0.33546E-01  2820   0.249E+00    0.803E-02
DAV:   2    -0.144148243660E+03   -0.68273E-03   -0.78273E-03  2984   0.345E-01    0.441E-02
DAV:   3    -0.144148186323E+03    0.57337E-04   -0.12491E-04  3052   0.453E-02    0.297E-02
DAV:   4    -0.144148167079E+03    0.19244E-04   -0.28805E-05  2582   0.232E-02    0.207E-02
DAV:   5    -0.144148142590E+03    0.24488E-04   -0.34839E-05  2682   0.436E-02    0.579E-03
DAV:   6    -0.144148137234E+03    0.53559E-05   -0.24207E-05  2278   0.271E-02
  21 F= -.14414814E+03 E0= -.14414419E+03  d E =-.143564E-02
       N       E                     dE             d eps       ncg     rms          rms(c)
DAV:   1    -0.144145570995E+03    0.25716E-02   -0.30388E+00  2828   0.749E+00    0.243E-01
DAV:   2    -0.144151973932E+03   -0.64029E-02   -0.72235E-02  2944   0.104E+00    0.131E-01
DAV:   3    -0.144151534483E+03    0.43945E-03   -0.10354E-03  3208   0.130E-01    0.880E-02
DAV:   4    -0.144151389630E+03    0.14485E-03   -0.27910E-04  3070   0.727E-02    0.585E-02
DAV:   5    -0.144151239452E+03    0.15018E-03   -0.26219E-04  3292   0.113E-01    0.158E-02
DAV:   6    -0.144151221070E+03    0.18382E-04   -0.17358E-04  3164   0.629E-02    0.144E-02
DAV:   7    -0.144151201751E+03    0.19319E-04   -0.17957E-05  2184   0.232E-02    0.727E-03
DAV:   8    -0.144151163611E+03    0.38140E-04   -0.78242E-06  1996   0.468E-02    0.593E-03
DAV:   9    -0.144151114899E+03    0.48713E-04   -0.19612E-05  2490   0.783E-02    0.105E-02
DAV:  10    -0.144151031183E+03    0.83715E-04   -0.14969E-04  4030   0.222E-01    0.131E-02
DAV:  11    -0.144151026088E+03    0.50957E-05   -0.17047E-04  3104   0.849E-02    0.144E-02
DAV:  12    -0.144151023040E+03    0.30471E-05   -0.38403E-05  2686   0.286E-02
  22 F= -.14415102E+03 E0= -.14414737E+03  d E =-.432145E-02
       N       E                     dE             d eps       ncg     rms          rms(c)
DAV:   1    -0.144126821726E+03    0.24204E-01   -0.12150E+01  2836   0.150E+01    0.489E-01
DAV:   2    -0.144153302671E+03   -0.26481E-01   -0.29534E-01  2954   0.209E+00    0.269E-01
DAV:   3    -0.144151684178E+03    0.16185E-02   -0.38927E-03  3232   0.261E-01    0.179E-01
DAV:   4    -0.144151126361E+03    0.55782E-03   -0.13095E-03  3054   0.160E-01    0.109E-01
DAV:   5    -0.144150656984E+03    0.46938E-03   -0.96199E-04  3148   0.193E-01    0.324E-02
DAV:   6    -0.144150626580E+03    0.30405E-04   -0.52406E-04  3150   0.102E-01    0.276E-02
DAV:   7    -0.144150577481E+03    0.49099E-04   -0.47092E-05  3124   0.364E-02    0.141E-02
DAV:   8    -0.144150499210E+03    0.78270E-04   -0.12384E-05  2254   0.647E-02    0.779E-03
DAV:   9    -0.144150405781E+03    0.93429E-04   -0.38639E-05  2902   0.975E-02    0.968E-03
DAV:  10    -0.144150206810E+03    0.19897E-03   -0.19611E-04  4038   0.278E-01    0.111E-02
DAV:  11    -0.144150146002E+03    0.60808E-04   -0.28146E-04  3500   0.178E-01    0.102E-02
DAV:  12    -0.144150143348E+03    0.26540E-05   -0.17785E-04  3232   0.907E-02    0.805E-03
DAV:  13    -0.144150146741E+03   -0.33929E-05   -0.57305E-05  2812   0.291E-02
  23 F= -.14415015E+03 E0= -.14414666E+03  d E =-.344515E-02
       N       E                     dE             d eps       ncg     rms          rms(c)
DAV:   1    -0.144143711700E+03    0.64316E-02   -0.41087E+00  2804   0.865E+00    0.291E-01
DAV:   2    -0.144152732255E+03   -0.90206E-02   -0.10066E-01  2950   0.121E+00    0.150E-01
DAV:   3    -0.144152234185E+03    0.49807E-03   -0.13935E-03  3216   0.153E-01    0.103E-01
DAV:   4    -0.144152055178E+03    0.17901E-03   -0.41551E-04  3018   0.895E-02    0.659E-02
DAV:   5    -0.144151901349E+03    0.15383E-03   -0.39389E-04  3166   0.121E-01    0.193E-02
DAV:   6    -0.144151899764E+03    0.15847E-05   -0.18376E-04  3100   0.519E-02    0.185E-02
DAV:   7    -0.144151884349E+03    0.15416E-04   -0.41602E-05  2906   0.259E-02    0.857E-03
DAV:   8    -0.144151871171E+03    0.13178E-04   -0.26967E-06  1828   0.241E-02    0.639E-03
DAV:   9    -0.144151849608E+03    0.21563E-04   -0.12692E-05  2208   0.476E-02    0.423E-03
DAV:  10    -0.144151827873E+03    0.21735E-04   -0.23076E-05  2494   0.599E-02    0.602E-03
DAV:  11    -0.144151797351E+03    0.30522E-04   -0.25024E-05  2510   0.929E-02    0.740E-03
DAV:  12    -0.144151787699E+03    0.96520E-05   -0.52020E-05  3024   0.824E-02
  24 F= -.14415179E+03 E0= -.14414828E+03  d E =-.508611E-02
       N       E                     dE             d eps       ncg     rms          rms(c)
DAV:   1    -0.144152807616E+03   -0.10103E-02   -0.23779E-01  2928   0.208E+00    0.679E-02
DAV:   2    -0.144153226675E+03   -0.41906E-03   -0.55772E-03  3062   0.301E-01    0.382E-02
DAV:   3    -0.144153181815E+03    0.44860E-04   -0.18447E-04  3274   0.680E-02    0.287E-02
DAV:   4    -0.144153151340E+03    0.30475E-04   -0.29009E-05  2564   0.293E-02    0.169E-02
DAV:   5    -0.144153116826E+03    0.34514E-04   -0.50690E-05  2988   0.543E-02    0.101E-02
DAV:   6    -0.144153109409E+03    0.74175E-05   -0.32259E-05  2608   0.337E-02
  25 F= -.14415311E+03 E0= -.14414962E+03  d E =-.132171E-02
       N       E                     dE             d eps       ncg     rms          rms(c)
DAV:   1    -0.144153094963E+03    0.21863E-04   -0.44156E-01  2912   0.284E+00    0.915E-02
DAV:   2    -0.144153860989E+03   -0.76603E-03   -0.10437E-02  3056   0.417E-01    0.535E-02
DAV:   3    -0.144153769941E+03    0.91048E-04   -0.37602E-04  3260   0.997E-02    0.408E-02
DAV:   4    -0.144153701804E+03    0.68137E-04   -0.54530E-05  3124   0.441E-02    0.244E-02
DAV:   5    -0.144153613174E+03    0.88629E-04   -0.10472E-04  3020   0.905E-02    0.154E-02
DAV:   6    -0.144153591714E+03    0.21460E-04   -0.77926E-05  3122   0.564E-02    0.124E-02
DAV:   7    -0.144153569547E+03    0.22167E-04   -0.65581E-05  2912   0.693E-02    0.940E-03
DAV:   8    -0.144153532273E+03    0.37274E-04   -0.17752E-05  2130   0.859E-02    0.820E-03
DAV:   9    -0.144153516901E+03    0.15372E-04   -0.41728E-05  2706   0.468E-02    0.660E-03
DAV:  10    -0.144153472025E+03    0.44875E-04   -0.22937E-05  2240   0.109E-01    0.836E-03
DAV:  11    -0.144153442794E+03    0.29232E-04   -0.54585E-05  3152   0.115E-01    0.128E-02
DAV:  12    -0.144153437352E+03    0.54422E-05   -0.13430E-04  2906   0.842E-02    0.892E-03
DAV:  13    -0.144153428615E+03    0.87368E-05   -0.25900E-05  2460   0.542E-02
  26 F= -.14415343E+03 E0= -.14414996E+03  d E =-.164092E-02
       N       E                     dE             d eps       ncg     rms          rms(c)
DAV:   1    -0.144153458820E+03   -0.21468E-04   -0.24435E-02  2814   0.671E-01    0.191E-02
DAV:   2    -0.144153501205E+03   -0.42385E-04   -0.57339E-04  3086   0.964E-02    0.154E-02
DAV:   3    -0.144153495214E+03    0.59912E-05   -0.16519E-05  2064   0.235E-02    0.106E-02
DAV:   4    -0.144153491158E+03    0.40557E-05   -0.53748E-06  1796   0.173E-02    0.617E-03
DAV:   5    -0.144153487997E+03    0.31611E-05   -0.46426E-06  1816   0.193E-02    0.299E-03
DAV:   6    -0.144153486931E+03    0.10661E-05   -0.59150E-06  1684   0.172E-02
  27 F= -.14415349E+03 E0= -.14415002E+03  d E =-.169923E-02
       N       E                     dE             d eps       ncg     rms          rms(c)
DAV:   1    -0.144153927862E+03   -0.43986E-03   -0.23686E-01  2816   0.205E+00    0.598E-02
DAV:   2    -0.144154384548E+03   -0.45669E-03   -0.50593E-03  3118   0.277E-01    0.363E-02
DAV:   3    -0.144154352533E+03    0.32015E-04   -0.47665E-05  3060   0.378E-02    0.252E-02
DAV:   4    -0.144154333454E+03    0.19078E-04   -0.61416E-05  3130   0.508E-02    0.114E-02
DAV:   5    -0.144154327911E+03    0.55436E-05   -0.46763E-05  2978   0.370E-02    0.939E-03
DAV:   6    -0.144154327388E+03    0.52255E-06   -0.80734E-06  1612   0.123E-02
  28 F= -.14415433E+03 E0= -.14415086E+03  d E =-.840458E-03
       N       E                     dE             d eps       ncg     rms          rms(c)
DAV:   1    -0.144152268237E+03    0.20597E-02   -0.18165E+00  2812   0.566E+00    0.169E-01
DAV:   2    -0.144155795038E+03   -0.35268E-02   -0.39135E-02  3098   0.771E-01    0.100E-01
DAV:   3    -0.144155553459E+03    0.24158E-03   -0.38000E-04  3272   0.106E-01    0.694E-02
DAV:   4    -0.144155417640E+03    0.13582E-03   -0.47053E-04  3172   0.138E-01    0.316E-02
DAV:   5    -0.144155379210E+03    0.38429E-04   -0.34718E-04  3146   0.100E-01    0.266E-02
DAV:   6    -0.144155374960E+03    0.42502E-05   -0.62199E-05  2882   0.328E-02
  29 F= -.14415537E+03 E0= -.14415190E+03  d E =-.188803E-02
       N       E                     dE             d eps       ncg     rms          rms(c)
DAV:   1    -0.144155641812E+03   -0.26260E-03   -0.49948E-01  2820   0.296E+00    0.968E-02
DAV:   2    -0.144156579542E+03   -0.93773E-03   -0.10992E-02  3134   0.418E-01    0.533E-02
DAV:   3    -0.144156496391E+03    0.83151E-04   -0.18189E-04  3186   0.738E-02    0.386E-02
DAV:   4    -0.144156451994E+03    0.44397E-04   -0.89106E-05  3146   0.620E-02    0.226E-02
DAV:   5    -0.144156401099E+03    0.50895E-04   -0.65106E-05  3042   0.857E-02    0.101E-02
DAV:   6    -0.144156398340E+03    0.27587E-05   -0.89706E-05  2884   0.456E-02
  30 F= -.14415640E+03 E0= -.14415289E+03  d E =-.102338E-02
       N       E                     dE             d eps       ncg     rms          rms(c)
DAV:   1    -0.144156194844E+03    0.20625E-03   -0.33052E-01  2868   0.241E+00    0.762E-02
DAV:   2    -0.144156811595E+03   -0.61675E-03   -0.72275E-03  3126   0.338E-01    0.425E-02
DAV:   3    -0.144156752219E+03    0.59376E-04   -0.11051E-04  3204   0.612E-02    0.313E-02
DAV:   4    -0.144156713318E+03    0.38902E-04   -0.57346E-05  3008   0.568E-02    0.181E-02
DAV:   5    -0.144156665234E+03    0.48083E-04   -0.47085E-05  2966   0.810E-02    0.899E-03
DAV:   6    -0.144156659984E+03    0.52499E-05   -0.78053E-05  2832   0.428E-02
  31 F= -.14415666E+03 E0= -.14415313E+03  d E =-.128502E-02
       N       E                     dE             d eps       ncg     rms          rms(c)
DAV:   1    -0.144156892071E+03   -0.22684E-03   -0.39656E-01  2780   0.269E+00    0.876E-02
DAV:   2    -0.144157698306E+03   -0.80623E-03   -0.92815E-03  3122   0.386E-01    0.481E-02
DAV:   3    -0.144157648340E+03    0.49966E-04   -0.16329E-04  3188   0.575E-02    0.367E-02
DAV:   4    -0.144157624269E+03    0.24071E-04   -0.69435E-05  3094   0.418E-02    0.208E-02
DAV:   5    -0.144157602743E+03    0.21526E-04   -0.76918E-05  3130   0.496E-02    0.124E-02
DAV:   6    -0.144157600400E+03    0.23426E-05   -0.22756E-05  2216   0.218E-02
  32 F= -.14415760E+03 E0= -.14415401E+03  d E =-.940416E-03
       N       E                     dE             d eps       ncg     rms          rms(c)
DAV:   1    -0.144157245004E+03    0.35774E-03   -0.32434E-01  2796   0.243E+00    0.781E-02
DAV:   2    -0.144157897647E+03   -0.65264E-03   -0.75946E-03  3138   0.353E-01    0.441E-02
DAV:   3    -0.144157857372E+03    0.40275E-04   -0.16290E-04  3222   0.559E-02    0.348E-02
DAV:   4    -0.144157837296E+03    0.20076E-04   -0.49821E-05  3084   0.311E-02    0.206E-02
DAV:   5    -0.144157818535E+03    0.18761E-04   -0.81161E-05  3092   0.408E-02    0.134E-02
DAV:   6    -0.144157816195E+03    0.23401E-05   -0.15647E-05  1872   0.211E-02
  33 F= -.14415782E+03 E0= -.14415416E+03  d E =-.115621E-02
       N       E                     dE             d eps       ncg     rms          rms(c)
DAV:   1    -0.144157708397E+03    0.11014E-03   -0.48371E-01  2772   0.292E+00    0.895E-02
DAV:   2    -0.144158672427E+03   -0.96403E-03   -0.10612E-02  3122   0.407E-01    0.513E-02
DAV:   3    -0.144158612388E+03    0.60039E-04   -0.16973E-04  3178   0.563E-02    0.375E-02
DAV:   4    -0.144158588298E+03    0.24090E-04   -0.52826E-05  3070   0.308E-02    0.230E-02
DAV:   5    -0.144158565197E+03    0.23101E-04   -0.97288E-05  3128   0.475E-02    0.139E-02
DAV:   6    -0.144158563306E+03    0.18913E-05   -0.19437E-05  1972   0.205E-02
  34 F= -.14415856E+03 E0= -.14415490E+03  d E =-.747111E-03
       N       E                     dE             d eps       ncg     rms          rms(c)
DAV:   1    -0.144158067301E+03    0.49790E-03   -0.36569E-01  2772   0.254E+00    0.792E-02
DAV:   2    -0.144158794235E+03   -0.72693E-03   -0.82179E-03  3144   0.360E-01    0.457E-02
DAV:   3    -0.144158737418E+03    0.56817E-04   -0.14776E-04  3166   0.530E-02    0.333E-02
DAV:   4    -0.144158712456E+03    0.24963E-04   -0.32779E-05  2500   0.235E-02    0.220E-02
DAV:   5    -0.144158667542E+03    0.44913E-04   -0.10687E-04  3148   0.547E-02    0.156E-02
DAV:   6    -0.144158664090E+03    0.34526E-05   -0.21845E-05  2226   0.209E-02
  35 F= -.14415866E+03 E0= -.14415498E+03  d E =-.847895E-03
       N       E                     dE             d eps       ncg     rms          rms(c)
DAV:   1    -0.144157078532E+03    0.15890E-02   -0.12598E+00  2804   0.467E+00    0.141E-01
DAV:   2    -0.144159577909E+03   -0.24994E-02   -0.27706E-02  3186   0.648E-01    0.855E-02
DAV:   3    -0.144159399941E+03    0.17797E-03   -0.32605E-04  3280   0.941E-02    0.593E-02
DAV:   4    -0.144159309771E+03    0.90170E-04   -0.32993E-04  3206   0.981E-02    0.279E-02
DAV:   5    -0.144159272001E+03    0.37770E-04   -0.16948E-04  3130   0.699E-02    0.223E-02
DAV:   6    -0.144159270049E+03    0.19521E-05   -0.50938E-05  2892   0.301E-02
  36 F= -.14415927E+03 E0= -.14415567E+03  d E =-.605959E-03
       N       E                     dE             d eps       ncg     rms          rms(c)
DAV:   1    -0.144159263943E+03    0.80583E-05   -0.41819E-03  2906   0.268E-01    0.844E-03
DAV:   2    -0.144159269934E+03   -0.59907E-05   -0.86105E-05  2874   0.368E-02    0.667E-03
DAV:   3    -0.144159268811E+03    0.11223E-05   -0.18918E-06  1564   0.756E-03    0.487E-03
DAV:   4    -0.144159267623E+03    0.11879E-05   -0.10960E-06  1718   0.886E-03    0.257E-03
DAV:   5    -0.144159266756E+03    0.86721E-06   -0.17641E-06  1578   0.955E-03    0.179E-03
DAV:   6    -0.144159266696E+03    0.59729E-07   -0.13068E-06  1452   0.558E-03
  37 F= -.14415927E+03 E0= -.14415566E+03  d E =-.602607E-03
       N       E                     dE             d eps       ncg     rms          rms(c)
DAV:   1    -0.144158533709E+03    0.73305E-03   -0.62098E-01  2940   0.336E+00    0.982E-02
DAV:   2    -0.144159821596E+03   -0.12879E-02   -0.14088E-02  2970   0.461E-01    0.576E-02
DAV:   3    -0.144159723863E+03    0.97733E-04   -0.12337E-04  3258   0.560E-02    0.392E-02
DAV:   4    -0.144159650605E+03    0.73258E-04   -0.86066E-05  3120   0.606E-02    0.200E-02
DAV:   5    -0.144159597082E+03    0.53523E-04   -0.88205E-05  3086   0.678E-02    0.865E-03
DAV:   6    -0.144159585521E+03    0.11560E-04   -0.50662E-05  2858   0.323E-02    0.974E-03
DAV:   7    -0.144159575480E+03    0.10041E-04   -0.32124E-06  1708   0.109E-02    0.688E-03
DAV:   8    -0.144159495645E+03    0.79836E-04   -0.80251E-05  3228   0.102E-01    0.206E-02
DAV:   9    -0.144159488017E+03    0.76281E-05   -0.24942E-05  2542   0.232E-02
  38 F= -.14415949E+03 E0= -.14415594E+03  d E =-.221320E-03
       N       E                     dE             d eps       ncg     rms          rms(c)
DAV:   1    -0.144159410933E+03    0.84711E-04   -0.39742E-02  2952   0.852E-01    0.286E-02
DAV:   2    -0.144159501738E+03   -0.90804E-04   -0.10060E-03  3064   0.124E-01    0.156E-02
DAV:   3    -0.144159495602E+03    0.61360E-05   -0.12430E-05  1854   0.171E-02    0.106E-02
DAV:   4    -0.144159489942E+03    0.56597E-05   -0.17465E-05  1830   0.196E-02    0.472E-03
DAV:   5    -0.144159488586E+03    0.13565E-05   -0.34555E-06  1608   0.121E-02    0.472E-03
DAV:   6    -0.144159486956E+03    0.16296E-05   -0.19422E-06  1632   0.150E-02
  39 F= -.14415949E+03 E0= -.14415593E+03  d E =-.220260E-03
       N       E                     dE             d eps       ncg     rms          rms(c)
DAV:   1    -0.144159517714E+03   -0.29128E-04   -0.91909E-02  2912   0.129E+00    0.429E-02
DAV:   2    -0.144159688623E+03   -0.17091E-03   -0.22636E-03  3124   0.192E-01    0.284E-02
DAV:   3    -0.144159664626E+03    0.23997E-04   -0.75506E-05  3112   0.392E-02    0.209E-02
DAV:   4    -0.144159657590E+03    0.70360E-05   -0.13113E-05  1810   0.160E-02    0.148E-02
DAV:   5    -0.144159647369E+03    0.10221E-04   -0.23146E-05  2474   0.221E-02    0.703E-03
DAV:   6    -0.144159645100E+03    0.22686E-05   -0.82139E-06  1796   0.161E-02
  40 F= -.14415965E+03 E0= -.14415612E+03  d E =-.158144E-03
