 vasp.5.3.5 31Mar14 (build Apr 08 2024 10:12:10) complex                        
  
 executed on             LinuxIFC date 2024.07.30  00:36:10
 running on    8 total cores
 distrk:  each k-point on    8 cores,    1 groups
 distr:  one band on NCORES_PER_BAND=   4 cores,    2 groups


--------------------------------------------------------------------------------------------------------


 INCAR:
 POTCAR:    PAW_PBE O 08Apr2002                   
 POTCAR:    PAW_PBE Mg 13Apr2007                  
 POTCAR:    PAW_PBE Al 04Jan2001                  
 POTCAR:    PAW_PBE O 08Apr2002                   
   VRHFIN =O: s2p4                                                              
   LEXCH  = PE                                                                  
   EATOM  =   432.3788 eV,   31.7789 Ry                                         
                                                                                
   TITEL  = PAW_PBE O 08Apr2002                                                 
   LULTRA =        F    use ultrasoft PP ?                                      
   IUNSCR =        1    unscreen: 0-lin 1-nonlin 2-no                           
   RPACOR =    1.200    partial core radius                                     
   POMASS =   16.000; ZVAL   =    6.000    mass and valenz                      
   RCORE  =    1.520    outmost cutoff radius                                   
   RWIGS  =    1.550; RWIGS  =    0.820    wigner-seitz radius (au A)           
   ENMAX  =  400.000; ENMIN  =  300.000 eV                                      
   ICORE  =        2    local potential                                         
   LCOR   =        T    correct aug charges                                     
   LPAW   =        T    paw PP                                                  
   EAUG   =  605.392                                                            
   DEXC   =    0.000                                                            
   RMAX   =    1.553    core radius for proj-oper                               
   RAUG   =    1.300    factor for augmentation sphere                          
   RDEP   =    1.550    radius for radial grids                                 
   RDEPT  =    1.329    core radius for aug-charge                              
                                                                                
   Atomic configuration                                                         
    4 entries                                                                   
     n  l   j            E        occ.                                          
     1  0  0.50      -514.6923   2.0000                                         
     2  0  0.50       -23.9615   2.0000                                         
     2  1  0.50        -9.0305   4.0000                                         
     3  2  1.50        -9.5241   0.0000                                         
   Description                                                                  
     l       E           TYP  RCUT    TYP  RCUT                                 
     0    -23.9615318     23  1.200                                             
     0     -9.5240782     23  1.200                                             
     1     -9.0304911     23  1.520                                             
     1      8.1634956     23  1.520                                             
     2     -9.5240782      7  1.500                                             
  local pseudopotential read in
  partial core-charges read in
  partial kinetic energy density read in
  kinetic energy density of atom read in
  atomic valenz-charges read in
  non local Contribution for L=           0  read in
    real space projection operators read in
  non local Contribution for L=           0  read in
    real space projection operators read in
  non local Contribution for L=           1  read in
    real space projection operators read in
  non local Contribution for L=           1  read in
    real space projection operators read in
    PAW grid and wavefunctions read in
 
   number of l-projection  operators is LMAX  =           4
   number of lm-projection operators is LMMAX =           8
 
 POTCAR:    PAW_PBE Mg 13Apr2007                  
   VRHFIN =Mg: s2p0                                                             
   LEXCH  = PE                                                                  
   EATOM  =    23.0369 eV,    1.6932 Ry                                         
                                                                                
   TITEL  = PAW_PBE Mg 13Apr2007                                                
   LULTRA =        F    use ultrasoft PP ?                                      
   IUNSCR =        1    unscreen: 0-lin 1-nonlin 2-no                           
   RPACOR =    1.500    partial core radius                                     
   POMASS =   24.305; ZVAL   =    2.000    mass and valenz                      
   RCORE  =    2.000    outmost cutoff radius                                   
   RWIGS  =    2.880; RWIGS  =    1.524    wigner-seitz radius (au A)           
   ENMAX  =  200.000; ENMIN  =  100.000 eV                                      
   RCLOC  =    1.506    cutoff for local pot                                    
   LCOR   =        T    correct aug charges                                     
   LPAW   =        T    paw PP                                                  
   EAUG   =  454.734                                                            
   DEXC   =    0.000                                                            
   RMAX   =    2.045    core radius for proj-oper                               
   RAUG   =    1.300    factor for augmentation sphere                          
   RDEP   =    2.025    radius for radial grids                                 
   RDEPT  =    1.942    core radius for aug-charge                              
                                                                                
   Atomic configuration                                                         
    6 entries                                                                   
     n  l   j            E        occ.                                          
     1  0  0.50     -1259.6230   2.0000                                         
     2  0  0.50       -79.8442   2.0000                                         
     2  1  1.50       -46.6121   6.0000                                         
     3  0  0.50        -4.7055   2.0000                                         
     3  1  0.50        -1.3660   0.0000                                         
     3  2  1.50        -1.3606   0.0000                                         
   Description                                                                  
     l       E           TYP  RCUT    TYP  RCUT                                 
     0     -4.7054661     23  2.000                                             
     0     27.2116520     23  2.000                                             
     1      1.3605826     23  2.000                                             
     1     27.2116520     23  2.000                                             
     2     -1.3605826     23  2.000                                             
  local pseudopotential read in
  partial core-charges read in
  partial kinetic energy density read in
  atomic valenz-charges read in
  non local Contribution for L=           0  read in
    real space projection operators read in
  non local Contribution for L=           0  read in
    real space projection operators read in
  non local Contribution for L=           1  read in
    real space projection operators read in
  non local Contribution for L=           1  read in
    real space projection operators read in
  non local Contribution for L=           2  read in
    real space projection operators read in
    PAW grid and wavefunctions read in
 
   number of l-projection  operators is LMAX  =           5
   number of lm-projection operators is LMMAX =          13
 
 POTCAR:    PAW_PBE Al 04Jan2001                  
   VRHFIN =Al: s2p1                                                             
   LEXCH  = PE                                                                  
   EATOM  =    53.5387 eV,    3.9350 Ry                                         
                                                                                
   TITEL  = PAW_PBE Al 04Jan2001                                                
   LULTRA =        F    use ultrasoft PP ?                                      
   IUNSCR =        1    unscreen: 0-lin 1-nonlin 2-no                           
   RPACOR =    1.500    partial core radius                                     
   POMASS =   26.981; ZVAL   =    3.000    mass and valenz                      
   RCORE  =    1.900    outmost cutoff radius                                   
   RWIGS  =    2.650; RWIGS  =    1.402    wigner-seitz radius (au A)           
   ENMAX  =  240.300; ENMIN  =  180.225 eV                                      
   ICORE  =        2    local potential                                         
   LCOR   =        T    correct aug charges                                     
   LPAW   =        T    paw PP                                                  
   EAUG   =  291.052                                                            
   DEXC   =    0.000                                                            
   RMAX   =    1.939    core radius for proj-oper                               
   RAUG   =    1.300    factor for augmentation sphere                          
   RDEP   =    1.966    radius for radial grids                                 
   RDEPT  =    1.856    core radius for aug-charge                              
                                                                                
   Atomic configuration                                                         
    6 entries                                                                   
     n  l   j            E        occ.                                          
     1  0  0.50     -1511.1048   2.0000                                         
     2  0  0.50      -108.1629   2.0000                                         
     2  1  1.50       -69.6402   6.0000                                         
     3  0  0.50        -7.7528   2.0000                                         
     3  1  1.50        -2.7121   1.0000                                         
     3  2  2.50        -2.7212   0.0000                                         
   Description                                                                  
     l       E           TYP  RCUT    TYP  RCUT                                 
     0     -7.7528455     23  1.900                                             
     0     -3.3096929     23  1.900                                             
     1     -2.7120682     23  1.900                                             
     1     13.6058260     23  1.900                                             
     2     -2.7211652      7  1.900                                             
  local pseudopotential read in
  partial core-charges read in
  partial kinetic energy density read in
  atomic valenz-charges read in
  non local Contribution for L=           0  read in
    real space projection operators read in
  non local Contribution for L=           0  read in
    real space projection operators read in
  non local Contribution for L=           1  read in
    real space projection operators read in
  non local Contribution for L=           1  read in
    real space projection operators read in
    PAW grid and wavefunctions read in
 
   number of l-projection  operators is LMAX  =           4
   number of lm-projection operators is LMMAX =           8
 

 ----------------------------------------------------------------------------- 
|                                                                             |
|  ADVICE TO THIS USER RUNNING 'VASP/VAMP'   (HEAR YOUR MASTER'S VOICE ...):  |
|                                                                             |
|      You have a (more or less) 'large supercell' and for larger cells       |
|      it might be more efficient to use real space projection opertators     |
|      So try LREAL= Auto  in the INCAR   file.                               |
|      Mind: At the moment your POTCAR file does not contain real space       |
|       projectors, and has to be modified,  BUT if you                       |
|      want to do an extremely  accurate calculation you might also keep the  |
|      reciprocal projection scheme          (i.e. LREAL=.FALSE.)             |
|                                                                             |
 ----------------------------------------------------------------------------- 

  PAW_PBE O 08Apr2002                   :
 energy of atom  1       EATOM= -432.3788
 kinetic energy error for atom=    0.0208 (will be added to EATOM!!)
  PAW_PBE Mg 13Apr2007                  :
 energy of atom  2       EATOM=  -23.0369
 kinetic energy error for atom=    0.0000 (will be added to EATOM!!)
  PAW_PBE Al 04Jan2001                  :
 energy of atom  3       EATOM=  -53.5387
 kinetic energy error for atom=    0.0002 (will be added to EATOM!!)
 
 
 POSCAR: Layer                                   
  positions in direct lattice
  velocities in cartesian coordinates
 exchange correlation table for  LEXCH =        8
   RHO(1)=    0.500       N(1)  =     2000
   RHO(2)=  100.500       N(2)  =     4000
 


--------------------------------------------------------------------------------------------------------


 ion  position               nearest neighbor table
   1  0.000  0.000  0.295-  14 2.13  14 2.13  14 2.13  18 2.16  18 2.16  18 2.16
   2  0.333  0.667  0.346-  11 2.13  11 2.13  11 2.13  14 2.13  14 2.13  14 2.13
   3  0.000  0.000  0.448-  15 2.13  15 2.13  15 2.13  19 2.13  19 2.13  19 2.13
   4  0.333  0.667  0.499-  12 2.13  12 2.13  12 2.13  15 2.13  15 2.13  15 2.13
   5  0.000  0.000  0.601-  20 2.13  20 2.13  20 2.13  16 2.13  16 2.13  16 2.13
   6  0.333  0.667  0.652-  16 2.13  16 2.13  16 2.13  13 2.13  13 2.13  13 2.13
   7  0.000  0.000  0.753-  21 2.13  21 2.13  21 2.13  17 2.16  17 2.16  17 2.16
   8  0.667  0.333  0.397-  19 2.13  19 2.13  19 2.13  11 2.13  11 2.13  11 2.13
   9  0.667  0.333  0.550-  12 2.13  12 2.13  12 2.13  20 2.13  20 2.13  20 2.13
  10  0.667  0.333  0.703-  13 2.13  13 2.13  13 2.13  21 2.13  21 2.13  21 2.13
  11  0.000  0.000  0.372-   2 2.13   2 2.13   2 2.13   8 2.13   8 2.13   8 2.13  14 3.03  14 3.03
                            14 3.03  19 3.03  19 3.03  19 3.03
  12  0.000  0.000  0.524-   9 2.13   9 2.13   9 2.13   4 2.13   4 2.13   4 2.13  15 3.03  15 3.03
                            15 3.03  20 3.03  20 3.03  20 3.03
  13  0.000  0.000  0.677-  10 2.13  10 2.13  10 2.13   6 2.13   6 2.13   6 2.13  21 3.03  21 3.03
                            21 3.03  16 3.03  16 3.03  16 3.03
  14  0.667  0.333  0.321-   1 2.13   1 2.13   1 2.13   2 2.13   2 2.13   2 2.13  11 3.03  11 3.03
                            11 3.03  18 3.07  18 3.07  18 3.07
  15  0.667  0.333  0.473-   4 2.13   4 2.13   4 2.13   3 2.13   3 2.13   3 2.13  12 3.03  12 3.03
                            12 3.03  19 3.03  19 3.03  19 3.03
  16  0.667  0.333  0.626-   6 2.13   6 2.13   6 2.13   5 2.13   5 2.13   5 2.13  20 3.03  20 3.03
                            20 3.03  13 3.03  13 3.03  13 3.03
  17  0.667  0.333  0.780-   7 2.16   7 2.16   7 2.16  26 2.98  26 2.98  26 2.98  21 3.07  21 3.07
                            21 3.07
  18  0.333  0.667  0.269-   1 2.16   1 2.16   1 2.16  23 2.98  23 2.98  23 2.98  14 3.07  14 3.07
                            14 3.07
  19  0.333  0.667  0.423-   8 2.13   8 2.13   8 2.13   3 2.13   3 2.13   3 2.13  15 3.03  15 3.03
                            15 3.03  11 3.03  11 3.03  11 3.03
  20  0.333  0.667  0.575-   5 2.13   9 2.13   5 2.13   9 2.13   5 2.13   9 2.13  12 3.03  12 3.03
                            12 3.03  16 3.03  16 3.03  16 3.03
  21  0.333  0.667  0.728-   7 2.13   7 2.13   7 2.13  10 2.13  10 2.13  10 2.13  13 3.03  13 3.03
                            13 3.03  17 3.07  17 3.07  17 3.07
  22  0.000  0.000  0.024-  25 2.88  25 2.88  25 2.88  27 2.88  27 2.88  27 2.88
  23  0.000  0.000  0.219-  24 2.84  24 2.84  24 2.84  18 2.98  18 2.98  18 2.98
  24  0.667  0.333  0.173-  23 2.84  23 2.84  23 2.84
  25  0.333  0.667  0.071-  22 2.88  22 2.88  22 2.88
  26  0.000  0.000  0.830-  28 2.84  28 2.84  28 2.84  17 2.98  17 2.98  17 2.98
  27  0.667  0.333  0.977-  22 2.88  22 2.88  22 2.88
  28  0.333  0.667  0.876-  26 2.84  26 2.84  26 2.84
 
  LATTYP: Found a hexagonal cell.
 ALAT       =     2.9932160299
 C/A-ratio  =    16.3175531377
  
  Lattice vectors:
  
 A1 = (   2.5922013181,  -1.4966076735,   0.0000000000)
 A2 = (   0.0000000000,   2.9932153469,   0.0000000000)
 A3 = (  -0.0000000000,   0.0000000000,  48.8419616213)


Analysis of symmetry for initial positions (statically):
=====================================================================
 Subroutine PRICEL returns:
 Original cell was already a primitive cell.
 

 Routine SETGRP: Setting up the symmetry group for a 
 hexagonal supercell.


 Subroutine GETGRP returns: Found 12 space group operations
 (whereof  6 operations were pure point group operations)
 out of a pool of 24 trial point group operations.


The static configuration has the point symmetry C_3v.
 The point group associated with its full space group is D_3d.


Analysis of symmetry for dynamics (positions and initial velocities):
=====================================================================
 Subroutine PRICEL returns:
 Original cell was already a primitive cell.
 

 Routine SETGRP: Setting up the symmetry group for a 
 hexagonal supercell.


 Subroutine GETGRP returns: Found 12 space group operations
 (whereof  6 operations were pure point group operations)
 out of a pool of 24 trial point group operations.


The dynamic configuration has the point symmetry C_3v.
 The point group associated with its full space group is D_3d.


Analysis of constrained symmetry for selective dynamics:
=====================================================================
 Subroutine PRICEL returns:
 Original cell was already a primitive cell.
 

 Routine SETGRP: Setting up the symmetry group for a 
 hexagonal supercell.


 Subroutine GETGRP returns: Found 12 space group operations
 (whereof  6 operations were pure point group operations)
 out of a pool of 24 trial point group operations.


The constrained configuration has the point symmetry C_3v.
 The point group associated with its full space group is D_3d.
 
 
 KPOINTS: K-Spacing Value to Generate K-Mesh: 0.02

Automatic generation of k-mesh.
Space group operators:
 irot       det(A)        alpha          n_x          n_y          n_z        tau_x        tau_y        tau_z
    1     1.000000     0.000001     1.000000     0.000000     0.000000     0.000000     0.000000     0.000000
    2     1.000000   120.000000     0.000000     0.000000    -1.000000     0.000000     0.000000     0.000000
    3     1.000000   120.000000    -0.000000     0.000000     1.000000     0.000000     0.000000     0.000000
    4    -1.000000   180.000000    -0.866025     0.500000    -0.000000     0.000000     0.000000     0.000000
    5    -1.000000   180.000000     0.000000     1.000000     0.000000     0.000000     0.000000     0.000000
    6    -1.000000   180.000000    -0.866025    -0.500000    -0.000000     0.000000     0.000000     0.000000
    7    -1.000000     0.000001     1.000000     0.000000     0.000000     0.000000     0.000000     0.048638
    8    -1.000000   120.000000     0.000000     0.000000    -1.000000     0.000000     0.000000     0.048638
    9    -1.000000   120.000000    -0.000000     0.000000     1.000000     0.000001    -0.000000     0.048638
   10     1.000000   180.000000    -0.866025     0.500000    -0.000000     0.000001    -0.000000     0.048638
   11     1.000000   180.000000     0.000000     1.000000     0.000000     0.000000     0.000000     0.048638
   12     1.000000   180.000000    -0.866025    -0.500000    -0.000000     0.000000     0.000000     0.048638
 
 Subroutine IBZKPT returns following result:
 ===========================================
 
 Found     21 irreducible k-points:
 
 Following reciprocal coordinates:
            Coordinates               Weight
  0.000000  0.000000  0.000000      1.000000
  0.076923  0.000000 -0.000000      6.000000
  0.153846  0.000000  0.000000      6.000000
  0.230769  0.000000  0.000000      6.000000
  0.307692  0.000000  0.000000      6.000000
  0.384615  0.000000  0.000000      6.000000
  0.461538  0.000000  0.000000      6.000000
  0.076923  0.076923 -0.000000      6.000000
  0.153846  0.076923  0.000000     12.000000
  0.230769  0.076923  0.000000     12.000000
  0.307692  0.076923  0.000000     12.000000
  0.384615  0.076923  0.000000     12.000000
  0.461538  0.076923  0.000000      6.000000
  0.153846  0.153846  0.000000      6.000000
  0.230769  0.153846  0.000000     12.000000
  0.307692  0.153846  0.000000     12.000000
  0.384615  0.153846  0.000000     12.000000
  0.230769  0.230769  0.000000      6.000000
  0.307692  0.230769  0.000000     12.000000
  0.384615  0.230769  0.000000      6.000000
  0.307692  0.307692  0.000000      6.000000
 
 Following cartesian coordinates:
            Coordinates               Weight
  0.000000  0.000000  0.000000      1.000000
  0.029675  0.000000  0.000000      6.000000
  0.059350  0.000000  0.000000      6.000000
  0.089024  0.000000  0.000000      6.000000
  0.118699  0.000000  0.000000      6.000000
  0.148374  0.000000  0.000000      6.000000
  0.178049  0.000000  0.000000      6.000000
  0.044512  0.025699  0.000000      6.000000
  0.074187  0.025699  0.000000     12.000000
  0.103862  0.025699  0.000000     12.000000
  0.133537  0.025699  0.000000     12.000000
  0.163211  0.025699  0.000000     12.000000
  0.192886  0.025699  0.000000      6.000000
  0.089024  0.051398  0.000000      6.000000
  0.118699  0.051398  0.000000     12.000000
  0.148374  0.051398  0.000000     12.000000
  0.178049  0.051398  0.000000     12.000000
  0.133537  0.077097  0.000000      6.000000
  0.163211  0.077097  0.000000     12.000000
  0.192886  0.077097  0.000000      6.000000
  0.178049  0.102797  0.000000      6.000000
 


--------------------------------------------------------------------------------------------------------




 Dimension of arrays:
   k-points           NKPTS =     21   k-points in BZ     NKDIM =     21   number of bands    NBANDS=     66
   number of dos      NEDOS =    301   number of ions     NIONS =     28
   non local maximal  LDIM  =      5   non local SUM 2l+1 LMDIM =     13
   total plane-waves  NPLWV = 217728
   max r-space proj   IRMAX =      1   max aug-charges    IRDMAX= 195425
   dimension x,y,z NGX =    24 NGY =   24 NGZ =  378
   dimension x,y,z NGXF=    48 NGYF=   48 NGZF=  756
   support grid    NGXF=    96 NGYF=   96 NGZF= 1512
   ions per type =              10  11   7
 NGX,Y,Z   is equivalent  to a cutoff of  13.33, 13.33, 12.87 a.u.
 NGXF,Y,Z  is equivalent  to a cutoff of  26.66, 26.66, 25.73 a.u.


 I would recommend the setting:
   dimension x,y,z NGX =    22 NGY =   22 NGZ =  363
 SYSTEM =  unknown system                          
 POSCAR =  Layer                                   

 Startparameter for this run:
   NWRITE =      2    write-flag & timer
   PREC   = accura    normal or accurate (medium, high low for compatibility)
   ISTART =      0    job   : 0-new  1-cont  2-samecut
   ICHARG =      2    charge: 1-file 2-atom 10-const
   ISPIN  =      1    spin polarized calculation?
   LNONCOLLINEAR =      F non collinear calculations
   LSORBIT =      F    spin-orbit coupling
   INIWAV =      1    electr: 0-lowe 1-rand  2-diag
   LASPH  =      F    aspherical Exc in radial PAW
   METAGGA=      F    non-selfconsistent MetaGGA calc.

 Electronic Relaxation 1
   ENCUT  =  520.0 eV  38.22 Ry    6.18 a.u.   5.57  5.57 90.81*2*pi/ulx,y,z
   ENINI  =  520.0     initial cutoff
   ENAUG  =  605.4 eV  augmentation charge cutoff
   NELM   =    100;   NELMIN=  6; NELMDL=  0     # of ELM steps 
   EDIFF  = 0.1E-04   stopping-criterion for ELM
   LREAL  =      F    real-space projection
   NLSPLINE    = F    spline interpolate recip. space projectors
   LCOMPAT=      F    compatible to vasp.4.4
   GGA_COMPAT  = T    GGA compatible to vasp.4.4-vasp.4.6
   LMAXPAW     = -100 max onsite density
   LMAXMIX     =    2 max onsite mixed and CHGCAR
   VOSKOWN=      0    Vosko Wilk Nusair interpolation
   ROPT   =    0.00000   0.00000   0.00000
 Ionic relaxation
   EDIFFG = -.2E-01   stopping-criterion for IOM
   NSW    =    500    number of steps for IOM
   NBLOCK =      1;   KBLOCK =    500    inner block; outer block 
   IBRION =      2    ionic relax: 0-MD 1-quasi-New 2-CG
   NFREE  =      1    steps in history (QN), initial steepest desc. (CG)
   ISIF   =      2    stress and relaxation
   IWAVPR =     11    prediction:  0-non 1-charg 2-wave 3-comb
   ISYM   =      2    0-nonsym 1-usesym 2-fastsym
   LCORR  =      T    Harris-Foulkes like correction to forces

   POTIM  = 0.5000    time-step for ionic-motion
   TEIN   =    0.0    initial temperature
   TEBEG  =    0.0;   TEEND  =   0.0 temperature during run
   SMASS  =  -3.00    Nose mass-parameter (am)
   estimated Nose-frequenzy (Omega)   =  0.10E-29 period in steps =****** mass=  -0.205E-27a.u.
   SCALEE = 1.0000    scale energy and forces
   NPACO  =    256;   APACO  = 16.0  distance and # of slots for P.C.
   PSTRESS=    0.0 pullay stress

  Mass of Ions in am
   POMASS =  16.00 24.30 26.98
  Ionic Valenz
   ZVAL   =   6.00  2.00  3.00
  Atomic Wigner-Seitz radii
   RWIGS  =  -1.00 -1.00 -1.00
  virtual crystal weights 
   VCA    =   1.00  1.00  1.00
   NELECT =     103.0000    total number of electrons
   NUPDOWN=      -1.0000    fix difference up-down

 DOS related values:
   EMIN   =  10.00;   EMAX   =-10.00  energy-range for DOS
   EFERMI =   0.00
   ISMEAR =     0;   SIGMA  =   0.05  broadening in eV -4-tet -1-fermi 0-gaus

 Electronic relaxation 2 (details)
   IALGO  =     38    algorithm
   LDIAG  =      T    sub-space diagonalisation (order eigenvalues)
   LSUBROT=      F    optimize rotation matrix (better conditioning)
   TURBO    =      0    0=normal 1=particle mesh
   IRESTART =      0    0=no restart 2=restart with 2 vectors
   NREBOOT  =      0    no. of reboots
   NMIN     =      0    reboot dimension
   EREF     =   0.00    reference energy to select bands
   IMIX   =      4    mixing-type and parameters
     AMIX     =   0.40;   BMIX     =  1.00
     AMIX_MAG =   1.60;   BMIX_MAG =  1.00
     AMIN     =   0.01
     WC   =   100.;   INIMIX=   1;  MIXPRE=   1;  MAXMIX= -45

 Intra band minimization:
   WEIMIN = 0.0010     energy-eigenvalue tresh-hold
   EBREAK =  0.38E-07  absolut break condition
   DEPER  =   0.30     relativ break condition  

   TIME   =   0.40     timestep for ELM

  volume/ion in A,a.u.               =      13.53        91.34
  Fermi-wavevector in a.u.,A,eV,Ry     =   1.060443  2.003947 15.300285  1.124539
  Thomas-Fermi vector in A             =   2.195824
 
 Write flags
   LWAVE  =      F    write WAVECAR
   LCHARG =      T    write CHGCAR
   LVTOT  =      F    write LOCPOT, total local potential
   LVHAR  =      F    write LOCPOT, Hartree potential only
   LELF   =      F    write electronic localiz. function (ELF)
   LORBIT =      0    0 simple, 1 ext, 2 COOP (PROOUT)


 Dipole corrections
   LMONO  =      F    monopole corrections only (constant potential shift)
   LDIPOL =      F    correct potential (dipole corrections)
   IDIPOL =      0    1-x, 2-y, 3-z, 4-all directions 
   EPSILON=  1.0000000 bulk dielectric constant

 Exchange correlation treatment:
   GGA     =    --    GGA type
   LEXCH   =     8    internal setting for exchange type
   VOSKOWN=      0    Vosko Wilk Nusair interpolation
   LHFCALC =     F    Hartree Fock is set to
   LHFONE  =     F    Hartree Fock one center treatment
   AEXX    =    0.0000 exact exchange contribution

 Linear response parameters
   LEPSILON=     F    determine dielectric tensor
   LRPA    =     F    only Hartree local field effects (RPA)
   LNABLA  =     F    use nabla operator in PAW spheres
   LVEL    =     F    velocity operator in full k-point grid
   LINTERFAST=   F  fast interpolation
   KINTER  =     0    interpolate to denser k-point grid
   CSHIFT  =0.1000    complex shift for real part using Kramers Kronig
   OMEGAMAX=  -1.0    maximum frequency
   DEG_THRESHOLD= 0.2000000E-02 threshold for treating states as degnerate
   RTIME   =    0.100 relaxation time in fs

 Orbital magnetization related:
   ORBITALMAG=     F  switch on orbital magnetization
   LCHIMAG   =     F  perturbation theory with respect to B field
   DQ        =  0.001000  dq finite difference perturbation B field



--------------------------------------------------------------------------------------------------------


 conjugate gradient relaxation of ions
   using selective dynamics as specified on POSCAR
 charge density and potential will be updated during run
 non-spin polarized calculation
 Variant of blocked Davidson
 Davidson routine will perform the subspace rotation
 perform sub-space diagonalisation
    after iterative eigenvector-optimisation
 modified Broyden-mixing scheme, WC =      100.0
 initial mixing is a Kerker type mixing with AMIX =  0.4000 and BMIX =      1.0000
 Hartree-type preconditioning will be used
 using additional bands           14
 reciprocal scheme for non local part
 use partial core corrections
 calculate Harris-corrections to forces 
   (improved forces if not selfconsistent)
 use gradient corrections 
 use of overlap-Matrix (Vanderbilt PP)
 Gauss-broadening in eV      SIGMA  =   0.05


--------------------------------------------------------------------------------------------------------


  energy-cutoff  :      520.00
  volume of cell :      378.97
      direct lattice vectors                 reciprocal lattice vectors
     2.592201318 -1.496607673  0.000000000     0.385772507  0.000000000  0.000000000
     0.000000000  2.993215347  0.000000000     0.192886253  0.334088892  0.000000000
    -0.000000000  0.000000000 48.841961621     0.000000000  0.000000000  0.020474198

  length of vectors
     2.993216030  2.993215347 48.841961621     0.385772507  0.385772595  0.020474198


 
 k-points in units of 2pi/SCALE and weight: K-Spacing Value to Generate K-Mesh: 0.02
   0.00000000  0.00000000  0.00000000       0.006
   0.02967481  0.00000000  0.00000000       0.036
   0.05934962  0.00000000  0.00000000       0.036
   0.08902442  0.00000000  0.00000000       0.036
   0.11869923  0.00000000  0.00000000       0.036
   0.14837404  0.00000000  0.00000000       0.036
   0.17804885  0.00000000  0.00000000       0.036
   0.04451221  0.02569915  0.00000000       0.036
   0.07418702  0.02569915  0.00000000       0.071
   0.10386183  0.02569915  0.00000000       0.071
   0.13353664  0.02569915  0.00000000       0.071
   0.16321145  0.02569915  0.00000000       0.071
   0.19288625  0.02569915  0.00000000       0.036
   0.08902442  0.05139829  0.00000000       0.036
   0.11869923  0.05139829  0.00000000       0.071
   0.14837404  0.05139829  0.00000000       0.071
   0.17804885  0.05139829  0.00000000       0.071
   0.13353664  0.07709744  0.00000000       0.036
   0.16321145  0.07709744  0.00000000       0.071
   0.19288625  0.07709744  0.00000000       0.036
   0.17804885  0.10279658  0.00000000       0.036
 
 k-points in reciprocal lattice and weights: K-Spacing Value to Generate K-Mesh: 0.02
   0.00000000  0.00000000  0.00000000       0.006
   0.07692308  0.00000000 -0.00000000       0.036
   0.15384615  0.00000000  0.00000000       0.036
   0.23076923  0.00000000  0.00000000       0.036
   0.30769231  0.00000000  0.00000000       0.036
   0.38461538  0.00000000  0.00000000       0.036
   0.46153846  0.00000000  0.00000000       0.036
   0.07692308  0.07692308 -0.00000000       0.036
   0.15384615  0.07692308  0.00000000       0.071
   0.23076923  0.07692308  0.00000000       0.071
   0.30769231  0.07692308  0.00000000       0.071
   0.38461538  0.07692308  0.00000000       0.071
   0.46153846  0.07692308  0.00000000       0.036
   0.15384615  0.15384615  0.00000000       0.036
   0.23076923  0.15384615  0.00000000       0.071
   0.30769231  0.15384615  0.00000000       0.071
   0.38461538  0.15384615  0.00000000       0.071
   0.23076923  0.23076923  0.00000000       0.036
   0.30769231  0.23076923  0.00000000       0.071
   0.38461538  0.23076923  0.00000000       0.036
   0.30769231  0.30769231  0.00000000       0.036
 
 position of ions in fractional coordinates (direct lattice) 
   0.00000000  0.00000000  0.29516159
   0.33333300  0.66666700  0.34603742
   0.00000000  0.00000000  0.44800744
   0.33333300  0.66666700  0.49888346
   0.00000000  0.00000000  0.60062975
   0.33333300  0.66666700  0.65159651
   0.00000000  0.00000000  0.75348360
   0.66666700  0.33333300  0.39704373
   0.66666700  0.33333300  0.54975209
   0.66666700  0.33333300  0.70260580
   0.00000000  0.00000000  0.37150853
   0.00000000  0.00000000  0.52431823
   0.00000000  0.00000000  0.67713274
   0.66666700  0.33333300  0.32052931
   0.66666700  0.33333300  0.47344618
   0.66666700  0.33333300  0.62611537
   0.66666700  0.33333300  0.77995490
   0.33333300  0.66666700  0.26869043
   0.33333300  0.66666700  0.42252401
   0.33333300  0.66666700  0.57519095
   0.33333300  0.66666700  0.72811396
   0.00000000  0.00000000  0.02431958
   0.00000000  0.00000000  0.21892096
   0.66666700  0.33333300  0.17266188
   0.33333300  0.66666700  0.07144974
   0.00000000  0.00000000  0.82972530
   0.66666700  0.33333300  0.97718853
   0.33333300  0.66666700  0.87597900
 
 position of ions in cartesian coordinates  (Angst):
  -0.00000000  0.00000000 14.41627126
   0.86406624  1.49660917 16.90114647
  -0.00000000  0.00000000 21.88156211
   0.86406624  1.49660917 24.36644687
  -0.00000000  0.00000000 29.33593533
   0.86406624  1.49660917 31.82525151
  -0.00000000  0.00000000 36.80161697
   1.72813508 -0.00000150 19.39239466
   1.72813508 -0.00000150 26.85097030
   1.72813508 -0.00000150 34.31664543
  -0.00000000  0.00000000 18.14520520
  -0.00000000  0.00000000 25.60873105
  -0.00000000  0.00000000 33.07249149
   1.72813508 -0.00000150 15.65528020
   1.72813508 -0.00000150 23.12404037
   1.72813508 -0.00000150 30.58070274
   1.72813508 -0.00000150 38.09452748
   0.86406624  1.49660917 13.12336768
   0.86406624  1.49660917 20.63690143
   0.86406624  1.49660917 28.09345447
   0.86406624  1.49660917 35.56251410
  -0.00000000  0.00000000  1.18781605
  -0.00000000  0.00000000 10.69252897
   1.72813508 -0.00000150  8.43314516
   0.86406624  1.49660917  3.48974551
  -0.00000000  0.00000000 40.52541128
   1.72813508 -0.00000150 47.72780457
   0.86406624  1.49660917 42.78453267
 


--------------------------------------------------------------------------------------------------------


 k-point  1 :   0.0000 0.0000 0.0000  plane waves:   10345
 k-point  2 :   0.0769 0.0000-0.0000  plane waves:   10337
 k-point  3 :   0.1538 0.0000 0.0000  plane waves:   10309
 k-point  4 :   0.2308 0.0000 0.0000  plane waves:   10260
 k-point  5 :   0.3077 0.0000 0.0000  plane waves:   10206
 k-point  6 :   0.3846 0.0000 0.0000  plane waves:   10136
 k-point  7 :   0.4615 0.0000 0.0000  plane waves:   10152
 k-point  8 :   0.0769 0.0769-0.0000  plane waves:   10315
 k-point  9 :   0.1538 0.0769 0.0000  plane waves:   10276
 k-point 10 :   0.2308 0.0769 0.0000  plane waves:   10223
 k-point 11 :   0.3077 0.0769 0.0000  plane waves:   10204
 k-point 12 :   0.3846 0.0769 0.0000  plane waves:   10148
 k-point 13 :   0.4615 0.0769 0.0000  plane waves:   10114
 k-point 14 :   0.1538 0.1538 0.0000  plane waves:   10225
 k-point 15 :   0.2308 0.1538 0.0000  plane waves:   10194
 k-point 16 :   0.3077 0.1538 0.0000  plane waves:   10192
 k-point 17 :   0.3846 0.1538 0.0000  plane waves:   10144
 k-point 18 :   0.2308 0.2308 0.0000  plane waves:   10200
 k-point 19 :   0.3077 0.2308 0.0000  plane waves:   10139
 k-point 20 :   0.3846 0.2308 0.0000  plane waves:   10174
 k-point 21 :   0.3077 0.3077 0.0000  plane waves:   10206

 maximum and minimum number of plane-waves per node :      2622     2510

 maximum number of plane-waves:     10345
 maximum index in each direction: 
   IXMAX=    5   IYMAX=    5   IZMAX=   90
   IXMIN=   -6   IYMIN=   -5   IZMIN=  -90

 NGX is ok and might be reduce to  24
 NGY is ok and might be reduce to  22
 NGZ is ok and might be reduce to 362

 parallel 3D FFT for wavefunctions:
    minimum data exchange during FFTs selected (reduces bandwidth)
 parallel 3D FFT for charge:
    minimum data exchange during FFTs selected (reduces bandwidth)


 total amount of memory used by VASP on root node   168531. kBytes
========================================================================

   base      :      30000. kBytes
   nonl-proj :      17948. kBytes
   fftplans  :      65173. kBytes
   grid      :      26127. kBytes
   one-center:         56. kBytes
   wavefun   :      29227. kBytes
 
     INWAV:  cpu time    0.00: real time    0.00
 Broyden mixing: mesh for mixing (old mesh)
   NGX = 11   NGY = 11   NGZ =181
  (NGX  = 48   NGY  = 48   NGZ  =756)
  gives a total of  21901 points

 initial charge density was supplied:
 charge density of overlapping atoms calculated
 number of electron     103.0000000 magnetization 
 keeping initial charge density in first step


--------------------------------------------------------------------------------------------------------


 Maximum index for augmentation-charges        23512 (set IRDMAX)


--------------------------------------------------------------------------------------------------------


 First call to EWALD:  gamma=   0.245
 Maximum number of real-space cells 7x 7x 1
 Maximum number of reciprocal cells 1x 1x16

 FEWALD executed in parallel
    FEWALD:  cpu time    0.00: real time    0.00


----------------------------------------- Iteration    1(   1)  ---------------------------------------


    POTLOK:  cpu time    0.12: real time    0.12
    SETDIJ:  cpu time    0.11: real time    0.11
     EDDAV:  cpu time    5.11: real time    5.13
       DOS:  cpu time    0.00: real time    0.00
    --------------------------------------------
      LOOP:  cpu time    5.34: real time    5.36

 eigenvalue-minimisations  :  2788
 total energy-change (2. order) : 0.5558419E+03  (-0.4490710E+04)
 number of electron     103.0000000 magnetization 
 augmentation part      103.0000000 magnetization 

 Free energy of the ion-electron system (eV)
  ---------------------------------------------------
  alpha Z        PSCENC =       128.09170310
  Ewald energy   TEWEN  =     33178.42044826
  -Hartree energ DENC   =    -38289.06790464
  -exchange      EXHF   =         0.00000000
  -V(xc)+E(xc)   XCENC  =      -440.49306947
  PAW double counting   =      4647.26951674    -3871.08436696
  entropy T*S    EENTRO =        -0.00565507
  eigenvalues    EBANDS =       250.95664447
  atomic energy  EATOM  =      4951.75456612
  ---------------------------------------------------
  free energy    TOTEN  =       555.84188255 eV

  energy without entropy =      555.84753761  energy(sigma->0) =      555.84471008


--------------------------------------------------------------------------------------------------------




----------------------------------------- Iteration    1(   2)  ---------------------------------------


     EDDAV:  cpu time    6.18: real time    6.18
       DOS:  cpu time    0.00: real time    0.00
    --------------------------------------------
      LOOP:  cpu time    6.18: real time    6.18

 eigenvalue-minimisations  :  3604
 total energy-change (2. order) :-0.6453646E+03  (-0.6107731E+03)
 number of electron     103.0000000 magnetization 
 augmentation part      103.0000000 magnetization 

 Free energy of the ion-electron system (eV)
  ---------------------------------------------------
  alpha Z        PSCENC =       128.09170310
  Ewald energy   TEWEN  =     33178.42044826
  -Hartree energ DENC   =    -38289.06790464
  -exchange      EXHF   =         0.00000000
  -V(xc)+E(xc)   XCENC  =      -440.49306947
  PAW double counting   =      4647.26951674    -3871.08436696
  entropy T*S    EENTRO =        -0.00237369
  eigenvalues    EBANDS =      -394.41128302
  atomic energy  EATOM  =      4951.75456612
  ---------------------------------------------------
  free energy    TOTEN  =       -89.52276356 eV

  energy without entropy =      -89.52038988  energy(sigma->0) =      -89.52157672


--------------------------------------------------------------------------------------------------------




----------------------------------------- Iteration    1(   3)  ---------------------------------------


     EDDAV:  cpu time    5.91: real time    5.92
       DOS:  cpu time    0.00: real time    0.00
    --------------------------------------------
      LOOP:  cpu time    5.91: real time    5.92

 eigenvalue-minimisations  :  3256
 total energy-change (2. order) :-0.7005829E+02  (-0.6967372E+02)
 number of electron     103.0000000 magnetization 
 augmentation part      103.0000000 magnetization 

 Free energy of the ion-electron system (eV)
  ---------------------------------------------------
  alpha Z        PSCENC =       128.09170310
  Ewald energy   TEWEN  =     33178.42044826
  -Hartree energ DENC   =    -38289.06790464
  -exchange      EXHF   =         0.00000000
  -V(xc)+E(xc)   XCENC  =      -440.49306947
  PAW double counting   =      4647.26951674    -3871.08436696
  entropy T*S    EENTRO =        -0.00604618
  eigenvalues    EBANDS =      -464.46590109
  atomic energy  EATOM  =      4951.75456612
  ---------------------------------------------------
  free energy    TOTEN  =      -159.58105413 eV

  energy without entropy =     -159.57500795  energy(sigma->0) =     -159.57803104


--------------------------------------------------------------------------------------------------------




----------------------------------------- Iteration    1(   4)  ---------------------------------------


     EDDAV:  cpu time    5.79: real time    5.79
       DOS:  cpu time    0.00: real time    0.00
    --------------------------------------------
      LOOP:  cpu time    5.79: real time    5.79

 eigenvalue-minimisations  :  3208
 total energy-change (2. order) :-0.1305945E+01  (-0.1303272E+01)
 number of electron     103.0000000 magnetization 
 augmentation part      103.0000000 magnetization 

 Free energy of the ion-electron system (eV)
  ---------------------------------------------------
  alpha Z        PSCENC =       128.09170310
  Ewald energy   TEWEN  =     33178.42044826
  -Hartree energ DENC   =    -38289.06790464
  -exchange      EXHF   =         0.00000000
  -V(xc)+E(xc)   XCENC  =      -440.49306947
  PAW double counting   =      4647.26951674    -3871.08436696
  entropy T*S    EENTRO =        -0.00696822
  eigenvalues    EBANDS =      -465.77092423
  atomic energy  EATOM  =      4951.75456612
  ---------------------------------------------------
  free energy    TOTEN  =      -160.88699932 eV

  energy without entropy =     -160.88003109  energy(sigma->0) =     -160.88351520


--------------------------------------------------------------------------------------------------------




----------------------------------------- Iteration    1(   5)  ---------------------------------------


     EDDAV:  cpu time    6.11: real time    6.11
       DOS:  cpu time    0.00: real time    0.00
    CHARGE:  cpu time    0.46: real time    0.46
    MIXING:  cpu time    0.00: real time    0.00
    --------------------------------------------
      LOOP:  cpu time    6.57: real time    6.58

 eigenvalue-minimisations  :  3454
 total energy-change (2. order) :-0.3047876E-01  (-0.3045481E-01)
 number of electron     103.0000001 magnetization 
 augmentation part        7.7265127 magnetization 

 Broyden mixing:
  rms(total) = 0.23163E+01    rms(broyden)= 0.23158E+01
  rms(prec ) = 0.23607E+01
  weight for this iteration     100.00

 Free energy of the ion-electron system (eV)
  ---------------------------------------------------
  alpha Z        PSCENC =       128.09170310
  Ewald energy   TEWEN  =     33178.42044826
  -Hartree energ DENC   =    -38289.06790464
  -exchange      EXHF   =         0.00000000
  -V(xc)+E(xc)   XCENC  =      -440.49306947
  PAW double counting   =      4647.26951674    -3871.08436696
  entropy T*S    EENTRO =        -0.00700166
  eigenvalues    EBANDS =      -465.80136955
  atomic energy  EATOM  =      4951.75456612
  ---------------------------------------------------
  free energy    TOTEN  =      -160.91747808 eV

  energy without entropy =     -160.91047641  energy(sigma->0) =     -160.91397724


--------------------------------------------------------------------------------------------------------




----------------------------------------- Iteration    1(   6)  ---------------------------------------


    POTLOK:  cpu time    0.12: real time    0.12
    SETDIJ:  cpu time    0.11: real time    0.11
     EDDAV:  cpu time    5.68: real time    5.68
       DOS:  cpu time    0.00: real time    0.00
    CHARGE:  cpu time    0.45: real time    0.45
    MIXING:  cpu time    0.01: real time    0.01
    --------------------------------------------
      LOOP:  cpu time    6.37: real time    6.37

 eigenvalue-minimisations  :  3124
 total energy-change (2. order) : 0.1650722E+02  (-0.9290502E+01)
 number of electron     103.0000001 magnetization 
 augmentation part        6.2691636 magnetization 

 Broyden mixing:
  rms(total) = 0.77510E+00    rms(broyden)= 0.77406E+00
  rms(prec ) = 0.78328E+00
  weight for this iteration     100.00

 eigenvalues of (default mixing * dielectric matrix)
  average eigenvalue GAMMA=   0.8459
  0.8459

 Free energy of the ion-electron system (eV)
  ---------------------------------------------------
  alpha Z        PSCENC =       128.09170310
  Ewald energy   TEWEN  =     33178.42044826
  -Hartree energ DENC   =    -38485.92406971
  -exchange      EXHF   =         0.00000000
  -V(xc)+E(xc)   XCENC  =      -426.98482919
  PAW double counting   =      5500.93194499    -4728.24220248
  entropy T*S    EENTRO =        -0.00671232
  eigenvalues    EBANDS =      -262.45111167
  atomic energy  EATOM  =      4951.75456612
  ---------------------------------------------------
  free energy    TOTEN  =      -144.41026291 eV

  energy without entropy =     -144.40355059  energy(sigma->0) =     -144.40690675


--------------------------------------------------------------------------------------------------------




----------------------------------------- Iteration    1(   7)  ---------------------------------------


    POTLOK:  cpu time    0.12: real time    0.12
    SETDIJ:  cpu time    0.11: real time    0.11
     EDDAV:  cpu time    5.51: real time    5.51
       DOS:  cpu time    0.00: real time    0.00
    CHARGE:  cpu time    0.45: real time    0.45
    MIXING:  cpu time    0.01: real time    0.01
    --------------------------------------------
      LOOP:  cpu time    6.19: real time    6.20

 eigenvalue-minimisations  :  3004
 total energy-change (2. order) : 0.1525473E+00  (-0.1891954E+00)
 number of electron     103.0000001 magnetization 
 augmentation part        6.3021108 magnetization 

 Broyden mixing:
  rms(total) = 0.47791E+00    rms(broyden)= 0.47789E+00
  rms(prec ) = 0.48310E+00
  weight for this iteration     100.00

 eigenvalues of (default mixing * dielectric matrix)
  average eigenvalue GAMMA=   1.6205
  0.9847  2.2564

 Free energy of the ion-electron system (eV)
  ---------------------------------------------------
  alpha Z        PSCENC =       128.09170310
  Ewald energy   TEWEN  =     33178.42044826
  -Hartree energ DENC   =    -38486.88658965
  -exchange      EXHF   =         0.00000000
  -V(xc)+E(xc)   XCENC  =      -426.50122672
  PAW double counting   =      5799.53342404    -5026.41354368
  entropy T*S    EENTRO =        -0.00807653
  eigenvalues    EBANDS =      -262.24842056
  atomic energy  EATOM  =      4951.75456612
  ---------------------------------------------------
  free energy    TOTEN  =      -144.25771564 eV

  energy without entropy =     -144.24963911  energy(sigma->0) =     -144.25367737


--------------------------------------------------------------------------------------------------------




----------------------------------------- Iteration    1(   8)  ---------------------------------------


    POTLOK:  cpu time    0.12: real time    0.12
    SETDIJ:  cpu time    0.11: real time    0.11
     EDDAV:  cpu time    5.63: real time    5.64
       DOS:  cpu time    0.00: real time    0.00
    CHARGE:  cpu time    0.45: real time    0.45
    MIXING:  cpu time    0.01: real time    0.01
    --------------------------------------------
      LOOP:  cpu time    6.32: real time    6.33

 eigenvalue-minimisations  :  3094
 total energy-change (2. order) : 0.5714522E-01  (-0.7265918E-01)
 number of electron     103.0000001 magnetization 
 augmentation part        6.3590496 magnetization 

 Broyden mixing:
  rms(total) = 0.11212E+00    rms(broyden)= 0.11208E+00
  rms(prec ) = 0.15488E+00
  weight for this iteration     100.00

 eigenvalues of (default mixing * dielectric matrix)
  average eigenvalue GAMMA=   1.3601
  2.4169  0.9347  0.7286

 Free energy of the ion-electron system (eV)
  ---------------------------------------------------
  alpha Z        PSCENC =       128.09170310
  Ewald energy   TEWEN  =     33178.42044826
  -Hartree energ DENC   =    -38492.43490939
  -exchange      EXHF   =         0.00000000
  -V(xc)+E(xc)   XCENC  =      -425.09728183
  PAW double counting   =      6248.41048153    -5475.01058988
  entropy T*S    EENTRO =        -0.00480350
  eigenvalues    EBANDS =      -258.33018482
  atomic energy  EATOM  =      4951.75456612
  ---------------------------------------------------
  free energy    TOTEN  =      -144.20057042 eV

  energy without entropy =     -144.19576692  energy(sigma->0) =     -144.19816867


--------------------------------------------------------------------------------------------------------




----------------------------------------- Iteration    1(   9)  ---------------------------------------


    POTLOK:  cpu time    0.12: real time    0.12
    SETDIJ:  cpu time    0.11: real time    0.11
     EDDAV:  cpu time    5.63: real time    5.63
       DOS:  cpu time    0.00: real time    0.00
    CHARGE:  cpu time    0.45: real time    0.45
    MIXING:  cpu time    0.00: real time    0.00
    --------------------------------------------
      LOOP:  cpu time    6.31: real time    6.32

 eigenvalue-minimisations  :  3090
 total energy-change (2. order) : 0.7213902E-01  (-0.2592854E-01)
 number of electron     103.0000001 magnetization 
 augmentation part        6.3415414 magnetization 

 Broyden mixing:
  rms(total) = 0.61985E-01    rms(broyden)= 0.61985E-01
  rms(prec ) = 0.65175E-01
  weight for this iteration     100.00

 eigenvalues of (default mixing * dielectric matrix)
  average eigenvalue GAMMA=   1.2898
  2.4356  0.9744  0.8746  0.8746

 Free energy of the ion-electron system (eV)
  ---------------------------------------------------
  alpha Z        PSCENC =       128.09170310
  Ewald energy   TEWEN  =     33178.42044826
  -Hartree energ DENC   =    -38498.36564062
  -exchange      EXHF   =         0.00000000
  -V(xc)+E(xc)   XCENC  =      -424.54220250
  PAW double counting   =      6326.08329395    -5552.70242392
  entropy T*S    EENTRO =        -0.00866199
  eigenvalues    EBANDS =      -252.85951378
  atomic energy  EATOM  =      4951.75456612
  ---------------------------------------------------
  free energy    TOTEN  =      -144.12843139 eV

  energy without entropy =     -144.11976940  energy(sigma->0) =     -144.12410040


--------------------------------------------------------------------------------------------------------




----------------------------------------- Iteration    1(  10)  ---------------------------------------


    POTLOK:  cpu time    0.12: real time    0.12
    SETDIJ:  cpu time    0.11: real time    0.11
     EDDAV:  cpu time    5.94: real time    5.95
       DOS:  cpu time    0.00: real time    0.00
    CHARGE:  cpu time    0.45: real time    0.45
    MIXING:  cpu time    0.01: real time    0.01
    --------------------------------------------
      LOOP:  cpu time    6.63: real time    6.63

 eigenvalue-minimisations  :  3316
 total energy-change (2. order) : 0.4618635E-02  (-0.3525189E-02)
 number of electron     103.0000001 magnetization 
 augmentation part        6.3246600 magnetization 

 Broyden mixing:
  rms(total) = 0.25649E-01    rms(broyden)= 0.25632E-01
  rms(prec ) = 0.26467E-01
  weight for this iteration     100.00

 eigenvalues of (default mixing * dielectric matrix)
  average eigenvalue GAMMA=   1.3167
  2.5638  1.7052  0.9476  0.6835  0.6835

 Free energy of the ion-electron system (eV)
  ---------------------------------------------------
  alpha Z        PSCENC =       128.09170310
  Ewald energy   TEWEN  =     33178.42044826
  -Hartree energ DENC   =    -38500.39302696
  -exchange      EXHF   =         0.00000000
  -V(xc)+E(xc)   XCENC  =      -424.37077303
  PAW double counting   =      6319.18028009    -5545.82635181
  entropy T*S    EENTRO =        -0.00849975
  eigenvalues    EBANDS =      -250.97215876
  atomic energy  EATOM  =      4951.75456612
  ---------------------------------------------------
  free energy    TOTEN  =      -144.12381276 eV

  energy without entropy =     -144.11531301  energy(sigma->0) =     -144.11956288


--------------------------------------------------------------------------------------------------------




----------------------------------------- Iteration    1(  11)  ---------------------------------------


    POTLOK:  cpu time    0.12: real time    0.12
    SETDIJ:  cpu time    0.11: real time    0.11
     EDDAV:  cpu time    5.69: real time    5.69
       DOS:  cpu time    0.00: real time    0.00
    CHARGE:  cpu time    0.45: real time    0.45
    MIXING:  cpu time    0.01: real time    0.01
    --------------------------------------------
      LOOP:  cpu time    6.37: real time    6.38

 eigenvalue-minimisations  :  3146
 total energy-change (2. order) :-0.3143348E-02  (-0.1218050E-02)
 number of electron     103.0000001 magnetization 
 augmentation part        6.3205097 magnetization 

 Broyden mixing:
  rms(total) = 0.19801E-01    rms(broyden)= 0.19794E-01
  rms(prec ) = 0.20874E-01
  weight for this iteration     100.00

 eigenvalues of (default mixing * dielectric matrix)
  average eigenvalue GAMMA=   1.3541
  2.6942  2.0767  0.9703  0.7463  0.8185  0.8185

 Free energy of the ion-electron system (eV)
  ---------------------------------------------------
  alpha Z        PSCENC =       128.09170310
  Ewald energy   TEWEN  =     33178.42044826
  -Hartree energ DENC   =    -38501.71252727
  -exchange      EXHF   =         0.00000000
  -V(xc)+E(xc)   XCENC  =      -424.23542165
  PAW double counting   =      6299.87401502    -5526.53093913
  entropy T*S    EENTRO =        -0.00865949
  eigenvalues    EBANDS =      -249.78014105
  atomic energy  EATOM  =      4951.75456612
  ---------------------------------------------------
  free energy    TOTEN  =      -144.12695611 eV

  energy without entropy =     -144.11829661  energy(sigma->0) =     -144.12262636


--------------------------------------------------------------------------------------------------------




----------------------------------------- Iteration    1(  12)  ---------------------------------------


    POTLOK:  cpu time    0.12: real time    0.12
    SETDIJ:  cpu time    0.11: real time    0.11
     EDDAV:  cpu time    6.42: real time    6.43
       DOS:  cpu time    0.00: real time    0.00
    CHARGE:  cpu time    0.45: real time    0.45
    MIXING:  cpu time    0.00: real time    0.00
    --------------------------------------------
      LOOP:  cpu time    7.10: real time    7.11

 eigenvalue-minimisations  :  3678
 total energy-change (2. order) : 0.8127818E-04  (-0.1662718E-03)
 number of electron     103.0000001 magnetization 
 augmentation part        6.3204261 magnetization 

 Broyden mixing:
  rms(total) = 0.94749E-02    rms(broyden)= 0.94742E-02
  rms(prec ) = 0.97720E-02
  weight for this iteration     100.00

 eigenvalues of (default mixing * dielectric matrix)
  average eigenvalue GAMMA=   1.3674
  2.7148  2.4002  0.9294  0.9294  0.9536  0.9536  0.6912

 Free energy of the ion-electron system (eV)
  ---------------------------------------------------
  alpha Z        PSCENC =       128.09170310
  Ewald energy   TEWEN  =     33178.42044826
  -Hartree energ DENC   =    -38502.03474908
  -exchange      EXHF   =         0.00000000
  -V(xc)+E(xc)   XCENC  =      -424.19864834
  PAW double counting   =      6286.34461513    -5513.01218507
  entropy T*S    EENTRO =        -0.00839398
  eigenvalues    EBANDS =      -249.48423096
  atomic energy  EATOM  =      4951.75456612
  ---------------------------------------------------
  free energy    TOTEN  =      -144.12687483 eV

  energy without entropy =     -144.11848085  energy(sigma->0) =     -144.12267784


--------------------------------------------------------------------------------------------------------




----------------------------------------- Iteration    1(  13)  ---------------------------------------


    POTLOK:  cpu time    0.12: real time    0.12
    SETDIJ:  cpu time    0.12: real time    0.12
     EDDAV:  cpu time    5.81: real time    5.81
       DOS:  cpu time    0.00: real time    0.00
    CHARGE:  cpu time    0.45: real time    0.45
    MIXING:  cpu time    0.01: real time    0.01
    --------------------------------------------
      LOOP:  cpu time    6.51: real time    6.51

 eigenvalue-minimisations  :  3218
 total energy-change (2. order) :-0.4613289E-04  (-0.1726142E-03)
 number of electron     103.0000001 magnetization 
 augmentation part        6.3236888 magnetization 

 Broyden mixing:
  rms(total) = 0.26934E-02    rms(broyden)= 0.26852E-02
  rms(prec ) = 0.32709E-02
  weight for this iteration     100.00

 eigenvalues of (default mixing * dielectric matrix)
  average eigenvalue GAMMA=   1.3653
  2.8743  2.4581  1.1070  1.1070  0.9743  0.8661  0.8661  0.6693

 Free energy of the ion-electron system (eV)
  ---------------------------------------------------
  alpha Z        PSCENC =       128.09170310
  Ewald energy   TEWEN  =     33178.42044826
  -Hartree energ DENC   =    -38501.82327328
  -exchange      EXHF   =         0.00000000
  -V(xc)+E(xc)   XCENC  =      -424.21761725
  PAW double counting   =      6277.80747411    -5504.47268264
  entropy T*S    EENTRO =        -0.00877973
  eigenvalues    EBANDS =      -249.67875965
  atomic energy  EATOM  =      4951.75456612
  ---------------------------------------------------
  free energy    TOTEN  =      -144.12692096 eV

  energy without entropy =     -144.11814123  energy(sigma->0) =     -144.12253110


--------------------------------------------------------------------------------------------------------




----------------------------------------- Iteration    1(  14)  ---------------------------------------


    POTLOK:  cpu time    0.12: real time    0.12
    SETDIJ:  cpu time    0.11: real time    0.11
     EDDAV:  cpu time    5.39: real time    5.39
       DOS:  cpu time    0.00: real time    0.00
    CHARGE:  cpu time    0.45: real time    0.45
    MIXING:  cpu time    0.00: real time    0.00
    --------------------------------------------
      LOOP:  cpu time    6.07: real time    6.07

 eigenvalue-minimisations  :  3046
 total energy-change (2. order) :-0.5051107E-04  (-0.2230813E-04)
 number of electron     103.0000001 magnetization 
 augmentation part        6.3235720 magnetization 

 Broyden mixing:
  rms(total) = 0.18778E-02    rms(broyden)= 0.18776E-02
  rms(prec ) = 0.31494E-02
  weight for this iteration     100.00

 eigenvalues of (default mixing * dielectric matrix)
  average eigenvalue GAMMA=   1.3263
  2.9377  2.5152  1.1935  1.1935  0.8407  0.8407  0.9692  0.8550  0.5914

 Free energy of the ion-electron system (eV)
  ---------------------------------------------------
  alpha Z        PSCENC =       128.09170310
  Ewald energy   TEWEN  =     33178.42044826
  -Hartree energ DENC   =    -38501.91464546
  -exchange      EXHF   =         0.00000000
  -V(xc)+E(xc)   XCENC  =      -424.21556753
  PAW double counting   =      6275.68281793    -5502.34824776
  entropy T*S    EENTRO =        -0.00856561
  eigenvalues    EBANDS =      -249.58948050
  atomic energy  EATOM  =      4951.75456612
  ---------------------------------------------------
  free energy    TOTEN  =      -144.12697147 eV

  energy without entropy =     -144.11840586  energy(sigma->0) =     -144.12268867


--------------------------------------------------------------------------------------------------------




----------------------------------------- Iteration    1(  15)  ---------------------------------------


    POTLOK:  cpu time    0.12: real time    0.12
    SETDIJ:  cpu time    0.11: real time    0.11
     EDDAV:  cpu time    5.30: real time    5.30
       DOS:  cpu time    0.00: real time    0.00
    --------------------------------------------
      LOOP:  cpu time    5.52: real time    5.53

 eigenvalue-minimisations  :  2946
 total energy-change (2. order) :-0.7357347E-05  (-0.8539486E-05)
 number of electron     103.0000001 magnetization 
 augmentation part        6.3235720 magnetization 

 Free energy of the ion-electron system (eV)
  ---------------------------------------------------
  alpha Z        PSCENC =       128.09170310
  Ewald energy   TEWEN  =     33178.42044826
  -Hartree energ DENC   =    -38502.00119131
  -exchange      EXHF   =         0.00000000
  -V(xc)+E(xc)   XCENC  =      -424.21708010
  PAW double counting   =      6274.88745200    -5501.55159297
  entropy T*S    EENTRO =        -0.00870498
  eigenvalues    EBANDS =      -249.50257894
  atomic energy  EATOM  =      4951.75456612
  ---------------------------------------------------
  free energy    TOTEN  =      -144.12697883 eV

  energy without entropy =     -144.11827385  energy(sigma->0) =     -144.12262634


--------------------------------------------------------------------------------------------------------




 average (electrostatic) potential at core
  the test charge radii are     0.7215  1.0714  1.0406
  (the norm of the test charge is              1.0000)
       1 -71.0311       2 -70.9675       3 -70.9779       4 -70.9821       5 -70.9651
       6 -70.9517       7 -71.0333       8 -70.9670       9 -70.9774      10 -70.9564
      11 -36.5491      12 -36.5551      13 -36.5339      14 -36.5414      15 -36.5553
      16 -36.5377      17 -36.6340      18 -36.6226      19 -36.5537      20 -36.5456
      21 -36.5351      22 -75.0859      23 -74.9481      24 -75.1324      25 -75.1479
      26 -74.9562      27 -75.1484      28 -75.1418
 
 
 
 E-fermi :   5.5588     XC(G=0):  -9.7605     alpha+bet :-11.4731


 k-point     1 :       0.0000    0.0000    0.0000
  band No.  band energies     occupation 
      1     -15.3029      2.00000
      2     -15.2303      2.00000
      3     -15.1410      2.00000
      4     -15.0157      2.00000
      5     -14.8626      2.00000
      6     -14.6981      2.00000
      7     -14.5341      2.00000
      8     -14.3833      2.00000
      9     -14.2571      2.00000
     10     -14.1850      2.00000
     11      -4.3440      2.00000
     12      -4.0557      2.00000
     13      -4.0463      2.00000
     14      -2.7131      2.00000
     15      -2.6319      2.00000
     16      -2.5633      2.00000
     17      -2.3412      2.00000
     18      -2.0360      2.00000
     19      -1.6812      2.00000
     20      -1.3115      2.00000
     21      -0.9394      2.00000
     22      -0.5234      2.00000
     23      -0.0475      2.00000
     24       0.0642      2.00000
     25       0.5089      2.00000
     26       1.0519      2.00000
     27       1.2441      2.00000
     28       1.2441      2.00000
     29       1.2915      2.00000
     30       1.2915      2.00000
     31       1.3383      2.00000
     32       1.3383      2.00000
     33       1.4037      2.00000
     34       1.4037      2.00000
     35       1.4847      2.00000
     36       1.4847      2.00000
     37       1.4946      2.00000
     38       1.5687      2.00000
     39       1.5687      2.00000
     40       1.6489      2.00000
     41       1.6489      2.00000
     42       1.7208      2.00000
     43       1.7208      2.00000
     44       1.7841      2.00000
     45       1.7841      2.00000
     46       1.8132      2.00000
     47       1.8132      2.00000
     48       2.3910      2.00000
     49       2.4389      2.00000
     50       3.1215      2.00000
     51       5.6191      0.08826
     52       5.7739      0.00000
     53       6.3759      0.00000
     54       6.7780      0.00000
     55       6.9089      0.00000
     56       7.5464      0.00000
     57       7.9275      0.00000
     58       8.4984      0.00000
     59       8.6564      0.00000
     60       9.1192      0.00000
     61       9.2697      0.00000
     62       9.4954      0.00000
     63       9.5571      0.00000
     64       9.9366      0.00000
     65      10.9575      0.00000
     66      11.9941      0.00000

 k-point     2 :       0.0769    0.0000   -0.0000
  band No.  band energies     occupation 
      1     -15.2495      2.00000
      2     -15.1782      2.00000
      3     -15.0911      2.00000
      4     -14.9687      2.00000
      5     -14.8194      2.00000
      6     -14.6592      2.00000
      7     -14.4997      2.00000
      8     -14.3532      2.00000
      9     -14.2307      2.00000
     10     -14.1612      2.00000
     11      -4.2141      2.00000
     12      -3.9269      2.00000
     13      -3.9174      2.00000
     14      -2.6317      2.00000
     15      -2.5041      2.00000
     16      -2.4824      2.00000
     17      -2.2654      2.00000
     18      -1.9669      2.00000
     19      -1.6185      2.00000
     20      -1.2536      2.00000
     21      -0.8930      2.00000
     22      -0.5061      2.00000
     23      -0.0676      2.00000
     24       0.1846      2.00000
     25       0.4250      2.00000
     26       0.8966      2.00000
     27       1.0160      2.00000
     28       1.0689      2.00000
     29       1.1276      2.00000
     30       1.1969      2.00000
     31       1.2001      2.00000
     32       1.2476      2.00000
     33       1.2672      2.00000
     34       1.2949      2.00000
     35       1.3108      2.00000
     36       1.3609      2.00000
     37       1.4055      2.00000
     38       1.4425      2.00000
     39       1.4564      2.00000
     40       1.5197      2.00000
     41       1.5273      2.00000
     42       1.5960      2.00000
     43       1.6082      2.00000
     44       1.6481      2.00000
     45       1.6809      2.00000
     46       1.7446      2.00000
     47       1.7741      2.00000
     48       2.5074      2.00000
     49       2.5588      2.00000
     50       3.2441      2.00000
     51       5.8015      0.00000
     52       5.9702      0.00000
     53       6.6795      0.00000
     54       6.9526      0.00000
     55       7.1697      0.00000
     56       7.7633      0.00000
     57       8.1441      0.00000
     58       8.7105      0.00000
     59       8.8614      0.00000
     60       9.3505      0.00000
     61       9.5080      0.00000
     62       9.7656      0.00000
     63       9.8351      0.00000
     64      10.1014      0.00000
     65      11.0670      0.00000
     66      12.0318      0.00000

 k-point     3 :       0.1538    0.0000    0.0000
  band No.  band energies     occupation 
      1     -15.0962      2.00000
      2     -15.0290      2.00000
      3     -14.9484      2.00000
      4     -14.8351      2.00000
      5     -14.6970      2.00000
      6     -14.5493      2.00000
      7     -14.4032      2.00000
      8     -14.2694      2.00000
      9     -14.1575      2.00000
     10     -14.0953      2.00000
     11      -3.8252      2.00000
     12      -3.5415      2.00000
     13      -3.5321      2.00000
     14      -2.3971      2.00000
     15      -2.2587      2.00000
     16      -2.1163      2.00000
     17      -2.0581      2.00000
     18      -1.7891      2.00000
     19      -1.4744      2.00000
     20      -1.1378      2.00000
     21      -0.8074      2.00000
     22      -0.4929      2.00000
     23      -0.1880      2.00000
     24       0.1137      2.00000
     25       0.3650      2.00000
     26       0.4421      2.00000
     27       0.5011      2.00000
     28       0.5628      2.00000
     29       0.5789      2.00000
     30       0.6138      2.00000
     31       0.6829      2.00000
     32       0.7955      2.00000
     33       0.9570      2.00000
     34       1.0813      2.00000
     35       1.1260      2.00000
     36       1.1295      2.00000
     37       1.1777      2.00000
     38       1.2450      2.00000
     39       1.2788      2.00000
     40       1.3283      2.00000
     41       1.4072      2.00000
     42       1.4148      2.00000
     43       1.4975      2.00000
     44       1.5244      2.00000
     45       1.5719      2.00000
     46       1.6370      2.00000
     47       1.6673      2.00000
     48       2.8286      2.00000
     49       2.8787      2.00000
     50       3.6071      2.00000
     51       6.2321      0.00000
     52       6.4266      0.00000
     53       7.2835      0.00000
     54       7.5252      0.00000
     55       7.8263      0.00000
     56       8.3208      0.00000
     57       8.6893      0.00000
     58       9.2360      0.00000
     59       9.3440      0.00000
     60       9.8899      0.00000
     61      10.0589      0.00000
     62      10.4014      0.00000
     63      10.4631      0.00000
     64      10.5565      0.00000
     65      10.8079      0.00000
     66      10.9538      0.00000

 k-point     4 :       0.2308    0.0000    0.0000
  band No.  band energies     occupation 
      1     -14.8649      2.00000
      2     -14.8045      2.00000
      3     -14.7345      2.00000
      4     -14.6361      2.00000
      5     -14.5162      2.00000
      6     -14.3892      2.00000
      7     -14.2645      2.00000
      8     -14.1511      2.00000
      9     -14.0559      2.00000
     10     -14.0049      2.00000
     11      -3.1791      2.00000
     12      -2.9042      2.00000
     13      -2.8948      2.00000
     14      -2.0482      2.00000
     15      -1.9402      2.00000
     16      -1.7945      2.00000
     17      -1.6144      2.00000
     18      -1.4750      2.00000
     19      -1.4177      2.00000
     20      -1.2102      2.00000
     21      -0.9936      2.00000
     22      -0.7748      2.00000
     23      -0.5672      2.00000
     24      -0.3823      2.00000
     25      -0.2731      2.00000
     26      -0.2598      2.00000
     27      -0.1512      2.00000
     28      -0.0080      2.00000
     29       0.1493      2.00000
     30       0.3109      2.00000
     31       0.5048      2.00000
     32       0.7248      2.00000
     33       0.9216      2.00000
     34       0.9357      2.00000
     35       0.9704      2.00000
     36       1.0196      2.00000
     37       1.0884      2.00000
     38       1.1082      2.00000
     39       1.1734      2.00000
     40       1.2057      2.00000
     41       1.2618      2.00000
     42       1.2620      2.00000
     43       1.3465      2.00000
     44       1.3925      2.00000
     45       1.4228      2.00000
     46       1.4894      2.00000
     47       1.5206      2.00000
     48       3.3645      2.00000
     49       3.4096      2.00000
     50       4.2070      2.00000
     51       6.8026      0.00000
     52       6.9956      0.00000
     53       7.7510      0.00000
     54       8.3230      0.00000
     55       8.3795      0.00000
     56       8.4594      0.00000
     57       8.5176      0.00000
     58       8.6575      0.00000
     59       9.0117      0.00000
     60       9.4348      0.00000
     61       9.7999      0.00000
     62       9.8825      0.00000
     63      10.0726      0.00000
     64      10.5036      0.00000
     65      10.6956      0.00000
     66      10.9404      0.00000

 k-point     5 :       0.3077    0.0000    0.0000
  band No.  band energies     occupation 
      1     -14.5918      2.00000
      2     -14.5406      2.00000
      3     -14.4853      2.00000
      4     -14.4073      2.00000
      5     -14.3122      2.00000
      6     -14.2125      2.00000
      7     -14.1160      2.00000
      8     -14.0290      2.00000
      9     -13.9549      2.00000
     10     -13.9177      2.00000
     11      -2.2793      2.00000
     12      -2.0382      2.00000
     13      -2.0297      2.00000
     14      -1.8241      2.00000
     15      -1.7935      2.00000
     16      -1.7132      2.00000
     17      -1.6907      2.00000
     18      -1.5934      2.00000
     19      -1.5448      2.00000
     20      -1.3993      2.00000
     21      -1.2704      2.00000
     22      -1.1448      2.00000
     23      -1.0643      2.00000
     24      -1.0062      2.00000
     25      -0.7898      2.00000
     26      -0.5828      2.00000
     27      -0.4759      2.00000
     28      -0.1398      2.00000
     29       0.1932      2.00000
     30       0.4886      2.00000
     31       0.7154      2.00000
     32       0.7607      2.00000
     33       0.8100      2.00000
     34       0.8580      2.00000
     35       0.8599      2.00000
     36       0.9298      2.00000
     37       0.9717      2.00000
     38       1.0160      2.00000
     39       1.0655      2.00000
     40       1.1059      2.00000
     41       1.1586      2.00000
     42       1.1922      2.00000
     43       1.2533      2.00000
     44       1.2699      2.00000
     45       1.3377      2.00000
     46       1.3697      2.00000
     47       2.0911      2.00000
     48       4.1244      2.00000
     49       4.1633      2.00000
     50       5.0094      2.00000
     51       5.8921      0.00000
     52       6.1319      0.00000
     53       6.1431      0.00000
     54       7.4618      0.00000
     55       7.6493      0.00000
     56       7.7398      0.00000
     57       8.6747      0.00000
     58       8.8039      0.00000
     59       8.9378      0.00000
     60       9.0947      0.00000
     61       9.3386      0.00000
     62       9.6613      0.00000
     63      10.0405      0.00000
     64      10.0814      0.00000
     65      10.3364      0.00000
     66      10.7432      0.00000

 k-point     6 :       0.3846    0.0000    0.0000
  band No.  band energies     occupation 
      1     -14.3267      2.00000
      2     -14.2870      2.00000
      3     -14.2494      2.00000
      4     -14.1964      2.00000
      5     -14.1305      2.00000
      6     -14.0626      2.00000
      7     -13.9981      2.00000
      8     -13.9403      2.00000
      9     -13.8892      2.00000
     10     -13.8661      2.00000
     11      -2.2948      2.00000
     12      -2.1872      2.00000
     13      -2.0471      2.00000
     14      -1.9767      2.00000
     15      -1.8861      2.00000
     16      -1.8552      2.00000
     17      -1.7573      2.00000
     18      -1.6760      2.00000
     19      -1.6177      2.00000
     20      -1.5725      2.00000
     21      -1.1305      2.00000
     22      -0.9869      2.00000
     23      -0.9060      2.00000
     24      -0.7660      2.00000
     25      -0.5690      2.00000
     26      -0.2989      2.00000
     27       0.0122      2.00000
     28       0.3011      2.00000
     29       0.5033      2.00000
     30       0.5517      2.00000
     31       0.5545      2.00000
     32       0.6332      2.00000
     33       0.6802      2.00000
     34       0.6828      2.00000
     35       0.7332      2.00000
     36       0.8036      2.00000
     37       0.8907      2.00000
     38       0.9129      2.00000
     39       0.9814      2.00000
     40       1.0686      2.00000
     41       1.0984      2.00000
     42       1.1472      2.00000
     43       1.2158      2.00000
     44       1.2481      2.00000
     45       1.9667      2.00000
     46       1.9746      2.00000
     47       3.1788      2.00000
     48       3.8050      2.00000
     49       4.0651      2.00000
     50       4.0747      2.00000
     51       5.1249      2.00000
     52       5.1619      2.00000
     53       5.4261      1.99982
     54       6.1803      0.00000
     55       6.6121      0.00000
     56       6.6220      0.00000
     57       8.0951      0.00000
     58       8.6088      0.00000
     59       8.7109      0.00000
     60       9.4190      0.00000
     61       9.4496      0.00000
     62       9.5720      0.00000
     63       9.7893      0.00000
     64       9.8336      0.00000
     65      10.2464      0.00000
     66      10.6173      0.00000

 k-point     7 :       0.4615    0.0000    0.0000
  band No.  band energies     occupation 
      1     -14.1357      2.00000
      2     -14.1075      2.00000
      3     -14.0868      2.00000
      4     -14.0590      2.00000
      5     -14.0211      2.00000
      6     -13.9819      2.00000
      7     -13.9449      2.00000
      8     -13.9120      2.00000
      9     -13.8796      2.00000
     10     -13.8653      2.00000
     11      -2.6025      2.00000
     12      -2.4923      2.00000
     13      -2.3495      2.00000
     14      -2.1684      2.00000
     15      -2.1254      2.00000
     16      -2.0437      2.00000
     17      -1.9792      2.00000
     18      -1.9434      2.00000
     19      -1.8612      2.00000
     20      -1.8569      2.00000
     21      -0.4006      2.00000
     22      -0.2800      2.00000
     23      -0.0913      2.00000
     24       0.0961      2.00000
     25       0.2012      2.00000
     26       0.2596      2.00000
     27       0.2640      2.00000
     28       0.3686      2.00000
     29       0.4960      2.00000
     30       0.5634      2.00000
     31       0.6131      2.00000
     32       0.6161      2.00000
     33       0.6609      2.00000
     34       0.6636      2.00000
     35       0.7344      2.00000
     36       0.8217      2.00000
     37       0.8367      2.00000
     38       0.9129      2.00000
     39       1.0005      2.00000
     40       1.0261      2.00000
     41       1.0795      2.00000
     42       1.1483      2.00000
     43       1.1809      2.00000
     44       1.7960      2.00000
     45       2.0208      2.00000
     46       2.2174      2.00000
     47       2.2270      2.00000
     48       3.2590      2.00000
     49       3.2673      2.00000
     50       3.5843      2.00000
     51       4.6261      2.00000
     52       4.7906      2.00000
     53       4.7994      2.00000
     54       6.2009      0.00000
     55       6.3552      0.00000
     56       6.3790      0.00000
     57       7.5482      0.00000
     58       8.0055      0.00000
     59       8.0329      0.00000
     60       9.0275      0.00000
     61       9.3753      0.00000
     62       9.4126      0.00000
     63       9.6313      0.00000
     64       9.9607      0.00000
     65      10.3932      0.00000
     66      10.7845      0.00000

[...]
     17      -1.7467      2.00000
     18      -1.6645      2.00000
     19      -1.5270      2.00000
     20      -1.3831      2.00000
     21      -0.9933      2.00000
     22      -0.8571      2.00000
     23      -0.7259      2.00000
     24      -0.5787      2.00000
     25      -0.3984      2.00000
     26      -0.3886      2.00000
     27      -0.2941      2.00000
     28      -0.2353      2.00000
     29      -0.1627      2.00000
     30      -0.0228      2.00000
     31       0.0524      2.00000
     32       0.1134      2.00000
     33       0.2431      2.00000
     34       0.3494      2.00000
     35       0.4123      2.00000
     36       0.5523      2.00000
     37       0.6164      2.00000
     38       0.6791      2.00000
     39       0.7134      2.00000
     40       0.7410      2.00000
     41       0.7924      2.00000
     42       0.8756      2.00000
     43       0.9769      2.00000
     44       2.0557      2.00000
     45       3.3055      2.00000
     46       3.3317      2.00000
     47       3.5708      2.00000
     48       3.9039      2.00000
     49       3.9336      2.00000
     50       4.7177      2.00000
     51       5.2554      2.00000
     52       5.3455      2.00000
     53       5.4525      1.98829
     54       5.4828      1.90419
     55       6.2444      0.00000
     56       6.2705      0.00000
     57       6.7403      0.00000
     58       6.7686      0.00000
     59       6.9404      0.00000
     60       7.5895      0.00000
     61       7.9575      0.00000
     62       7.9831      0.00000
     63       8.2510      0.00000
     64       9.5352      0.00000
     65       9.5627      0.00000
     66       9.6398      0.00000

 k-point    20 :       0.3846    0.2308    0.0000
  band No.  band energies     occupation 
      1     -14.0675      2.00000
      2     -14.0445      2.00000
      3     -14.0428      2.00000
      4     -14.0213      2.00000
      5     -14.0037      2.00000
      6     -13.9836      2.00000
      7     -13.9628      2.00000
      8     -13.9465      2.00000
      9     -13.9261      2.00000
     10     -13.8993      2.00000
     11      -2.2138      2.00000
     12      -2.1212      2.00000
     13      -1.9808      2.00000
     14      -1.8124      2.00000
     15      -1.7567      2.00000
     16      -1.7214      2.00000
     17      -1.6890      2.00000
     18      -1.6692      2.00000
     19      -1.6311      2.00000
     20      -1.6048      2.00000
     21      -0.8115      2.00000
     22      -0.7697      2.00000
     23      -0.7335      2.00000
     24      -0.7278      2.00000
     25      -0.6466      2.00000
     26      -0.6302      2.00000
     27      -0.5814      2.00000
     28      -0.4213      2.00000
     29      -0.2574      2.00000
     30      -0.0913      2.00000
     31       0.1797      2.00000
     32       0.1988      2.00000
     33       0.3853      2.00000
     34       0.4084      2.00000
     35       0.5265      2.00000
     36       0.5299      2.00000
     37       0.6774      2.00000
     38       0.7794      2.00000
     39       0.8379      2.00000
     40       0.8567      2.00000
     41       1.8083      2.00000
     42       1.8857      2.00000
     43       2.0253      2.00000
     44       2.0557      2.00000
     45       2.2629      2.00000
     46       2.2931      2.00000
     47       3.3427      2.00000
     48       3.7874      2.00000
     49       4.6084      2.00000
     50       4.6338      2.00000
     51       4.9036      2.00000
     52       4.9305      2.00000
     53       5.0339      2.00000
     54       5.3855      1.99999
     55       5.4149      1.99966
     56       6.1077      0.00000
     57       6.5248      0.00000
     58       6.8889      0.00000
     59       7.5308      0.00000
     60       7.5550      0.00000
     61       7.6660      0.00000
     62       7.6921      0.00000
     63       8.6763      0.00000
     64       8.7035      0.00000
     65       8.9662      0.00000
     66       9.2691      0.00000

 k-point    21 :       0.3077    0.3077    0.0000
  band No.  band energies     occupation 
      1     -14.0343      2.00000
      2     -14.0163      2.00000
      3     -14.0159      2.00000
      4     -13.9943      2.00000
      5     -13.9786      2.00000
      6     -13.9667      2.00000
      7     -13.9551      2.00000
      8     -13.9415      2.00000
      9     -13.9239      2.00000
     10     -13.9032      2.00000
     11      -1.8582      2.00000
     12      -1.8566      2.00000
     13      -1.7771      2.00000
     14      -1.7703      2.00000
     15      -1.6655      2.00000
     16      -1.6515      2.00000
     17      -1.5357      2.00000
     18      -1.4619      2.00000
     19      -1.3943      2.00000
     20      -1.3435      2.00000
     21      -1.2294      2.00000
     22      -1.1675      2.00000
     23      -1.0391      2.00000
     24      -0.9946      2.00000
     25      -0.8758      2.00000
     26      -0.8376      2.00000
     27      -0.7311      2.00000
     28      -0.6564      2.00000
     29      -0.5615      2.00000
     30      -0.5250      2.00000
     31       0.1867      2.00000
     32       0.2103      2.00000
     33       0.3965      2.00000
     34       0.5289      2.00000
     35       0.5925      2.00000
     36       0.6141      2.00000
     37       0.6691      2.00000
     38       0.6769      2.00000
     39       0.7064      2.00000
     40       0.8107      2.00000
     41       1.7242      2.00000
     42       2.0106      2.00000
     43       2.0409      2.00000
     44       3.2557      2.00000
     45       3.2977      2.00000
     46       3.4847      2.00000
     47       3.4978      2.00000
     48       3.5155      2.00000
     49       3.7508      2.00000
     50       3.7809      2.00000
     51       4.6746      2.00000
     52       4.7001      2.00000
     53       4.9084      2.00000
     54       5.2613      2.00000
     55       6.0625      0.00000
     56       6.0881      0.00000
     57       6.2587      0.00000
     58       6.3412      0.00000
     59       6.3673      0.00000
     60       7.5977      0.00000
     61       7.7032      0.00000
     62       7.7301      0.00000
     63       8.0049      0.00000
     64       9.1101      0.00000
     65       9.1521      0.00000
     66       9.1934      0.00000


--------------------------------------------------------------------------------------------------------


 soft charge-density along one line, spin component           1
         0         1         2         3         4         5         6         7         8         9
 total charge-density along one line
 
 pseudopotential strength for first ion, spin component:           1
 12.334   0.000 -15.020   0.000   0.000   0.000  -0.003   0.000  -0.000   0.000  -0.000   0.000   0.004   0.000   0.000   0.000
-15.020   0.000  18.310   0.000  -0.000   0.000   0.004   0.000   0.000   0.000   0.000   0.000  -0.005   0.000  -0.000   0.000
  0.000   0.000  -0.000   0.000  -8.522   0.000  -0.000   0.000   0.000   0.000  10.245   0.000   0.000   0.000  -0.000   0.000
 -0.003   0.000   0.004   0.000  -0.000   0.000  -8.524   0.000   0.000   0.000   0.000   0.000  10.248   0.000  -0.000   0.000
 -0.000   0.000   0.000   0.000   0.000   0.000   0.000   0.000  -8.522   0.000  -0.000   0.000  -0.000   0.000  10.245   0.000
 -0.000   0.000   0.000   0.000  10.245   0.000   0.000   0.000  -0.000   0.000 -12.164   0.000  -0.000   0.000   0.000   0.000
  0.004   0.000  -0.005   0.000   0.000   0.000  10.248   0.000  -0.000   0.000  -0.000   0.000 -12.169   0.000   0.000   0.000
  0.000   0.000  -0.000   0.000  -0.000   0.000  -0.000   0.000  10.245   0.000   0.000   0.000   0.000   0.000 -12.164   0.000
 total augmentation occupancy for first ion, spin component:           1
  2.592   0.358   0.000   0.012  -0.000   0.000   0.002  -0.000
  0.358   0.074   0.000   0.007  -0.000  -0.000  -0.003   0.000
  0.000   0.000   2.145   0.000  -0.000   0.256  -0.000  -0.000
  0.012   0.007  -0.000   2.135  -0.000   0.000   0.255  -0.000
 -0.000  -0.000  -0.000  -0.000   2.145  -0.000  -0.000   0.256
  0.000  -0.000   0.256  -0.000   0.000   0.033   0.000  -0.000
  0.002  -0.003  -0.000   0.255  -0.000   0.000   0.035  -0.000
 -0.000   0.000  -0.000  -0.000   0.256  -0.000  -0.000   0.033


------------------------ aborting loop because EDIFF is reached ----------------------------------------


    CHARGE:  cpu time    0.45: real time    0.45
    FORLOC:  cpu time    0.04: real time    0.04
    FORNL :  cpu time    3.83: real time    3.83
    STRESS:  cpu time    4.82: real time    4.83
    FORCOR:  cpu time    0.16: real time    0.16
    FORHAR:  cpu time    0.07: real time    0.07
    MIXING:  cpu time    0.00: real time    0.00
    OFIELD:  cpu time    0.00: real time    0.00

  FORCE on cell =-STRESS in cart. coord.  units (eV):
  Direction    XX          YY          ZZ          XY          YZ          ZX
  --------------------------------------------------------------------------------------
  Alpha Z   128.09170   128.09170   128.09170
  Ewald   37451.30319 37451.30362-40162.44941    -0.00012     0.00004    -0.00019
  Hartree 39108.15784 39108.15776-38157.26964    -0.00000     0.00000     0.00005
  E(xc)    -425.19675  -425.19677  -425.93007     0.00000    -0.00000     0.00000
  Local  -77796.42830-77796.42785 77081.64713    -0.00011    -0.00005     0.00009
  n-local   -41.42013   -53.84988   -44.93437     2.67565    -1.68283     6.25051
  augment    60.28997    60.28973    59.95341     0.00018    -0.00000     0.00000
  Kinetic  1535.00158  1501.27849  1518.57710     1.46648    -0.60960     3.26583
  Fock        0.00000     0.00000     0.00000     0.00000     0.00000     0.00000
  -------------------------------------------------------------------------------------
  Total      -3.27706    -3.27706    -2.31415     0.00000     0.00000     0.00000
  in kB     -13.85463   -13.85462    -9.78366     0.00000     0.00000     0.00000
  external pressure =      -12.50 kB  Pullay stress =        0.00 kB


 VOLUME and BASIS-vectors are now :
 -----------------------------------------------------------------------------
  energy-cutoff  :      520.00
  volume of cell :      378.97
      direct lattice vectors                 reciprocal lattice vectors
     2.592201318 -1.496607673  0.000000000     0.385772507  0.000000000  0.000000000
     0.000000000  2.993215347  0.000000000     0.192886253  0.334088892  0.000000000
    -0.000000000  0.000000000 48.841961621     0.000000000  0.000000000  0.020474198

  length of vectors
     2.993216030  2.993215347 48.841961621     0.385772507  0.385772595  0.020474198


 FORCES acting on ions
    electron-ion (+dipol)            ewald-force                    non-local-force                 convergence-correction
 -----------------------------------------------------------------------------------------------
   -.472E-03 0.823E-03 0.176E+04   -.363E-05 0.276E-05 -.176E+04   -.376E-17 -.141E-17 0.905E+00   0.120E-07 -.197E-07 -.311E-01
   0.587E-03 -.102E-02 0.137E+04   0.586E-04 -.101E-03 -.137E+04   0.453E-18 -.217E-18 0.956E-02   -.498E-08 0.876E-08 -.387E-02
   -.473E-03 0.820E-03 0.589E+03   0.357E-07 -.401E-07 -.589E+03   0.575E-19 -.127E-20 -.145E-01   -.116E-08 0.183E-08 0.496E-02
   0.588E-03 -.102E-02 0.196E+03   0.586E-04 -.102E-03 -.196E+03   -.780E-20 0.212E-19 -.753E-03   0.435E-08 -.698E-08 0.260E-02
   -.473E-03 0.820E-03 -.589E+03   -.398E-07 0.448E-07 0.589E+03   -.574E-19 0.000E+00 0.145E-01   0.222E-08 -.367E-08 -.478E-02
   0.588E-03 -.102E-02 -.981E+03   0.586E-04 -.102E-03 0.981E+03   -.970E-19 0.339E-20 0.227E-01   0.924E-08 -.168E-07 -.830E-02
   -.478E-03 0.824E-03 -.176E+04   0.363E-05 -.276E-05 0.176E+04   0.380E-17 0.152E-17 -.905E+00   0.733E-08 -.137E-07 0.311E-01
   -.153E-02 0.266E-02 0.981E+03   -.586E-04 0.102E-03 -.981E+03   0.997E-19 -.254E-20 -.227E-01   -.239E-07 0.423E-07 0.843E-02
   -.153E-02 0.266E-02 -.196E+03   -.586E-04 0.102E-03 0.196E+03   0.778E-20 -.678E-20 0.753E-03   -.113E-07 0.190E-07 -.242E-02
   -.153E-02 0.266E-02 -.137E+04   -.586E-04 0.101E-03 0.137E+04   -.354E-18 0.000E+00 -.956E-02   0.103E-07 -.180E-07 0.397E-02
   0.230E-04 -.398E-04 0.392E+03   0.566E-08 -.686E-08 -.392E+03   0.228E-20 0.136E-19 -.360E-02   0.122E-08 -.232E-08 0.298E-02
   0.230E-04 -.398E-04 -.669E-03   0.223E-08 -.249E-08 0.117E-01   -.895E-20 0.271E-19 0.000E+00   0.282E-10 -.488E-10 0.281E-04
   0.230E-04 -.399E-04 -.392E+03   -.782E-08 0.928E-08 0.392E+03   -.526E-20 -.136E-19 0.360E-02   -.116E-08 0.220E-08 -.294E-02
   0.679E-04 -.117E-03 0.523E+03   -.502E-04 0.867E-04 -.523E+03   0.552E-18 -.217E-18 -.214E-01   -.321E-11 -.136E-09 -.529E-02
   0.673E-04 -.117E-03 0.131E+03   -.500E-04 0.866E-04 -.131E+03   -.862E-20 0.000E+00 0.334E-03   0.410E-09 -.773E-09 0.187E-02
   0.674E-04 -.117E-03 -.262E+03   -.500E-04 0.866E-04 0.262E+03   0.285E-19 0.271E-19 -.564E-02   0.961E-09 -.178E-08 -.121E-02
   0.444E-04 -.619E-04 -.634E+03   -.259E-04 0.279E-04 0.634E+03   -.328E-17 0.104E-16 -.564E+00   0.101E-08 -.185E-08 0.128E-01
   -.198E-04 0.193E-04 0.634E+03   0.259E-04 -.279E-04 -.634E+03   0.327E-17 -.104E-16 0.564E+00   -.110E-08 0.201E-08 -.128E-01
   -.213E-04 0.369E-04 0.262E+03   0.500E-04 -.866E-04 -.262E+03   -.296E-19 -.542E-19 0.564E-02   -.921E-09 0.171E-08 0.127E-02
   -.213E-04 0.369E-04 -.131E+03   0.500E-04 -.866E-04 0.131E+03   0.119E-19 0.000E+00 -.334E-03   -.394E-09 0.746E-09 -.181E-02
   -.215E-04 0.370E-04 -.523E+03   0.502E-04 -.867E-04 0.523E+03   -.547E-18 -.217E-18 0.214E-01   -.380E-10 0.207E-09 0.531E-02
   0.520E-05 -.901E-05 0.128E-02   -.227E-09 0.225E-09 0.542E-02   -.118E-19 -.271E-19 -.325E-18   -.216E-11 0.374E-11 -.236E-04
   0.392E-05 -.745E-05 0.796E+03   0.139E-05 -.132E-05 -.796E+03   -.686E-17 0.694E-17 -.225E+00   -.601E-10 0.932E-10 -.151E-01
   0.200E-04 -.339E-04 0.676E+03   -.256E-05 0.241E-05 -.674E+03   0.750E-17 -.278E-16 -.173E+01   0.725E-11 -.143E-10 -.124E-01
   -.102E-04 0.170E-04 0.125E+03   0.236E-05 -.222E-05 -.126E+03   -.547E-18 0.555E-16 0.162E+01   0.132E-10 -.269E-10 -.379E-02
   0.463E-05 -.736E-05 -.796E+03   -.139E-05 0.133E-05 0.796E+03   0.686E-17 -.694E-17 0.225E+00   -.509E-10 0.990E-10 0.150E-01
   0.198E-04 -.337E-04 -.125E+03   -.236E-05 0.222E-05 0.126E+03   0.561E-18 -.555E-16 -.162E+01   -.521E-10 0.943E-10 0.374E-02
   -.104E-04 0.173E-04 -.676E+03   0.256E-05 -.241E-05 0.674E+03   0.632E-17 0.139E-16 0.173E+01   -.618E-11 0.124E-10 0.124E-01
 -----------------------------------------------------------------------------------------------
   -.447E-02 0.775E-02 -.615E+00   0.222E-13 0.109E-13 -.114E-11   0.139E-16 -.144E-16 0.444E-15   0.390E-08 -.676E-08 0.540E-03
 
 
 POSITION                                       TOTAL-FORCE (eV/Angst)
 -----------------------------------------------------------------------------------
     -0.00000     -0.00000     14.52664         0.000000      0.000000     -0.015757
      0.86407      1.49661     16.98420        -0.000000     -0.000000      0.005880
     -0.00000      0.00000     21.91306         0.000000     -0.000000     -0.006970
      0.86407      1.49661     24.37668         0.000000     -0.000000      0.000518
     -0.00000     -0.00000     29.30444        -0.000000      0.000000      0.006970
      0.86407      1.49661     31.76828         0.000000     -0.000000      0.011840
     -0.00000      0.00000     36.69124        -0.000000     -0.000000      0.015757
      1.72814     -0.00000     19.44937        -0.000000      0.000000     -0.011840
      1.72814     -0.00000     26.84073        -0.000000      0.000000     -0.000518
      1.72814     -0.00000     34.23359        -0.000000      0.000000     -0.005880
     -0.00000      0.00000     18.21687         0.000000      0.000000     -0.006408
     -0.00000      0.00000     25.60873         0.000000      0.000000      0.000000
     -0.00000     -0.00000     33.00083        -0.000000     -0.000000      0.006408
      1.72814     -0.00000     15.75153        -0.000000      0.000000      0.018777
      1.72814     -0.00000     23.14478        -0.000000      0.000000      0.001869
      1.72814     -0.00000     30.53702         0.000000      0.000000     -0.012729
      1.72814     -0.00000     37.97147         0.000000     -0.000000     -0.019821
      0.86407      1.49661     13.24642        -0.000000      0.000000      0.019821
      0.86407      1.49661     20.68058        -0.000000     -0.000000      0.012729
      0.86407      1.49661     28.07271         0.000000     -0.000000     -0.001869
      0.86407      1.49661     35.46626         0.000000     -0.000000     -0.018777
     -0.00000      0.00000      1.18782         0.000000      0.000000      0.000000
     -0.00000      0.00000     10.84302        -0.000000      0.000000      0.007739
      1.72814     -0.00000      8.60891        -0.000000      0.000000      0.002402
      0.86407      1.49661      3.45883        -0.000000     -0.000000      0.009879
     -0.00000      0.00000     40.37492         0.000000      0.000000     -0.007739
      1.72814     -0.00000     47.75872         0.000000      0.000000     -0.009879
      0.86407      1.49661     42.60877         0.000000     -0.000000     -0.002402
 -----------------------------------------------------------------------------------
    total drift:                               -0.004474      0.007750     -0.614867


--------------------------------------------------------------------------------------------------------



  FREE ENERGIE OF THE ION-ELECTRON SYSTEM (eV)
  ---------------------------------------------------
  free  energy   TOTEN  =      -144.15964510 eV

  energy  without entropy=     -144.15258812  energy(sigma->0) =     -144.15611661
 
 d Force = 0.1717689E-03[ 0.664E-05, 0.337E-03]  d Energy = 0.1581444E-03 0.136E-04
 d Force =-0.1567847E+02[-0.157E+02,-0.157E+02]  d Ewald  =-0.1567847E+02-0.931E-08


--------------------------------------------------------------------------------------------------------


    POTLOK:  cpu time    0.23: real time    0.23


--------------------------------------------------------------------------------------------------------


 Conjugate gradient step on ions:
 trial-energy change:   -0.000158  1 .order   -0.000172   -0.000337   -0.000007
  (g-gl).g = 0.191E-03      g.g   = 0.247E-03  gl.gl    = 0.497E-03
 g(Force)  = 0.247E-03   g(Stress)= 0.000E+00 ortho     =-0.242E-04
 gamma     =   0.38559
 trial     =   1.41823
 opt step  =   1.44675  (harmonic =   1.44675) maximal distance =0.00270482
 next E    =  -144.159659   (d E  =  -0.00017)


--------------------------------------------------------------------------------------------------------


  
 reached required accuracy - stopping structural energy minimisation
     LOOP+:  cpu time   42.52: real time   42.55
    4ORBIT:  cpu time    0.00: real time    0.00

 total amount of memory used by VASP on root node   168531. kBytes
========================================================================

   base      :      30000. kBytes
   nonl-proj :      17948. kBytes
   fftplans  :      65173. kBytes
   grid      :      26127. kBytes
   one-center:         56. kBytes
   wavefun   :      29227. kBytes
 
  
  
 General timing and accounting informations for this job:
 ========================================================
  
                  Total CPU time used (sec):     2385.621
                            User time (sec):     2363.006
                          System time (sec):       22.615
                         Elapsed time (sec):     2387.320
  
                   Maximum memory used (kb):      284048.
                   Average memory used (kb):           0.
  
                          Minor page faults:       377760
                          Major page faults:            0
                 Voluntary context switches:          166
