       N       E                     dE             d eps       ncg     rms          rms(c)
DAV:   1     0.513031550064E+03    0.51303E+03   -0.40683E+04  6092   0.130E+03
DAV:   2    -0.791531773547E+02   -0.59218E+03   -0.56007E+03  7926   0.253E+02
DAV:   3    -0.146285655925E+03   -0.67132E+02   -0.66697E+02  7144   0.916E+01
DAV:   4    -0.147656685347E+03   -0.13710E+01   -0.13678E+01  7232   0.143E+01
DAV:   5    -0.147690505022E+03   -0.33820E-01   -0.33796E-01  7636   0.220E+00    0.221E+01
DAV:   6    -0.132712994052E+03    0.14978E+02   -0.82357E+01  6978   0.289E+01    0.737E+00
DAV:   7    -0.132568420994E+03    0.14457E+00   -0.18741E+00  6724   0.498E+00    0.458E+00
DAV:   8    -0.132437131799E+03    0.13129E+00   -0.62194E-01  6956   0.392E+00    0.102E+00
DAV:   9    -0.132417773419E+03    0.19358E-01   -0.87112E-02  7064   0.131E+00    0.601E-01
DAV:  10    -0.132416027598E+03    0.17458E-02   -0.40271E-02  6918   0.670E-01    0.346E-01
DAV:  11    -0.132419921458E+03   -0.38939E-02   -0.23148E-02  7342   0.613E-01    0.264E-01
DAV:  12    -0.132420192872E+03   -0.27141E-03   -0.39737E-03  7822   0.315E-01    0.178E-01
DAV:  13    -0.132420058744E+03    0.13413E-03   -0.44628E-03  7234   0.290E-01    0.792E-02
DAV:  14    -0.132419946795E+03    0.11195E-03   -0.12603E-03  6940   0.118E-01    0.540E-02
DAV:  15    -0.132419771211E+03    0.17558E-03   -0.41200E-04  6802   0.103E-01    0.295E-02
DAV:  16    -0.132419262311E+03    0.50890E-03   -0.75132E-04  7348   0.234E-01    0.368E-02
DAV:  17    -0.132418933197E+03    0.32911E-03   -0.43017E-04  7864   0.175E-01    0.265E-02
DAV:  18    -0.132418461076E+03    0.47212E-03   -0.29105E-04  9538   0.237E-01    0.137E-02
DAV:  19    -0.132418110643E+03    0.35043E-03   -0.42466E-04  8178   0.283E-01    0.238E-02
DAV:  20    -0.132417979326E+03    0.13132E-03   -0.52863E-04  8970   0.293E-01    0.181E-02
DAV:  21    -0.132417948687E+03    0.30639E-04   -0.50058E-04  7762   0.223E-01    0.224E-02
DAV:  22    -0.132417962353E+03   -0.13666E-04   -0.32376E-04  6782   0.721E-02    0.226E-02
DAV:  23    -0.132417953112E+03    0.92402E-05   -0.37024E-05  6104   0.276E-02
   1 F= -.13241795E+03 E0= -.13241363E+03  d E =-.132418E+03
       N       E                     dE             d eps       ncg     rms          rms(c)
DAV:   1    -0.132419091999E+03   -0.11296E-02   -0.15666E-02  6334   0.556E-01    0.352E-02
DAV:   2    -0.132419168634E+03   -0.76635E-04   -0.11008E-03  7136   0.133E-01    0.373E-02
DAV:   3    -0.132419096918E+03    0.71715E-04   -0.27650E-04  6752   0.439E-02    0.200E-02
DAV:   4    -0.132419086422E+03    0.10496E-04   -0.18427E-05  4184   0.183E-02    0.132E-02
DAV:   5    -0.132419071983E+03    0.14440E-04   -0.15233E-05  4668   0.302E-02    0.604E-03
DAV:   6    -0.132419064158E+03    0.78248E-05   -0.17032E-05  4794   0.330E-02
   2 F= -.13241906E+03 E0= -.13241477E+03  d E =-.111105E-02
       N       E                     dE             d eps       ncg     rms          rms(c)
DAV:   1    -0.132420479804E+03   -0.14078E-02   -0.11729E-01  6138   0.151E+00    0.822E-02
DAV:   2    -0.132421115106E+03   -0.63530E-03   -0.77219E-03  7104   0.311E-01    0.101E-01
DAV:   3    -0.132420455086E+03    0.66002E-03   -0.20477E-03  6910   0.106E-01    0.476E-02
DAV:   4    -0.132420396314E+03    0.58771E-04   -0.10253E-04  7130   0.466E-02    0.317E-02
DAV:   5    -0.132420303286E+03    0.93029E-04   -0.57010E-05  6988   0.734E-02    0.172E-02
DAV:   6    -0.132420224546E+03    0.78739E-04   -0.14239E-04  7678   0.108E-01    0.104E-02
DAV:   7    -0.132420214467E+03    0.10079E-04   -0.10408E-04  6626   0.447E-02    0.973E-03
DAV:   8    -0.132420200272E+03    0.14196E-04   -0.42265E-06  4374   0.303E-02    0.688E-03
DAV:   9    -0.132420165881E+03    0.34391E-04   -0.24401E-05  5846   0.938E-02    0.565E-03
DAV:  10    -0.132420161733E+03    0.41472E-05   -0.35641E-05  6308   0.371E-02
   3 F= -.13242016E+03 E0= -.13241591E+03  d E =-.220862E-02
       N       E                     dE             d eps       ncg     rms          rms(c)
DAV:   1    -0.132420682051E+03   -0.51617E-03   -0.17163E-02  6088   0.557E-01    0.190E-02
DAV:   2    -0.132420720106E+03   -0.38055E-04   -0.44073E-04  6764   0.801E-02    0.135E-02
DAV:   3    -0.132420713644E+03    0.64625E-05   -0.33080E-05  4194   0.167E-02    0.880E-03
DAV:   4    -0.132420710913E+03    0.27310E-05   -0.65108E-06  3642   0.106E-02    0.592E-03
DAV:   5    -0.132420708601E+03    0.23119E-05   -0.38906E-06  3836   0.155E-02    0.274E-03
DAV:   6    -0.132420707924E+03    0.67671E-06   -0.47347E-06  3560   0.112E-02
   4 F= -.13242071E+03 E0= -.13241647E+03  d E =-.546191E-03
       N       E                     dE             d eps       ncg     rms          rms(c)
DAV:   1    -0.132421859951E+03   -0.11514E-02   -0.15415E-01  6076   0.167E+00    0.570E-02
DAV:   2    -0.132422201913E+03   -0.34196E-03   -0.39004E-03  6780   0.235E-01    0.398E-02
DAV:   3    -0.132422142349E+03    0.59564E-04   -0.24243E-04  6420   0.447E-02    0.255E-02
DAV:   4    -0.132422120541E+03    0.21808E-04   -0.45742E-05  5210   0.292E-02    0.176E-02
DAV:   5    -0.132422102097E+03    0.18444E-04   -0.23940E-05  5432   0.447E-02    0.724E-03
DAV:   6    -0.132422095666E+03    0.64304E-05   -0.23388E-05  4976   0.375E-02
   5 F= -.13242210E+03 E0= -.13241790E+03  d E =-.193393E-02
       N       E                     dE             d eps       ncg     rms          rms(c)
DAV:   1    -0.132422735934E+03   -0.63384E-03   -0.61738E-01  6076   0.335E+00    0.115E-01
DAV:   2    -0.132424088011E+03   -0.13521E-02   -0.15718E-02  6764   0.474E-01    0.793E-02
DAV:   3    -0.132423841856E+03    0.24615E-03   -0.99656E-04  7046   0.939E-02    0.506E-02
DAV:   4    -0.132423754940E+03    0.86916E-04   -0.18532E-04  7122   0.608E-02    0.356E-02
DAV:   5    -0.132423672873E+03    0.82067E-04   -0.95517E-05  7302   0.887E-02    0.162E-02
DAV:   6    -0.132423640097E+03    0.32776E-04   -0.12080E-04  7320   0.768E-02    0.110E-02
DAV:   7    -0.132423630067E+03    0.10030E-04   -0.98193E-05  6262   0.416E-02    0.991E-03
DAV:   8    -0.132423608327E+03    0.21740E-04   -0.69564E-06  4206   0.431E-02    0.662E-03
DAV:   9    -0.132423572591E+03    0.35736E-04   -0.25318E-05  5894   0.852E-02    0.581E-03
DAV:  10    -0.132423550126E+03    0.22466E-04   -0.30199E-05  6164   0.770E-02    0.373E-03
DAV:  11    -0.132423525087E+03    0.25039E-04   -0.34416E-05  6462   0.130E-01    0.465E-03
DAV:  12    -0.132423527040E+03   -0.19531E-05   -0.80750E-05  6274   0.490E-02
   6 F= -.13242353E+03 E0= -.13241944E+03  d E =-.336531E-02
       N       E                     dE             d eps       ncg     rms          rms(c)
DAV:   1    -0.132424655744E+03   -0.11307E-02   -0.13704E-01  6212   0.160E+00    0.578E-02
DAV:   2    -0.132424945981E+03   -0.29024E-03   -0.36494E-03  6744   0.246E-01    0.333E-02
DAV:   3    -0.132424925528E+03    0.20453E-04   -0.10687E-04  7126   0.442E-02    0.257E-02
DAV:   4    -0.132424916224E+03    0.93043E-05   -0.64030E-05  4248   0.249E-02    0.173E-02
DAV:   5    -0.132424906132E+03    0.10092E-04   -0.81687E-05  6426   0.355E-02    0.105E-02
DAV:   6    -0.132424903289E+03    0.28435E-05   -0.16105E-05  3590   0.182E-02
   7 F= -.13242490E+03 E0= -.13242089E+03  d E =-.137625E-02
       N       E                     dE             d eps       ncg     rms          rms(c)
DAV:   1    -0.132424638814E+03    0.26732E-03   -0.12332E+00  6196   0.479E+00    0.171E-01
DAV:   2    -0.132427226865E+03   -0.25881E-02   -0.32521E-02  6750   0.732E-01    0.981E-02
DAV:   3    -0.132427026548E+03    0.20032E-03   -0.81217E-04  7234   0.124E-01    0.745E-02
DAV:   4    -0.132426923306E+03    0.10324E-03   -0.49192E-04  6974   0.783E-02    0.484E-02
DAV:   5    -0.132426797771E+03    0.12554E-03   -0.62590E-04  6954   0.112E-01    0.272E-02
DAV:   6    -0.132426762712E+03    0.35058E-04   -0.15928E-04  7044   0.538E-02    0.232E-02
DAV:   7    -0.132426713312E+03    0.49400E-04   -0.64298E-05  6750   0.511E-02    0.108E-02
DAV:   8    -0.132426668095E+03    0.45217E-04   -0.48691E-05  6528   0.639E-02    0.152E-02
DAV:   9    -0.132426660604E+03    0.74911E-05   -0.38653E-05  5656   0.267E-02
   8 F= -.13242666E+03 E0= -.13242286E+03  d E =-.313356E-02
       N       E                     dE             d eps       ncg     rms          rms(c)
DAV:   1    -0.132427501493E+03   -0.83340E-03   -0.35195E-01  6232   0.255E+00    0.809E-02
DAV:   2    -0.132428103071E+03   -0.60158E-03   -0.75395E-03  6794   0.363E-01    0.497E-02
DAV:   3    -0.132428026285E+03    0.76786E-04   -0.27008E-04  7102   0.599E-02    0.340E-02
DAV:   4    -0.132427984006E+03    0.42280E-04   -0.97892E-05  6126   0.390E-02    0.267E-02
DAV:   5    -0.132427906392E+03    0.77614E-04   -0.77196E-05  6432   0.666E-02    0.125E-02
DAV:   6    -0.132427876973E+03    0.29419E-04   -0.53733E-05  6676   0.506E-02    0.915E-03
DAV:   7    -0.132427855455E+03    0.21518E-04   -0.45077E-05  5426   0.383E-02    0.839E-03
DAV:   8    -0.132427818778E+03    0.36677E-04   -0.14967E-05  4622   0.483E-02    0.816E-03
DAV:   9    -0.132427773568E+03    0.45210E-04   -0.21804E-05  5516   0.651E-02    0.627E-03
DAV:  10    -0.132427709059E+03    0.64508E-04   -0.48966E-05  7060   0.120E-01    0.443E-03
DAV:  11    -0.132427663058E+03    0.46001E-04   -0.11718E-04  8520   0.170E-01    0.586E-03
DAV:  12    -0.132427672565E+03   -0.95069E-05   -0.16746E-04  6660   0.674E-02    0.769E-03
DAV:  13    -0.132427674041E+03   -0.14760E-05   -0.28061E-05  5014   0.195E-02
   9 F= -.13242767E+03 E0= -.13242392E+03  d E =-.101344E-02
       N       E                     dE             d eps       ncg     rms          rms(c)
DAV:   1    -0.132427647710E+03    0.24855E-04   -0.41049E-01  6262   0.273E+00    0.874E-02
DAV:   2    -0.132428408304E+03   -0.76059E-03   -0.89670E-03  6772   0.384E-01    0.551E-02
DAV:   3    -0.132428322892E+03    0.85412E-04   -0.34977E-04  7162   0.575E-02    0.359E-02
DAV:   4    -0.132428286378E+03    0.36514E-04   -0.93012E-05  6342   0.349E-02    0.274E-02
DAV:   5    -0.132428253334E+03    0.33044E-04   -0.70984E-05  6444   0.531E-02    0.103E-02
DAV:   6    -0.132428251443E+03    0.18914E-05   -0.54694E-05  6360   0.338E-02
  10 F= -.13242825E+03 E0= -.13242459E+03  d E =-.159084E-02
       N       E                     dE             d eps       ncg     rms          rms(c)
DAV:   1    -0.132429650462E+03   -0.13971E-02   -0.51300E-02  6228   0.989E-01    0.455E-02
DAV:   2    -0.132429765132E+03   -0.11467E-03   -0.15568E-03  6820   0.153E-01    0.399E-02
DAV:   3    -0.132429672413E+03    0.92719E-04   -0.31208E-04  6710   0.434E-02    0.196E-02
DAV:   4    -0.132429657198E+03    0.15215E-04   -0.27245E-05  5186   0.228E-02    0.146E-02
DAV:   5    -0.132429639942E+03    0.17256E-04   -0.67582E-06  4364   0.251E-02    0.842E-03
DAV:   6    -0.132429614614E+03    0.25328E-04   -0.21376E-05  4962   0.456E-02    0.559E-03
DAV:   7    -0.132429607012E+03    0.76017E-05   -0.27616E-05  4386   0.237E-02
  11 F= -.13242961E+03 E0= -.13242597E+03  d E =-.135557E-02
       N       E                     dE             d eps       ncg     rms          rms(c)
DAV:   1    -0.132430459561E+03   -0.84495E-03   -0.15368E-01  6184   0.172E+00    0.804E-02
DAV:   2    -0.132430734702E+03   -0.27514E-03   -0.49964E-03  6820   0.274E-01    0.696E-02
DAV:   3    -0.132430409267E+03    0.32543E-03   -0.10958E-03  7022   0.890E-02    0.341E-02
DAV:   4    -0.132430325364E+03    0.83903E-04   -0.94754E-05  7484   0.458E-02    0.260E-02
DAV:   5    -0.132430215520E+03    0.10984E-03   -0.10685E-05  5070   0.513E-02    0.179E-02
DAV:   6    -0.132429904370E+03    0.31115E-03   -0.14269E-04  8176   0.177E-01    0.176E-02
DAV:   7    -0.132429846227E+03    0.58143E-04   -0.16876E-04  7062   0.665E-02    0.172E-02
DAV:   8    -0.132429650410E+03    0.19582E-03   -0.14691E-04  9450   0.189E-01    0.173E-02
DAV:   9    -0.132429579843E+03    0.70567E-04   -0.10945E-04  7066   0.851E-02    0.147E-02
DAV:  10    -0.132429404723E+03    0.17512E-03   -0.12023E-04  7918   0.237E-01    0.881E-03
DAV:  11    -0.132429333656E+03    0.71067E-04   -0.27281E-04  8132   0.236E-01    0.708E-03
DAV:  12    -0.132429363857E+03   -0.30201E-04   -0.36024E-04  6676   0.776E-02    0.148E-02
DAV:  13    -0.132429365904E+03   -0.20469E-05   -0.33169E-05  5460   0.198E-02
  12 F= -.13242937E+03 E0= -.13242581E+03  d E =-.111446E-02
       N       E                     dE             d eps       ncg     rms          rms(c)
DAV:   1    -0.132429995492E+03   -0.63163E-03   -0.35233E-02  6258   0.819E-01    0.403E-02
DAV:   2    -0.132430062612E+03   -0.67120E-04   -0.11296E-03  6788   0.132E-01    0.337E-02
DAV:   3    -0.132429991309E+03    0.71303E-04   -0.25815E-04  6638   0.421E-02    0.163E-02
DAV:   4    -0.132429974884E+03    0.16424E-04   -0.21658E-05  4824   0.204E-02    0.115E-02
DAV:   5    -0.132429951912E+03    0.22972E-04   -0.68959E-06  4562   0.264E-02    0.676E-03
DAV:   6    -0.132429919995E+03    0.31917E-04   -0.21890E-05  5110   0.479E-02    0.598E-03
DAV:   7    -0.132429908140E+03    0.11854E-04   -0.28616E-05  5082   0.289E-02    0.625E-03
DAV:   8    -0.132429886463E+03    0.21677E-04   -0.68514E-06  4580   0.482E-02    0.452E-03
DAV:   9    -0.132429857726E+03    0.28737E-04   -0.22354E-05  5878   0.743E-02    0.404E-03
DAV:  10    -0.132429831719E+03    0.26007E-04   -0.35231E-05  6354   0.101E-01    0.309E-03
DAV:  11    -0.132429825490E+03    0.62288E-05   -0.58834E-05  7298   0.958E-02
  13 F= -.13242983E+03 E0= -.13242624E+03  d E =-.157405E-02
       N       E                     dE             d eps       ncg     rms          rms(c)
DAV:   1    -0.132430296892E+03   -0.46517E-03   -0.20341E-01  6088   0.193E+00    0.573E-02
DAV:   2    -0.132430683521E+03   -0.38663E-03   -0.43970E-03  6810   0.263E-01    0.354E-02
DAV:   3    -0.132430642570E+03    0.40950E-04   -0.20908E-04  7274   0.468E-02    0.243E-02
DAV:   4    -0.132430621908E+03    0.20663E-04   -0.31839E-05  4548   0.224E-02    0.174E-02
DAV:   5    -0.132430599444E+03    0.22463E-04   -0.44164E-05  6386   0.447E-02    0.759E-03
DAV:   6    -0.132430595472E+03    0.39729E-05   -0.37710E-05  5456   0.292E-02
  14 F= -.13243060E+03 E0= -.13242700E+03  d E =-.769982E-03
       N       E                     dE             d eps       ncg     rms          rms(c)
DAV:   1    -0.132430275765E+03    0.32368E-03   -0.62026E-01  6092   0.336E+00    0.102E-01
DAV:   2    -0.132431459522E+03   -0.11838E-02   -0.13577E-02  6830   0.460E-01    0.630E-02
DAV:   3    -0.132431319491E+03    0.14003E-03   -0.71991E-04  7282   0.857E-02    0.429E-02
DAV:   4    -0.132431249184E+03    0.70307E-04   -0.11064E-04  6834   0.408E-02    0.309E-02
DAV:   5    -0.132431169791E+03    0.79393E-04   -0.13922E-04  7126   0.742E-02    0.147E-02
DAV:   6    -0.132431147534E+03    0.22257E-04   -0.14088E-04  7086   0.553E-02    0.126E-02
DAV:   7    -0.132431140323E+03    0.72110E-05   -0.50672E-05  5808   0.294E-02
  15 F= -.13243114E+03 E0= -.13242754E+03  d E =-.131483E-02
       N       E                     dE             d eps       ncg     rms          rms(c)
DAV:   1    -0.132431386198E+03   -0.23866E-03   -0.52144E-01  6332   0.309E+00    0.943E-02
DAV:   2    -0.132432499924E+03   -0.11137E-02   -0.11876E-02  6562   0.425E-01    0.508E-02
DAV:   3    -0.132432444313E+03    0.55611E-04   -0.15411E-04  7392   0.479E-02    0.347E-02
DAV:   4    -0.132432424426E+03    0.19887E-04   -0.15329E-04  6752   0.398E-02    0.229E-02
DAV:   5    -0.132432399269E+03    0.25157E-04   -0.14335E-04  6866   0.497E-02    0.938E-03
DAV:   6    -0.132432399130E+03    0.13948E-06   -0.31654E-05  5010   0.207E-02
  16 F= -.13243240E+03 E0= -.13242878E+03  d E =-.125881E-02
       N       E                     dE             d eps       ncg     rms          rms(c)
DAV:   1    -0.132425304458E+03    0.70948E-02   -0.46861E+00  6324   0.927E+00    0.278E-01
DAV:   2    -0.132435156107E+03   -0.98516E-02   -0.10628E-01  6550   0.128E+00    0.156E-01
DAV:   3    -0.132434561224E+03    0.59488E-03   -0.10939E-03  7408   0.151E-01    0.106E-01
DAV:   4    -0.132434079947E+03    0.48128E-03   -0.14539E-03  7286   0.188E-01    0.447E-02
DAV:   5    -0.132433956640E+03    0.12331E-03   -0.14801E-03  6924   0.120E-01    0.337E-02
DAV:   6    -0.132433890355E+03    0.66285E-04   -0.18264E-04  7120   0.493E-02    0.236E-02
DAV:   7    -0.132433799088E+03    0.91267E-04   -0.54054E-05  6842   0.439E-02    0.124E-02
DAV:   8    -0.132433671201E+03    0.12789E-03   -0.52636E-05  6646   0.762E-02    0.192E-02
DAV:   9    -0.132433598613E+03    0.72588E-04   -0.64910E-05  6870   0.744E-02    0.174E-02
DAV:  10    -0.132433410821E+03    0.18779E-03   -0.19863E-04 10108   0.204E-01    0.202E-02
DAV:  11    -0.132433327358E+03    0.83462E-04   -0.18532E-04  7526   0.120E-01    0.177E-02
DAV:  12    -0.132433247993E+03    0.79366E-04   -0.91028E-05  7432   0.140E-01    0.112E-02
DAV:  13    -0.132433214100E+03    0.33892E-04   -0.11624E-04  7654   0.144E-01    0.100E-02
DAV:  14    -0.132433224896E+03   -0.10796E-04   -0.21895E-04  6514   0.774E-02    0.135E-02
DAV:  15    -0.132433227085E+03   -0.21889E-05   -0.41344E-05  5482   0.224E-02
  17 F= -.13243323E+03 E0= -.13242954E+03  d E =-.208676E-02
       N       E                     dE             d eps       ncg     rms          rms(c)
DAV:   1    -0.132432708030E+03    0.51687E-03   -0.42289E-01  6320   0.277E+00    0.833E-02
DAV:   2    -0.132433597516E+03   -0.88949E-03   -0.96701E-03  6588   0.380E-01    0.479E-02
DAV:   3    -0.132433541585E+03    0.55930E-04   -0.93277E-05  7486   0.462E-02    0.326E-02
DAV:   4    -0.132433489605E+03    0.51980E-04   -0.13305E-04  6938   0.623E-02    0.108E-02
DAV:   5    -0.132433486002E+03    0.36027E-05   -0.73852E-05  6440   0.305E-02    0.106E-02
DAV:   6    -0.132433482109E+03    0.38932E-05   -0.11481E-05  3744   0.140E-02
  18 F= -.13243348E+03 E0= -.13242982E+03  d E =-.234179E-02
       N       E                     dE             d eps       ncg     rms          rms(c)
DAV:   1    -0.132433610375E+03   -0.12437E-03   -0.22754E-01  6148   0.205E+00    0.643E-02
DAV:   2    -0.132434083712E+03   -0.47334E-03   -0.52670E-03  6616   0.285E-01    0.334E-02
DAV:   3    -0.132434062829E+03    0.20883E-04   -0.16042E-04  7326   0.454E-02    0.245E-02
DAV:   4    -0.132434049911E+03    0.12917E-04   -0.37372E-05  4254   0.169E-02    0.182E-02
DAV:   5    -0.132434034175E+03    0.15736E-04   -0.58681E-05  6056   0.318E-02    0.975E-03
DAV:   6    -0.132434028296E+03    0.58792E-05   -0.24561E-05  3942   0.260E-02
  19 F= -.13243403E+03 E0= -.13243034E+03  d E =-.546187E-03
       N       E                     dE             d eps       ncg     rms          rms(c)
DAV:   1    -0.132430833412E+03    0.32008E-02   -0.20463E+00  6116   0.614E+00    0.191E-01
DAV:   2    -0.132435142221E+03   -0.43088E-02   -0.47151E-02  6600   0.856E-01    0.998E-02
DAV:   3    -0.132434965415E+03    0.17681E-03   -0.10518E-03  7306   0.127E-01    0.718E-02
DAV:   4    -0.132434878207E+03    0.87208E-04   -0.30660E-04  6966   0.534E-02    0.519E-02
DAV:   5    -0.132434767803E+03    0.11040E-03   -0.45068E-04  6918   0.912E-02    0.259E-02
DAV:   6    -0.132434745451E+03    0.22352E-04   -0.16792E-04  7194   0.664E-02    0.242E-02
DAV:   7    -0.132434739062E+03    0.63894E-05   -0.80562E-05  6196   0.350E-02
  20 F= -.13243474E+03 E0= -.13243100E+03  d E =-.125695E-02
       N       E                     dE             d eps       ncg     rms          rms(c)
DAV:   1    -0.132435566868E+03   -0.82142E-03   -0.64859E-02  6160   0.108E+00    0.401E-02
DAV:   2    -0.132435673996E+03   -0.10713E-03   -0.18154E-03  7024   0.170E-01    0.320E-02
DAV:   3    -0.132435617806E+03    0.56190E-04   -0.19442E-04  6812   0.415E-02    0.223E-02
DAV:   4    -0.132435595418E+03    0.22389E-04   -0.18725E-05  5008   0.163E-02    0.167E-02
DAV:   5    -0.132435526798E+03    0.68619E-04   -0.41593E-05  6232   0.434E-02    0.100E-02
DAV:   6    -0.132435491908E+03    0.34890E-04   -0.49381E-05  5632   0.380E-02    0.903E-03
DAV:   7    -0.132435466409E+03    0.25499E-04   -0.24294E-05  4990   0.331E-02    0.769E-03
DAV:   8    -0.132435403849E+03    0.62560E-04   -0.23726E-05  5518   0.810E-02    0.609E-03
DAV:   9    -0.132435350194E+03    0.53655E-04   -0.63326E-05  7304   0.945E-02    0.592E-03
DAV:  10    -0.132435305973E+03    0.44222E-04   -0.58404E-05  7188   0.125E-01    0.391E-03
DAV:  11    -0.132435297941E+03    0.80316E-05   -0.92006E-05  7194   0.879E-02
  21 F= -.13243530E+03 E0= -.13243156E+03  d E =-.558879E-03
       N       E                     dE             d eps       ncg     rms          rms(c)
DAV:   1    -0.132435385022E+03   -0.79050E-04   -0.10031E-02  6298   0.422E-01    0.176E-02
DAV:   2    -0.132435401939E+03   -0.16917E-04   -0.25332E-04  7052   0.637E-02    0.111E-02
DAV:   3    -0.132435396525E+03    0.54137E-05   -0.20953E-05  4408   0.145E-02    0.775E-03
DAV:   4    -0.132435393554E+03    0.29715E-05   -0.34509E-06  3602   0.723E-03    0.527E-03
DAV:   5    -0.132435388178E+03    0.53758E-05   -0.25123E-06  3880   0.164E-02    0.261E-03
DAV:   6    -0.132435385041E+03    0.31366E-05   -0.47525E-06  3878   0.144E-02
  22 F= -.13243539E+03 E0= -.13243165E+03  d E =-.645980E-03
       N       E                     dE             d eps       ncg     rms          rms(c)
DAV:   1    -0.132435299268E+03    0.88910E-04   -0.40087E-02  6208   0.846E-01    0.301E-02
DAV:   2    -0.132435362025E+03   -0.62758E-04   -0.10513E-03  7042   0.131E-01    0.233E-02
DAV:   3    -0.132435331279E+03    0.30747E-04   -0.10558E-04  5842   0.339E-02    0.164E-02
DAV:   4    -0.132435319933E+03    0.11346E-04   -0.11472E-05  4192   0.139E-02    0.130E-02
DAV:   5    -0.132435288597E+03    0.31336E-04   -0.21016E-05  5118   0.274E-02    0.801E-03
DAV:   6    -0.132435264564E+03    0.24033E-04   -0.32011E-05  5682   0.346E-02    0.753E-03
DAV:   7    -0.132435259206E+03    0.53573E-05   -0.16465E-05  4100   0.173E-02
  23 F= -.13243526E+03 E0= -.13243152E+03  d E =-.520145E-03
       N       E                     dE             d eps       ncg     rms          rms(c)
DAV:   1    -0.132435352381E+03   -0.87817E-04   -0.18896E-02  6184   0.581E-01    0.193E-02
DAV:   2    -0.132435381944E+03   -0.29563E-04   -0.41985E-04  7042   0.870E-02    0.140E-02
DAV:   3    -0.132435375569E+03    0.63748E-05   -0.26337E-05  4426   0.231E-02    0.103E-02
DAV:   4    -0.132435372424E+03    0.31452E-05   -0.71472E-06  3602   0.125E-02    0.763E-03
DAV:   5    -0.132435367109E+03    0.53144E-05   -0.59760E-06  4238   0.190E-02    0.421E-03
DAV:   6    -0.132435364248E+03    0.28610E-05   -0.85888E-06  4002   0.205E-02
  24 F= -.13243536E+03 E0= -.13243163E+03  d E =-.625187E-03
       N       E                     dE             d eps       ncg     rms          rms(c)
DAV:   1    -0.132435554134E+03   -0.18702E-03   -0.17588E-01  6220   0.176E+00    0.516E-02
DAV:   2    -0.132435873098E+03   -0.31896E-03   -0.36403E-03  6862   0.242E-01    0.319E-02
DAV:   3    -0.132435845416E+03    0.27681E-04   -0.53054E-05  6556   0.402E-02    0.213E-02
DAV:   4    -0.132435832802E+03    0.12614E-04   -0.37182E-05  4738   0.328E-02    0.145E-02
DAV:   5    -0.132435815000E+03    0.17802E-04   -0.37586E-05  5964   0.456E-02    0.540E-03
DAV:   6    -0.132435814403E+03    0.59688E-06   -0.23408E-05  4406   0.234E-02
  25 F= -.13243581E+03 E0= -.13243210E+03  d E =-.450155E-03
       N       E                     dE             d eps       ncg     rms          rms(c)
DAV:   1    -0.132435740039E+03    0.74961E-04   -0.13228E-01  6220   0.152E+00    0.458E-02
DAV:   2    -0.132435966525E+03   -0.22649E-03   -0.27419E-03  6970   0.213E-01    0.282E-02
DAV:   3    -0.132435938035E+03    0.28490E-04   -0.45960E-05  6784   0.459E-02    0.195E-02
DAV:   4    -0.132435915573E+03    0.22461E-04   -0.32031E-05  5050   0.459E-02    0.129E-02
DAV:   5    -0.132435891972E+03    0.23601E-04   -0.40723E-05  6188   0.531E-02    0.735E-03
DAV:   6    -0.132435887738E+03    0.42346E-05   -0.32871E-05  5492   0.310E-02
  26 F= -.13243589E+03 E0= -.13243219E+03  d E =-.523489E-03
       N       E                     dE             d eps       ncg     rms          rms(c)
DAV:   1    -0.132436138447E+03   -0.24648E-03   -0.17514E-01  6468   0.178E+00    0.575E-02
DAV:   2    -0.132436485378E+03   -0.34693E-03   -0.42592E-03  6738   0.252E-01    0.364E-02
DAV:   3    -0.132436427214E+03    0.58164E-04   -0.15914E-04  6546   0.470E-02    0.263E-02
DAV:   4    -0.132436405726E+03    0.21488E-04   -0.29273E-05  4980   0.217E-02    0.199E-02
DAV:   5    -0.132436341187E+03    0.64539E-04   -0.32849E-05  6228   0.533E-02    0.115E-02
DAV:   6    -0.132436300912E+03    0.40274E-04   -0.42784E-05  6376   0.512E-02    0.823E-03
DAV:   7    -0.132436284817E+03    0.16095E-04   -0.37251E-05  5612   0.304E-02    0.654E-03
DAV:   8    -0.132436236098E+03    0.48719E-04   -0.19299E-05  4954   0.601E-02    0.712E-03
DAV:   9    -0.132436177737E+03    0.58361E-04   -0.56226E-05  7152   0.981E-02    0.741E-03
DAV:  10    -0.132436148669E+03    0.29068E-04   -0.50042E-05  7044   0.883E-02    0.502E-03
DAV:  11    -0.132436125963E+03    0.22706E-04   -0.44924E-05  6716   0.120E-01    0.480E-03
DAV:  12    -0.132436131135E+03   -0.51725E-05   -0.96551E-05  6514   0.513E-02
  27 F= -.13243613E+03 E0= -.13243246E+03  d E =-.243398E-03
       N       E                     dE             d eps       ncg     rms          rms(c)
DAV:   1    -0.132436121397E+03    0.45661E-05   -0.67048E-03  6622   0.350E-01    0.150E-02
DAV:   2    -0.132436130893E+03   -0.94965E-05   -0.17072E-04  6794   0.509E-02    0.814E-03
DAV:   3    -0.132436127578E+03    0.33158E-05   -0.82960E-06  4086   0.136E-02    0.564E-03
DAV:   4    -0.132436125918E+03    0.16600E-05   -0.37316E-06  3428   0.790E-03    0.402E-03
DAV:   5    -0.132436123197E+03    0.27207E-05   -0.24736E-06  4104   0.122E-02    0.231E-03
DAV:   6    -0.132436121780E+03    0.14166E-05   -0.44912E-06  3858   0.115E-02
  28 F= -.13243612E+03 E0= -.13243244E+03  d E =-.234043E-03
       N       E                     dE             d eps       ncg     rms          rms(c)
DAV:   1    -0.132436361504E+03   -0.23831E-03   -0.38780E-02  6444   0.843E-01    0.304E-02
DAV:   2    -0.132436422269E+03   -0.60766E-04   -0.10170E-03  6874   0.140E-01    0.213E-02
DAV:   3    -0.132436406919E+03    0.15350E-04   -0.81262E-05  7020   0.412E-02    0.175E-02
DAV:   4    -0.132436398207E+03    0.87119E-05   -0.13614E-05  3860   0.172E-02    0.130E-02
DAV:   5    -0.132436379550E+03    0.18658E-04   -0.15068E-05  4616   0.309E-02    0.757E-03
DAV:   6    -0.132436365341E+03    0.14209E-04   -0.17956E-05  5052   0.419E-02    0.715E-03
DAV:   7    -0.132436358625E+03    0.67159E-05   -0.26079E-05  5178   0.401E-02
  29 F= -.13243636E+03 E0= -.13243269E+03  d E =-.236845E-03
       N       E                     dE             d eps       ncg     rms          rms(c)
DAV:   1    -0.132436356568E+03    0.87730E-05   -0.23685E-03  6472   0.214E-01    0.846E-03
DAV:   2    -0.132436356591E+03   -0.22909E-07   -0.80900E-05  6770   0.414E-02    0.822E-03
DAV:   3    -0.132436352840E+03    0.37508E-05   -0.36546E-06  3682   0.120E-02    0.655E-03
DAV:   4    -0.132436342318E+03    0.10522E-04   -0.89040E-06  4182   0.293E-02    0.402E-03
DAV:   5    -0.132436338711E+03    0.36070E-05   -0.67656E-06  3674   0.165E-02    0.484E-03
DAV:   6    -0.132436338632E+03    0.79369E-07   -0.42889E-06  3500   0.841E-03
  30 F= -.13243634E+03 E0= -.13243268E+03  d E =-.216851E-03
       N       E                     dE             d eps       ncg     rms          rms(c)
DAV:   1    -0.132436334178E+03    0.45329E-05   -0.19084E-04  6224   0.667E-02    0.421E-03
DAV:   2    -0.132436334506E+03   -0.32782E-06   -0.22537E-05  4424   0.214E-02    0.434E-03
DAV:   3    -0.132436333394E+03    0.11115E-05   -0.29072E-06  3572   0.684E-03    0.306E-03
DAV:   4    -0.132436333260E+03    0.13465E-06   -0.35485E-07  3302   0.225E-03    0.302E-03
DAV:   5    -0.132436332485E+03    0.77467E-06   -0.32767E-07  3290   0.340E-03    0.217E-03
DAV:   6    -0.132436328329E+03    0.41563E-05   -0.70321E-06  4004   0.230E-02
  31 F= -.13243633E+03 E0= -.13243266E+03  d E =-.206548E-03
       N       E                     dE             d eps       ncg     rms          rms(c)
DAV:   1    -0.132436331194E+03    0.12906E-05   -0.30297E-04  5898   0.746E-02    0.695E-03
DAV:   2    -0.132436330756E+03    0.43860E-06   -0.15352E-05  3594   0.183E-02    0.277E-03
DAV:   3    -0.132436330632E+03    0.12327E-06   -0.50785E-06  3478   0.871E-03    0.226E-03
DAV:   4    -0.132436330259E+03    0.37389E-06   -0.80784E-07  3236   0.311E-03    0.172E-03
DAV:   5    -0.132436329861E+03    0.39748E-06   -0.29510E-07  3302   0.348E-03    0.104E-03
DAV:   6    -0.132436329001E+03    0.86015E-06   -0.12132E-06  3796   0.845E-03
  32 F= -.13243633E+03 E0= -.13243266E+03  d E =-.207221E-03
       N       E                     dE             d eps       ncg     rms          rms(c)
DAV:   1    -0.132436329682E+03    0.17898E-06   -0.74123E-05  5732   0.372E-02    0.323E-03
DAV:   2    -0.132436329668E+03    0.14144E-07   -0.37898E-06  3362   0.871E-03    0.117E-03
DAV:   3    -0.132436329611E+03    0.56460E-07   -0.11326E-06  3290   0.363E-03    0.986E-04
DAV:   4    -0.132436329527E+03    0.84562E-07   -0.16443E-07  3170   0.128E-03    0.742E-04
DAV:   5    -0.132436329441E+03    0.86266E-07   -0.63763E-08  3128   0.166E-03    0.466E-04
DAV:   6    -0.132436329326E+03    0.11496E-06   -0.16241E-07  3290   0.255E-03
  33 F= -.13243633E+03 E0= -.13243266E+03  d E =-.207545E-03
       N       E                     dE             d eps       ncg     rms          rms(c)
DAV:   1    -0.132436329549E+03   -0.10835E-06   -0.18205E-05  4226   0.187E-02    0.114E-03
DAV:   2    -0.132436329599E+03   -0.49505E-07   -0.10510E-06  3158   0.474E-03    0.652E-04
DAV:   3    -0.132436329569E+03    0.29991E-07   -0.24165E-07  3110   0.172E-03    0.492E-04
DAV:   4    -0.132436329549E+03    0.19277E-07   -0.32517E-08  3092   0.686E-04    0.423E-04
DAV:   5    -0.132436329513E+03    0.36603E-07   -0.20044E-08  3110   0.106E-03    0.270E-04
DAV:   6    -0.132436329465E+03    0.47482E-07   -0.61004E-08  3182   0.171E-03
  34 F= -.13243633E+03 E0= -.13243266E+03  d E =-.207685E-03
       N       E                     dE             d eps       ncg     rms          rms(c)
DAV:   1    -0.132436388021E+03   -0.58508E-04   -0.41079E-03  6240   0.273E-01    0.885E-03
DAV:   2    -0.132436392829E+03   -0.48083E-05   -0.85213E-05  6626   0.406E-02    0.556E-03
DAV:   3    -0.132436391533E+03    0.12959E-05   -0.46132E-06  3626   0.103E-02    0.429E-03
DAV:   4    -0.132436390657E+03    0.87581E-06   -0.23215E-06  3562   0.612E-03    0.327E-03
DAV:   5    -0.132436389137E+03    0.15207E-05   -0.21480E-06  3818   0.754E-03    0.191E-03
DAV:   6    -0.132436388230E+03    0.90634E-06   -0.15020E-06  3640   0.845E-03
  35 F= -.13243639E+03 E0= -.13243272E+03  d E =-.587652E-04
