  19  19   0   0
  0.1525485E+02  0.3004406E-09  0.3004406E-09  0.3707778E-08  0.5000000E-15
  1.000000000000000E-004
  CAR 
 Al110                                   
     11.13475447    -20.58503626  301     -1.66402358      1.00000000
    -20.585  0.0000E+00  0.0000E+00
    -20.479  0.0000E+00  0.0000E+00
    -20.374  0.0000E+00  0.0000E+00
    -20.268  0.0000E+00  0.0000E+00
    -20.162  0.0000E+00  0.0000E+00
    -20.056  0.0000E+00  0.0000E+00
    -19.951  0.0000E+00  0.0000E+00
    -19.845  0.0000E+00  0.0000E+00
    -19.739  0.0000E+00  0.0000E+00
    -19.633  0.0000E+00  0.0000E+00
    -19.528  0.0000E+00  0.0000E+00
    -19.422  0.1903E-17  0.2012E-18
    -19.316  0.5851E-09  0.6186E-10
    -19.211  0.3378E-04  0.3572E-05
    -19.105  0.1239E-02  0.1346E-03
    -18.999  0.2353E-02  0.3833E-03
    -18.893  0.4297E-02  0.8377E-03
    -18.788  0.5718E-02  0.1442E-02
    -18.682  0.6474E-02  0.2127E-02
    -18.576  0.7697E-02  0.2941E-02
    -18.470  0.1186E-01  0.4194E-02
    -18.365  0.1197E-01  0.5460E-02
    -18.259  0.1451E-01  0.6994E-02
    -18.153  0.1990E-01  0.9098E-02
    -18.047  0.2717E-01  0.1197E-01
    -17.942  0.3776E-01  0.1596E-01
    -17.836  0.5017E-01  0.2127E-01
    -17.730  0.5965E-01  0.2757E-01
    -17.625  0.3501E-01  0.3128E-01
    -17.519  0.6788E-02  0.3199E-01
    -17.413  0.1021E-03  0.3200E-01
    -17.307  0.2528E-02  0.3227E-01
    -17.202  0.7587E-02  0.3307E-01
    -17.096  0.1002E-01  0.3413E-01
    -16.990  0.1532E-01  0.3575E-01
    -16.884  0.2106E-01  0.3798E-01
    -16.779  0.1485E-01  0.3955E-01
    -16.673  0.4232E-02  0.4000E-01
    -16.567  0.2156E-04  0.4000E-01
    -16.461  0.1062E-09  0.4000E-01
    -16.356  0.1313E-18  0.4000E-01
    -16.250  0.0000E+00  0.4000E-01
    -16.144  0.0000E+00  0.4000E-01
    -16.039  0.0000E+00  0.4000E-01
    -15.933  0.0000E+00  0.4000E-01
    -15.827  0.0000E+00  0.4000E-01
    -15.721  0.0000E+00  0.4000E-01
    -15.616  0.0000E+00  0.4000E-01
    -15.510  0.0000E+00  0.4000E-01
    -15.404  0.0000E+00  0.4000E-01
    -15.298  0.0000E+00  0.4000E-01
    -15.193  0.0000E+00  0.4000E-01
    -15.087  0.0000E+00  0.4000E-01
    -14.981  0.0000E+00  0.4000E-01
    -14.875  0.0000E+00  0.4000E-01
    -14.770  0.0000E+00  0.4000E-01
    -14.664  0.0000E+00  0.4000E-01
    -14.558  0.0000E+00  0.4000E-01
    -14.453  0.0000E+00  0.4000E-01
    -14.347  0.0000E+00  0.4000E-01
    -14.241  0.0000E+00  0.4000E-01
    -14.135  0.0000E+00  0.4000E-01
    -14.030  0.0000E+00  0.4000E-01
    -13.924  0.0000E+00  0.4000E-01
    -13.818  0.0000E+00  0.4000E-01
    -13.712  0.0000E+00  0.4000E-01
    -13.607  0.0000E+00  0.4000E-01
    -13.501  0.0000E+00  0.4000E-01
    -13.395  0.0000E+00  0.4000E-01
    -13.289  0.0000E+00  0.4000E-01
    -13.184  0.0000E+00  0.4000E-01
    -13.078  0.0000E+00  0.4000E-01
    -12.972  0.0000E+00  0.4000E-01
    -12.867  0.0000E+00  0.4000E-01
    -12.761  0.0000E+00  0.4000E-01
    -12.655  0.0000E+00  0.4000E-01
    -12.549  0.0000E+00  0.4000E-01
    -12.444  0.0000E+00  0.4000E-01
    -12.338  0.0000E+00  0.4000E-01
    -12.232  0.0000E+00  0.4000E-01
    -12.126  0.0000E+00  0.4000E-01
    -12.021  0.0000E+00  0.4000E-01
    -11.915  0.0000E+00  0.4000E-01
    -11.809  0.0000E+00  0.4000E-01
    -11.703  0.0000E+00  0.4000E-01
    -11.598  0.0000E+00  0.4000E-01
    -11.492  0.0000E+00  0.4000E-01
    -11.386  0.0000E+00  0.4000E-01
    -11.281  0.0000E+00  0.4000E-01
    -11.175  0.0000E+00  0.4000E-01
    -11.069  0.0000E+00  0.4000E-01
    -10.963  0.0000E+00  0.4000E-01
    -10.858  0.0000E+00  0.4000E-01
    -10.752  0.0000E+00  0.4000E-01
    -10.646  0.0000E+00  0.4000E-01
    -10.540  0.0000E+00  0.4000E-01
    -10.435  0.0000E+00  0.4000E-01
    -10.329  0.0000E+00  0.4000E-01
    -10.223  0.0000E+00  0.4000E-01
    -10.118  0.0000E+00  0.4000E-01
    -10.012  0.0000E+00  0.4000E-01
     -9.906  0.0000E+00  0.4000E-01
     -9.800  0.0000E+00  0.4000E-01
     -9.695  0.0000E+00  0.4000E-01
     -9.589  0.0000E+00  0.4000E-01
     -9.483  0.0000E+00  0.4000E-01
     -9.377  0.0000E+00  0.4000E-01
     -9.272  0.0000E+00  0.4000E-01
     -9.166  0.0000E+00  0.4000E-01
     -9.060  0.0000E+00  0.4000E-01
     -8.954  0.0000E+00  0.4000E-01
     -8.849  0.0000E+00  0.4000E-01
     -8.743  0.0000E+00  0.4000E-01
     -8.637  0.0000E+00  0.4000E-01
     -8.532  0.0000E+00  0.4000E-01
     -8.426  0.0000E+00  0.4000E-01
     -8.320  0.0000E+00  0.4000E-01
     -8.214  0.0000E+00  0.4000E-01
     -8.109  0.0000E+00  0.4000E-01
     -8.003  0.0000E+00  0.4000E-01
     -7.897  0.0000E+00  0.4000E-01
     -7.791  0.0000E+00  0.4000E-01
     -7.686  0.0000E+00  0.4000E-01
     -7.580  0.0000E+00  0.4000E-01
     -7.474  0.0000E+00  0.4000E-01
     -7.368  0.0000E+00  0.4000E-01
     -7.263  0.0000E+00  0.4000E-01
     -7.157  0.0000E+00  0.4000E-01
     -7.051  0.0000E+00  0.4000E-01
     -6.946  0.0000E+00  0.4000E-01
     -6.840  0.0000E+00  0.4000E-01
     -6.734  0.1063E-16  0.4000E-01
     -6.628  0.2262E-08  0.4000E-01
     -6.523  0.9490E-04  0.4001E-01
     -6.417  0.3391E-02  0.4037E-01
     -6.311  0.3725E-02  0.4076E-01
     -6.205  0.6064E-02  0.4140E-01
     -6.100  0.6668E-02  0.4211E-01
     -5.994  0.1250E-01  0.4343E-01
     -5.888  0.1349E-01  0.4486E-01
     -5.782  0.2196E-01  0.4718E-01
     -5.677  0.3024E-01  0.5038E-01
     -5.571  0.3623E-01  0.5421E-01
     -5.465  0.3777E-01  0.5820E-01
     -5.360  0.2553E-01  0.6090E-01
     -5.254  0.1854E-01  0.6286E-01
     -5.148  0.1701E-01  0.6466E-01
     -5.042  0.1588E-01  0.6634E-01
     -4.937  0.7883E-02  0.6717E-01
     -4.831  0.1159E-01  0.6840E-01
     -4.725  0.1130E-01  0.6959E-01
     -4.619  0.1465E-01  0.7114E-01
     -4.514  0.1559E-01  0.7279E-01
     -4.408  0.2473E-01  0.7541E-01
     -4.302  0.1725E-01  0.7723E-01
     -4.196  0.1466E-01  0.7878E-01
     -4.091  0.2113E-01  0.8101E-01
     -3.985  0.1834E-01  0.8295E-01
     -3.879  0.1884E-01  0.8494E-01
     -3.774  0.2479E-01  0.8757E-01
     -3.668  0.2244E-01  0.8994E-01
     -3.562  0.1760E-01  0.9180E-01
     -3.456  0.3448E-01  0.9545E-01
     -3.351  0.3540E-01  0.9919E-01
     -3.245  0.3560E-01  0.1030E+00
     -3.139  0.4116E-01  0.1073E+00
     -3.033  0.4089E-01  0.1116E+00
     -2.928  0.4317E-01  0.1162E+00
     -2.822  0.5564E-01  0.1221E+00
     -2.716  0.6043E-01  0.1285E+00
     -2.610  0.4336E-01  0.1330E+00
     -2.505  0.3248E-01  0.1365E+00
     -2.399  0.2843E-01  0.1395E+00
     -2.293  0.2276E-01  0.1419E+00
     -2.188  0.1846E-01  0.1438E+00
     -2.082  0.1263E-01  0.1452E+00
     -1.976  0.8864E-02  0.1461E+00
     -1.870  0.1075E-01  0.1473E+00
     -1.765  0.2554E-01  0.1500E+00
     -1.659  0.5893E-01  0.1562E+00
     -1.553  0.2044E-01  0.1583E+00
     -1.447  0.7781E-02  0.1592E+00
     -1.342  0.5126E-02  0.1597E+00
     -1.236  0.2484E-02  0.1600E+00
     -1.130  0.2244E-03  0.1600E+00
     -1.024  0.4947E-07  0.1600E+00
     -0.919  0.2576E-14  0.1600E+00
     -0.813  0.0000E+00  0.1600E+00
     -0.707  0.0000E+00  0.1600E+00
     -0.602  0.0000E+00  0.1600E+00
     -0.496  0.0000E+00  0.1600E+00
     -0.390  0.0000E+00  0.1600E+00
     -0.284  0.0000E+00  0.1600E+00
     -0.179  0.0000E+00  0.1600E+00
     -0.073  0.0000E+00  0.1600E+00
      0.033  0.0000E+00  0.1600E+00
      0.139  0.0000E+00  0.1600E+00
      0.244  0.0000E+00  0.1600E+00
      0.350  0.0000E+00  0.1600E+00
      0.456  0.0000E+00  0.1600E+00
      0.561  0.0000E+00  0.1600E+00
      0.667  0.0000E+00  0.1600E+00
      0.773  0.0000E+00  0.1600E+00
      0.879  0.0000E+00  0.1600E+00
      0.984  0.0000E+00  0.1600E+00
      1.090  0.0000E+00  0.1600E+00
      1.196  0.0000E+00  0.1600E+00
      1.302  0.0000E+00  0.1600E+00
      1.407  0.0000E+00  0.1600E+00
      1.513  0.0000E+00  0.1600E+00
      1.619  0.0000E+00  0.1600E+00
      1.725  0.0000E+00  0.1600E+00
      1.830  0.0000E+00  0.1600E+00
      1.936  0.0000E+00  0.1600E+00
      2.042  0.0000E+00  0.1600E+00
      2.147  0.0000E+00  0.1600E+00
      2.253  0.0000E+00  0.1600E+00
      2.359  0.0000E+00  0.1600E+00
      2.465  0.0000E+00  0.1600E+00
      2.570  0.1595E-16  0.1600E+00
      2.676  0.2254E-08  0.1600E+00
      2.782  0.6085E-04  0.1600E+00
      2.888  0.1019E-02  0.1601E+00
      2.993  0.1028E-03  0.1601E+00
      3.099  0.8791E-07  0.1601E+00
      3.205  0.2415E-03  0.1602E+00
      3.311  0.1090E-02  0.1603E+00
      3.416  0.1000E-02  0.1604E+00
      3.522  0.3265E-04  0.1604E+00
      3.628  0.2713E-04  0.1604E+00
      3.733  0.9660E-03  0.1605E+00
      3.839  0.6277E-03  0.1605E+00
      3.945  0.2154E-02  0.1608E+00
      4.051  0.9683E-03  0.1609E+00
      4.156  0.9860E-03  0.1610E+00
      4.262  0.1384E-02  0.1611E+00
      4.368  0.2326E-02  0.1614E+00
      4.474  0.2539E-03  0.1614E+00
      4.579  0.2225E-02  0.1616E+00
      4.685  0.2254E-02  0.1619E+00
      4.791  0.8726E-03  0.1620E+00
      4.897  0.2491E-02  0.1622E+00
      5.002  0.2961E-02  0.1625E+00
      5.108  0.9236E-03  0.1626E+00
      5.214  0.2852E-02  0.1629E+00
      5.319  0.3071E-02  0.1633E+00
      5.425  0.5187E-02  0.1638E+00
      5.531  0.4643E-02  0.1643E+00
      5.637  0.4373E-02  0.1648E+00
      5.742  0.3433E-02  0.1651E+00
      5.848  0.3458E-02  0.1655E+00
      5.954  0.1185E-01  0.1667E+00
      6.060  0.6784E-02  0.1675E+00
      6.165  0.5723E-02  0.1681E+00
      6.271  0.4779E-02  0.1686E+00
      6.377  0.5552E-02  0.1692E+00
      6.483  0.1132E-01  0.1704E+00
      6.588  0.7029E-02  0.1711E+00
      6.694  0.4831E-02  0.1716E+00
      6.800  0.8511E-02  0.1725E+00
      6.905  0.1044E-01  0.1736E+00
      7.011  0.1339E-01  0.1750E+00
      7.117  0.6395E-02  0.1757E+00
      7.223  0.5103E-02  0.1763E+00
      7.328  0.1564E-01  0.1779E+00
      7.434  0.1005E-01  0.1790E+00
      7.540  0.1384E-01  0.1804E+00
      7.646  0.1395E-01  0.1819E+00
      7.751  0.1779E-01  0.1838E+00
      7.857  0.1759E-01  0.1856E+00
      7.963  0.1510E-01  0.1872E+00
      8.069  0.1497E-01  0.1888E+00
      8.174  0.2254E-01  0.1912E+00
      8.280  0.1124E-01  0.1924E+00
      8.386  0.8517E-02  0.1933E+00
      8.491  0.9104E-02  0.1943E+00
      8.597  0.1191E-01  0.1955E+00
      8.703  0.1002E-01  0.1966E+00
      8.809  0.9220E-02  0.1976E+00
      8.914  0.5944E-02  0.1982E+00
      9.020  0.6388E-02  0.1989E+00
      9.126  0.3694E-02  0.1992E+00
      9.232  0.6053E-03  0.1993E+00
      9.337  0.3509E-02  0.1997E+00
      9.443  0.1826E-02  0.1999E+00
      9.549  0.5376E-05  0.1999E+00
      9.654  0.1636E-03  0.1999E+00
      9.760  0.9849E-03  0.2000E+00
      9.866  0.3371E-04  0.2000E+00
      9.972  0.5851E-09  0.2000E+00
     10.077  0.1838E-17  0.2000E+00
     10.183  0.0000E+00  0.2000E+00
     10.289  0.0000E+00  0.2000E+00
     10.395  0.0000E+00  0.2000E+00
     10.500  0.0000E+00  0.2000E+00
     10.606  0.0000E+00  0.2000E+00
     10.712  0.0000E+00  0.2000E+00
     10.818  0.0000E+00  0.2000E+00
     10.923  0.0000E+00  0.2000E+00
     11.029  0.0000E+00  0.2000E+00
     11.135  0.0000E+00  0.2000E+00
