 vasp.5.4.4.18Apr17-6-g9f103f2a35 (build Nov 15 2019 10:10:58) complex          
  
 executed on             LinuxIFC date 2024.06.26  20:04:39
 running on   20 total cores
 distrk:  each k-point on   20 cores,    1 groups
 distr:  one band on NCORES_PER_BAND=   4 cores,    5 groups


--------------------------------------------------------------------------------------------------------


 INCAR:
 POTCAR:    PAW_PBE Mg 13Apr2007                  
 POTCAR:    PAW_PBE O 08Apr2002                   
 POTCAR:    PAW_PBE Mg 13Apr2007                  
   VRHFIN =Mg: s2p0                                                             
   LEXCH  = PE                                                                  
   EATOM  =    23.0369 eV,    1.6932 Ry                                         
                                                                                
   TITEL  = PAW_PBE Mg 13Apr2007                                                
   LULTRA =        F    use ultrasoft PP ?                                      
   IUNSCR =        1    unscreen: 0-lin 1-nonlin 2-no                           
   RPACOR =    1.500    partial core radius                                     
   POMASS =   24.305; ZVAL   =    2.000    mass and valenz                      
   RCORE  =    2.000    outmost cutoff radius                                   
   RWIGS  =    2.880; RWIGS  =    1.524    wigner-seitz radius (au A)           
   ENMAX  =  200.000; ENMIN  =  100.000 eV                                      
   RCLOC  =    1.506    cutoff for local pot                                    
   LCOR   =        T    correct aug charges                                     
   LPAW   =        T    paw PP                                                  
   EAUG   =  454.734                                                            
   DEXC   =    0.000                                                            
   RMAX   =    2.045    core radius for proj-oper                               
   RAUG   =    1.300    factor for augmentation sphere                          
   RDEP   =    2.025    radius for radial grids                                 
   RDEPT  =    1.942    core radius for aug-charge                              
                                                                                
   Atomic configuration                                                         
    6 entries                                                                   
     n  l   j            E        occ.                                          
     1  0  0.50     -1259.6230   2.0000                                         
     2  0  0.50       -79.8442   2.0000                                         
     2  1  1.50       -46.6121   6.0000                                         
     3  0  0.50        -4.7055   2.0000                                         
     3  1  0.50        -1.3660   0.0000                                         
     3  2  1.50        -1.3606   0.0000                                         
   Description                                                                  
     l       E           TYP  RCUT    TYP  RCUT                                 
     0     -4.7054661     23  2.000                                             
     0     27.2116520     23  2.000                                             
     1      1.3605826     23  2.000                                             
     1     27.2116520     23  2.000                                             
     2     -1.3605826     23  2.000                                             
  local pseudopotential read in
  partial core-charges read in
  partial kinetic energy density read in
  atomic valenz-charges read in
  non local Contribution for L=           0  read in
    real space projection operators read in
  non local Contribution for L=           0  read in
    real space projection operators read in
  non local Contribution for L=           1  read in
    real space projection operators read in
  non local Contribution for L=           1  read in
    real space projection operators read in
  non local Contribution for L=           2  read in
    real space projection operators read in
    PAW grid and wavefunctions read in
 
   number of l-projection  operators is LMAX  =           5
   number of lm-projection operators is LMMAX =          13
 
 POTCAR:    PAW_PBE O 08Apr2002                   
   VRHFIN =O: s2p4                                                              
   LEXCH  = PE                                                                  
   EATOM  =   432.3788 eV,   31.7789 Ry                                         
                                                                                
   TITEL  = PAW_PBE O 08Apr2002                                                 
   LULTRA =        F    use ultrasoft PP ?                                      
   IUNSCR =        1    unscreen: 0-lin 1-nonlin 2-no                           
   RPACOR =    1.200    partial core radius                                     
   POMASS =   16.000; ZVAL   =    6.000    mass and valenz                      
   RCORE  =    1.520    outmost cutoff radius                                   
   RWIGS  =    1.550; RWIGS  =    0.820    wigner-seitz radius (au A)           
   ENMAX  =  400.000; ENMIN  =  300.000 eV                                      
   ICORE  =        2    local potential                                         
   LCOR   =        T    correct aug charges                                     
   LPAW   =        T    paw PP                                                  
   EAUG   =  605.392                                                            
   DEXC   =    0.000                                                            
   RMAX   =    1.553    core radius for proj-oper                               
   RAUG   =    1.300    factor for augmentation sphere                          
   RDEP   =    1.550    radius for radial grids                                 
   RDEPT  =    1.329    core radius for aug-charge                              
                                                                                
   Atomic configuration                                                         
    4 entries                                                                   
     n  l   j            E        occ.                                          
     1  0  0.50      -514.6923   2.0000                                         
     2  0  0.50       -23.9615   2.0000                                         
     2  1  0.50        -9.0305   4.0000                                         
     3  2  1.50        -9.5241   0.0000                                         
   Description                                                                  
     l       E           TYP  RCUT    TYP  RCUT                                 
     0    -23.9615318     23  1.200                                             
     0     -9.5240782     23  1.200                                             
     1     -9.0304911     23  1.520                                             
     1      8.1634956     23  1.520                                             
     2     -9.5240782      7  1.500                                             
  local pseudopotential read in
  partial core-charges read in
  partial kinetic energy density read in
  kinetic energy density of atom read in
  atomic valenz-charges read in
  non local Contribution for L=           0  read in
    real space projection operators read in
  non local Contribution for L=           0  read in
    real space projection operators read in
  non local Contribution for L=           1  read in
    real space projection operators read in
  non local Contribution for L=           1  read in
    real space projection operators read in
    PAW grid and wavefunctions read in
 
   number of l-projection  operators is LMAX  =           4
   number of lm-projection operators is LMMAX =           8
 
 Optimization of the real space projectors (new method)

 maximal supplied QI-value         = 18.90
 optimisation between [QCUT,QGAM] = [ 10.77, 27.02] = [ 32.49,204.49] Ry 
 Optimized for a Real-space Cutoff    1.14 Angstroem

   l    n(q)    QCUT    max X(q) W(low)/X(q) W(high)/X(q)  e(spline) 
   0      9    10.771    28.265    0.55E-04    0.11E-03    0.18E-06
   0      9    10.771    10.429    0.35E-04    0.89E-04    0.15E-06
   1      9    10.771    13.073    0.36E-03    0.68E-04    0.34E-06
   1      9    10.771     9.625    0.30E-03    0.60E-04    0.28E-06
   2      8    10.771     4.652    0.10E-03    0.16E-03    0.22E-06
 Optimization of the real space projectors (new method)

 maximal supplied QI-value         = 24.76
 optimisation between [QCUT,QGAM] = [ 10.64, 26.98] = [ 31.73,203.89] Ry 
 Optimized for a Real-space Cutoff    0.98 Angstroem

   l    n(q)    QCUT    max X(q) W(low)/X(q) W(high)/X(q)  e(spline) 
   0      8    10.645    20.381    0.22E-03    0.11E-04    0.15E-06
   0      8    10.645    15.268    0.23E-03    0.14E-04    0.16E-06
   1      7    10.645     5.964    0.39E-03    0.37E-03    0.76E-07
   1      7    10.645     5.382    0.33E-03    0.32E-03    0.66E-07
  PAW_PBE Mg 13Apr2007                  :
 energy of atom  1       EATOM=  -23.0369
 kinetic energy error for atom=    0.0001 (will be added to EATOM!!)
  PAW_PBE O 08Apr2002                   :
 energy of atom  2       EATOM= -432.3788
 kinetic energy error for atom=    0.0389 (will be added to EATOM!!)
 
 
 POSCAR: MgO19                                   
  positions in direct lattice
  velocities in cartesian coordinates
  No initial velocities read in
 exchange correlation table for  LEXCH =        8
   RHO(1)=    0.500       N(1)  =     2000
   RHO(2)=  100.500       N(2)  =     4000

 VTST: version 3.2, (02/03/18)

 CHAIN: initializing optimizer
 
 OPT: Using VASP Conjugate-Gradient optimizer
 CHAIN: Read ICHAIN            0
 
 POSCAR: MgO19                                   
  positions in direct lattice
  velocities in cartesian coordinates
  No initial velocities read in
 


--------------------------------------------------------------------------------------------------------


 ion  position               nearest neighbor table
   1  0.000  0.000  0.126-  17 2.12  14 2.12  17 2.12  14 2.12  17 2.12  14 2.12   7 3.00   7 3.00
                             7 3.00   2 3.00   2 3.00   2 3.00
   2  0.333  0.667  0.192-  11 2.12  11 2.12  11 2.12  14 2.12  14 2.12  14 2.12   8 3.00   8 3.00
                             8 3.00   1 3.00   1 3.00   1 3.00
   3  0.000  0.000  0.325-  15 2.12  18 2.12  15 2.12  18 2.12  15 2.12  18 2.12   4 3.00   4 3.00
                             4 3.00   8 3.00   8 3.00   8 3.00
   4  0.333  0.667  0.391-  15 2.12  15 2.12  15 2.12  12 2.12  12 2.12  12 2.12   3 3.00   3 3.00
                             3 3.00   9 3.00   9 3.00   9 3.00
   5  0.000  0.000  0.523-  16 2.12  16 2.12  16 2.12  19 2.12  19 2.12  19 2.12   6 3.00   6 3.00
                             6 3.00   9 3.00   9 3.00   9 3.00
   6  0.333  0.667  0.589-  13 2.12  16 2.12  16 2.12  13 2.12  13 2.12  16 2.12   5 3.00   5 3.00
                             5 3.00
   7  0.667  0.333  0.060-  17 2.12  17 2.12  17 2.12  10 2.12  10 2.12  10 2.12   1 3.00   1 3.00
                             1 3.00
   8  0.667  0.333  0.259-  11 2.12  11 2.12  11 2.12  18 2.12  18 2.12  18 2.12   2 3.00   2 3.00
                             2 3.00   3 3.00   3 3.00   3 3.00
   9  0.667  0.333  0.457-  12 2.12  19 2.12  19 2.12  12 2.12  12 2.12  19 2.12   4 3.00   5 3.00
                             4 3.00   5 3.00   5 3.00   4 3.00
  10  0.000  0.000  0.027-   7 2.12   7 2.12   7 2.12
  11  0.000  0.000  0.225-   2 2.12   8 2.12   2 2.12   8 2.12   2 2.12   8 2.12
  12  0.000  0.000  0.424-   9 2.12   9 2.12   9 2.12   4 2.12   4 2.12   4 2.12
  13  0.000  0.000  0.622-   6 2.12   6 2.12   6 2.12
  14  0.667  0.333  0.159-   1 2.12   1 2.12   1 2.12   2 2.12   2 2.12   2 2.12
  15  0.667  0.333  0.358-   3 2.12   4 2.12   4 2.12   3 2.12   3 2.12   4 2.12
  16  0.667  0.333  0.556-   5 2.12   6 2.12   6 2.12   5 2.12   5 2.12   6 2.12
  17  0.333  0.667  0.093-   1 2.12   7 2.12   7 2.12   1 2.12   1 2.12   7 2.12
  18  0.333  0.667  0.292-   3 2.12   3 2.12   3 2.12   8 2.12   8 2.12   8 2.12
  19  0.333  0.667  0.490-   9 2.12   9 2.12   9 2.12   5 2.12   5 2.12   5 2.12
 
  LATTYP: Found a hexagonal cell.
 ALAT       =     3.0044062036
 C/A-ratio  =    12.3411345745
  
  Lattice vectors:
  
 A1 = (   2.1244360000,  -2.1244350000,   0.0000000000)
 A2 = (   0.0000000000,   2.1244360000,  -2.1244360000)
 A3 = (  21.4068670000,  21.4068670000,  21.4068670000)


Analysis of symmetry for initial positions (statically):
=====================================================================
 Subroutine PRICEL returns:
 Original cell was already a primitive cell.
 

 Routine SETGRP: Setting up the symmetry group for a 
 hexagonal supercell.


 Subroutine GETGRP returns: Found 12 space group operations
 (whereof  6 operations were pure point group operations)
 out of a pool of 24 trial point group operations.


The static configuration has the point symmetry C_3v.
 The point group associated with its full space group is D_3d.


Analysis of symmetry for dynamics (positions and initial velocities):
=====================================================================
 Subroutine PRICEL returns:
 Original cell was already a primitive cell.
 

 Routine SETGRP: Setting up the symmetry group for a 
 hexagonal supercell.


 Subroutine GETGRP returns: Found 12 space group operations
 (whereof  6 operations were pure point group operations)
 out of a pool of 24 trial point group operations.


The dynamic configuration has the point symmetry C_3v.
 The point group associated with its full space group is D_3d.


Analysis of constrained symmetry for selective dynamics:
=====================================================================
 Subroutine PRICEL returns:
 Original cell was already a primitive cell.
 

 Routine SETGRP: Setting up the symmetry group for a 
 hexagonal supercell.


 Subroutine GETGRP returns: Found  6 space group operations
 (whereof  6 operations were pure point group operations)
 out of a pool of 24 trial point group operations.


The constrained configuration has the point symmetry C_3v.


 Subroutine INISYM returns: Found  6 space group operations
 (whereof  6 operations are pure point group operations),
 and found     1 'primitive' translations

 
 
 KPOINTS: K-Spacing Value to Generate K-Mesh: 0.02

Automatic generation of k-mesh.
Space group operators:
 irot       det(A)        alpha          n_x          n_y          n_z        tau_x        tau_y        tau_z
    1     1.000000     0.000000     1.000000     0.000000     0.000000     0.000000     0.000000     0.000000
    2     1.000000   120.000000    -0.577350    -0.577350    -0.577350     0.000000     0.000000     0.000000
    3     1.000000   120.000000     0.577350     0.577350     0.577350     0.000000     0.000000     0.000000
    4    -1.000000   180.000000     0.707107    -0.707107    -0.000000     0.000000     0.000000     0.000000
    5    -1.000000   180.000000     0.000000    -0.707107     0.707107     0.000000     0.000000     0.000000
    6    -1.000000   180.000000    -0.707107     0.000000     0.707107     0.000000     0.000000     0.000000
 
 Subroutine IBZKPT returns following result:
 ===========================================
 
 Found     20 irreducible k-points:
 
 Following reciprocal coordinates:
            Coordinates               Weight
  0.062500  0.062500  0.000000     48.000000
  0.187500  0.062500  0.000000     96.000000
  0.312500  0.062500 -0.000000     96.000000
  0.437500  0.062500 -0.000000     96.000000
 -0.437500  0.062500  0.000000     96.000000
 -0.312500  0.062500  0.000000     96.000000
 -0.187500  0.062500  0.000000     96.000000
 -0.062500  0.062500  0.000000     48.000000
  0.187500  0.187500  0.000000     48.000000
  0.312500  0.187500 -0.000000     96.000000
  0.437500  0.187500  0.000000     96.000000
 -0.437500  0.187500  0.000000     96.000000
 -0.312500  0.187500 -0.000000     96.000000
 -0.187500  0.187500  0.000000     48.000000
  0.312500  0.312500  0.000000     48.000000
  0.437500  0.312500  0.000000     96.000000
 -0.437500  0.312500  0.000000     96.000000
 -0.312500  0.312500  0.000000     48.000000
  0.437500  0.437500  0.000000     48.000000
 -0.437500  0.437500  0.000000     48.000000
 
 Following cartesian coordinates:
            Coordinates               Weight
  0.029420  0.000000 -0.029420     48.000000
  0.068646 -0.019613 -0.049033     96.000000
  0.107872 -0.039226 -0.068646     96.000000
  0.147098 -0.058839 -0.088259     96.000000
 -0.127485  0.078452  0.049033     96.000000
 -0.088259  0.058839  0.029420     96.000000
 -0.049033  0.039226  0.009807     96.000000
 -0.009807  0.019613 -0.009807     48.000000
  0.088259  0.000000 -0.088259     48.000000
  0.127485 -0.019613 -0.107872     96.000000
  0.166711 -0.039226 -0.127485     96.000000
 -0.107872  0.098065  0.009807     96.000000
 -0.068646  0.078452 -0.009807     96.000000
 -0.029420  0.058839 -0.029420     48.000000
  0.147098  0.000000 -0.147098     48.000000
  0.186324 -0.019613 -0.166711     96.000000
 -0.088259  0.117678 -0.029420     96.000000
 -0.049033  0.098065 -0.049033     48.000000
  0.205937  0.000000 -0.205937     48.000000
 -0.068646  0.137291 -0.068646     48.000000
 


--------------------------------------------------------------------------------------------------------




 Dimension of arrays:
   k-points           NKPTS =     20   k-points in BZ     NKDIM =     20   number of bands    NBANDS=     50
   number of dos      NEDOS =    301   number of ions     NIONS =     19
   non local maximal  LDIM  =      5   non local SUM 2l+1 LMDIM =     13
   total plane-waves  NPLWV = 155520
   max r-space proj   IRMAX =   3360   max aug-charges    IRDMAX=   7703
   dimension x,y,z NGX =    24 NGY =   24 NGZ =  270
   dimension x,y,z NGXF=    32 NGYF=   32 NGZF=  400
   support grid    NGXF=    32 NGYF=   32 NGZF=  400
   ions per type =               9  10
   NGX,Y,Z   is equivalent  to a cutoff of  13.28, 13.28, 12.11 a.u.
   NGXF,Y,Z  is equivalent  to a cutoff of  17.71, 17.71, 17.93 a.u.

 SYSTEM =  Al110                                   
 POSCAR =  MgO19                                   

 Startparameter for this run:
   NWRITE =      2    write-flag & timer
   PREC   = h         normal or accurate (medium, high low for compatibility)
   ISTART =      0    job   : 0-new  1-cont  2-samecut
   ICHARG =      2    charge: 1-file 2-atom 10-const
   ISPIN  =      1    spin polarized calculation?
   LNONCOLLINEAR =      F non collinear calculations
   LSORBIT =      F    spin-orbit coupling
   INIWAV =      1    electr: 0-lowe 1-rand  2-diag
   LASPH  =      F    aspherical Exc in radial PAW
   METAGGA=      F    non-selfconsistent MetaGGA calc.

 Electronic Relaxation 1
   ENCUT  =  450.0 eV  33.07 Ry    5.75 a.u.   5.20  5.20 64.13*2*pi/ulx,y,z
   ENINI  =  450.0     initial cutoff
   ENAUG  =  605.4 eV  augmentation charge cutoff
   NELM   =    100;   NELMIN=  8; NELMDL=  8     # of ELM steps 
   EDIFF  = 0.1E-04   stopping-criterion for ELM
   LREAL  =      T    real-space projection
   NLSPLINE    = F    spline interpolate recip. space projectors
   LCOMPAT=      F    compatible to vasp.4.4
   GGA_COMPAT  = T    GGA compatible to vasp.4.4-vasp.4.6
   LMAXPAW     = -100 max onsite density
   LMAXMIX     =    2 max onsite mixed and CHGCAR
   VOSKOWN=      0    Vosko Wilk Nusair interpolation
   ROPT   =   -0.00040  -0.00040
 Ionic relaxation
   EDIFFG = -.1E-01   stopping-criterion for IOM
   NSW    =    500    number of steps for IOM
   NBLOCK =      1;   KBLOCK =    500    inner block; outer block 
   IBRION =      2    ionic relax: 0-MD 1-quasi-New 2-CG
   NFREE  =      1    steps in history (QN), initial steepest desc. (CG)
   ISIF   =      2    stress and relaxation
   IWAVPR =     11    prediction:  0-non 1-charg 2-wave 3-comb
   ISYM   =      2    0-nonsym 1-usesym 2-fastsym
   LCORR  =      T    Harris-Foulkes like correction to forces

   POTIM  = 0.5000    time-step for ionic-motion
   TEIN   =    0.0    initial temperature
   TEBEG  =    0.0;   TEEND  =   0.0 temperature during run
   SMASS  =  -3.00    Nose mass-parameter (am)
   estimated Nose-frequenzy (Omega)   =  0.10E-29 period in steps =****** mass=  -0.206E-27a.u.
   SCALEE = 1.0000    scale energy and forces
   NPACO  =    256;   APACO  = 16.0  distance and # of slots for P.C.
   PSTRESS=    0.0 pullay stress

  Mass of Ions in am
   POMASS =  24.30 16.00
  Ionic Valenz
   ZVAL   =   2.00  6.00
  Atomic Wigner-Seitz radii
   RWIGS  =  -1.00 -1.00
  virtual crystal weights 
   VCA    =   1.00  1.00
   NELECT =      78.0000    total number of electrons
   NUPDOWN=      -1.0000    fix difference up-down

 DOS related values:
   EMIN   =  10.00;   EMAX   =-10.00  energy-range for DOS
   EFERMI =   0.00
   ISMEAR =     0;   SIGMA  =   0.05  broadening in eV -4-tet -1-fermi 0-gaus

 Electronic relaxation 2 (details)
   IALGO  =     68    algorithm
   LDIAG  =      T    sub-space diagonalisation (order eigenvalues)
   LSUBROT=      F    optimize rotation matrix (better conditioning)
   TURBO    =      0    0=normal 1=particle mesh
   IRESTART =      0    0=no restart 2=restart with 2 vectors
   NREBOOT  =      0    no. of reboots
   NMIN     =      0    reboot dimension
   EREF     =   0.00    reference energy to select bands
   IMIX   =      4    mixing-type and parameters
     AMIX     =   0.40;   BMIX     =  1.00
     AMIX_MAG =   1.60;   BMIX_MAG =  1.00
     AMIN     =   0.10
     WC   =   100.;   INIMIX=   1;  MIXPRE=   1;  MAXMIX= -45

 Intra band minimization:
   WEIMIN = 0.0010     energy-eigenvalue tresh-hold
   EBREAK =  0.50E-07  absolut break condition
   DEPER  =   0.30     relativ break condition  

   TIME   =   0.40     timestep for ELM

  volume/ion in A,a.u.               =      15.25       102.94
  Fermi-wavevector in a.u.,A,eV,Ry     =   1.056945  1.997337 15.199521  1.117133
  Thomas-Fermi vector in A             =   2.192200
 
 Write flags
   LWAVE        =      F    write WAVECAR
   LDOWNSAMPLE  =      F    k-point downsampling of WAVECAR
   LCHARG       =      F    write CHGCAR
   LVTOT        =      F    write LOCPOT, total local potential
   LVHAR        =      F    write LOCPOT, Hartree potential only
   LELF         =      F    write electronic localiz. function (ELF)
   LORBIT       =      0    0 simple, 1 ext, 2 COOP (PROOUT), +10 PAW based schemes


 Dipole corrections
   LMONO  =      F    monopole corrections only (constant potential shift)
   LDIPOL =      F    correct potential (dipole corrections)
   IDIPOL =      0    1-x, 2-y, 3-z, 4-all directions 
   EPSILON=  1.0000000 bulk dielectric constant

 Exchange correlation treatment:
   GGA     =    --    GGA type
   LEXCH   =     8    internal setting for exchange type
   VOSKOWN=      0    Vosko Wilk Nusair interpolation
   LHFCALC =     F    Hartree Fock is set to
   LHFONE  =     F    Hartree Fock one center treatment
   AEXX    =    0.0000 exact exchange contribution

 Linear response parameters
   LEPSILON=     F    determine dielectric tensor
   LRPA    =     F    only Hartree local field effects (RPA)
   LNABLA  =     F    use nabla operator in PAW spheres
   LVEL    =     F    velocity operator in full k-point grid
   LINTERFAST=   F  fast interpolation
   KINTER  =     0    interpolate to denser k-point grid
   CSHIFT  =0.1000    complex shift for real part using Kramers Kronig
   OMEGAMAX=  -1.0    maximum frequency
   DEG_THRESHOLD= 0.2000000E-02 threshold for treating states as degnerate
   RTIME   =   -0.100 relaxation time in fs
  (WPLASMAI=    0.000 imaginary part of plasma frequency in eV, 0.658/RTIME)
   DFIELD  = 0.0000000 0.0000000 0.0000000 field for delta impulse in time
 
 Orbital magnetization related:
   ORBITALMAG=     F  switch on orbital magnetization
   LCHIMAG   =     F  perturbation theory with respect to B field
   DQ        =  0.001000  dq finite difference perturbation B field
   LLRAUG    =     F  two centre corrections for induced B field



--------------------------------------------------------------------------------------------------------


 conjugate gradient relaxation of ions
   using selective dynamics as specified on POSCAR
 charge density and potential will be updated during run
 non-spin polarized calculation
 RMM-DIIS sequential band-by-band and
  variant of blocked Davidson during initial phase
 perform sub-space diagonalisation
    before iterative eigenvector-optimisation
 modified Broyden-mixing scheme, WC =      100.0
 initial mixing is a Kerker type mixing with AMIX =  0.4000 and BMIX =      1.0000
 Hartree-type preconditioning will be used
 using additional bands           11
 real space projection scheme for non local part
 use partial core corrections
 calculate Harris-corrections to forces 
   (improved forces if not selfconsistent)
 use gradient corrections 
 use of overlap-Matrix (Vanderbilt PP)
 Gauss-broadening in eV      SIGMA  =   0.05


--------------------------------------------------------------------------------------------------------


  energy-cutoff  :      450.00
  volume of cell :      289.84
      direct lattice vectors                 reciprocal lattice vectors
     2.124436000 -2.124435000  0.000000000     0.313808828 -0.156904414 -0.156904414
     0.000000000  2.124436000 -2.124436000     0.156904340  0.156904414 -0.313808754
    21.406867000 21.406867000 21.406867000     0.015571322  0.015571330  0.015571330

  length of vectors
     3.004405496  3.004406204 37.077781275     0.384335753  0.384335662  0.026970330


 
 k-points in units of 2pi/SCALE and weight: K-Spacing Value to Generate K-Mesh: 0.02
   0.02941957  0.00000000 -0.02941957       0.031
   0.06864568 -0.01961305 -0.04903262       0.062
   0.10787178 -0.03922610 -0.06864568       0.062
   0.14709788 -0.05883916 -0.08825873       0.062
  -0.12748484  0.07845221  0.04903263       0.062
  -0.08825874  0.05883916  0.02941958       0.062
  -0.04903263  0.03922610  0.00980653       0.062
  -0.00980653  0.01961305 -0.00980652       0.031
   0.08825872  0.00000000 -0.08825872       0.031
   0.12748482 -0.01961305 -0.10787177       0.062
   0.16671093 -0.03922610 -0.12748482       0.062
  -0.10787180  0.09806526  0.00980654       0.062
  -0.06864569  0.07845221 -0.00980651       0.062
  -0.02941959  0.05883916 -0.02941956       0.031
   0.14709787  0.00000000 -0.14709787       0.031
   0.18632397 -0.01961305 -0.16671092       0.062
  -0.08825876  0.11767831 -0.02941955       0.062
  -0.04903265  0.09806526 -0.04903261       0.031
   0.20593701  0.00000000 -0.20593701       0.031
  -0.06864571  0.13729136 -0.06864565       0.031
 
 k-points in reciprocal lattice and weights: K-Spacing Value to Generate K-Mesh: 0.02
   0.06250000  0.06250000  0.00000000       0.031
   0.18750000  0.06250000  0.00000000       0.062
   0.31250000  0.06250000 -0.00000000       0.062
   0.43750000  0.06250000 -0.00000000       0.062
  -0.43750000  0.06250000  0.00000000       0.062
  -0.31250000  0.06250000  0.00000000       0.062
  -0.18750000  0.06250000  0.00000000       0.062
  -0.06250000  0.06250000  0.00000000       0.031
   0.18750000  0.18750000  0.00000000       0.031
   0.31250000  0.18750000 -0.00000000       0.062
   0.43750000  0.18750000  0.00000000       0.062
  -0.43750000  0.18750000  0.00000000       0.062
  -0.31250000  0.18750000 -0.00000000       0.062
  -0.18750000  0.18750000  0.00000000       0.031
   0.31250000  0.31250000  0.00000000       0.031
   0.43750000  0.31250000  0.00000000       0.062
  -0.43750000  0.31250000  0.00000000       0.062
  -0.31250000  0.31250000  0.00000000       0.031
   0.43750000  0.43750000  0.00000000       0.031
  -0.43750000  0.43750000  0.00000000       0.031
 
 position of ions in fractional coordinates (direct lattice) 
   0.00000000  0.00000000  0.12621100
   0.33333300  0.66666700  0.19237200
   0.00000000  0.00000000  0.32469300
   0.33333300  0.66666700  0.39085300
   0.00000000  0.00000000  0.52317500
   0.33333300  0.66666700  0.58933500
   0.66666700  0.33333300  0.06005100
   0.66666700  0.33333300  0.25853200
   0.66666700  0.33333300  0.45701400
   0.00000000  0.00000000  0.02697000
   0.00000000  0.00000000  0.22545200
   0.00000000  0.00000000  0.42393400
   0.00000000  0.00000000  0.62241500
   0.66666700  0.33333300  0.15929100
   0.66666700  0.33333300  0.35777300
   0.66666700  0.33333300  0.55625500
   0.33333300  0.66666700  0.09313100
   0.33333300  0.66666700  0.29161300
   0.33333300  0.66666700  0.49009400
 
 position of ions in cartesian coordinates  (Angst):
   2.70178209  2.70178209  2.70178209
   4.82622644  4.82622890  2.70179044
   6.95065987  6.95065987  6.95065987
   9.07508281  9.07508527  6.95064681
  11.19953764 11.19953764 11.19953764
  13.32396059 13.32396305 11.19952459
   2.70179515  0.57735769  0.57735915
   6.95065151  4.82621406  4.82621551
  11.19952929  9.07509183  9.07509329
   0.57734320  0.57734320  0.57734320
   4.82622098  4.82622098  4.82622098
   9.07509875  9.07509875  9.07509875
  13.32395512 13.32395512 13.32395512
   4.82621263  2.70177517  2.70177663
   9.07509040  6.95065294  6.95065440
  13.32396818 11.19953072 11.19953218
   2.70178756  2.70179001  0.57735156
   6.95066533  6.95066779  4.82622933
  11.19952170 11.19952416  9.07508570
 


--------------------------------------------------------------------------------------------------------


 k-point  1 :   0.0625 0.0625 0.0000  plane waves:    6239
 k-point  2 :   0.1875 0.0625 0.0000  plane waves:    6264
 k-point  3 :   0.3125 0.0625-0.0000  plane waves:    6302
 k-point  4 :   0.4375 0.0625-0.0000  plane waves:    6306
 k-point  5 :  -0.4375 0.0625 0.0000  plane waves:    6314
 k-point  6 :  -0.3125 0.0625 0.0000  plane waves:    6296
 k-point  7 :  -0.1875 0.0625 0.0000  plane waves:    6259
 k-point  8 :  -0.0625 0.0625 0.0000  plane waves:    6237
 k-point  9 :   0.1875 0.1875 0.0000  plane waves:    6263
 k-point 10 :   0.3125 0.1875-0.0000  plane waves:    6285
 k-point 11 :   0.4375 0.1875 0.0000  plane waves:    6283
 k-point 12 :  -0.4375 0.1875 0.0000  plane waves:    6273
 k-point 13 :  -0.3125 0.1875-0.0000  plane waves:    6258
 k-point 14 :  -0.1875 0.1875 0.0000  plane waves:    6245
 k-point 15 :   0.3125 0.3125 0.0000  plane waves:    6251
 k-point 16 :   0.4375 0.3125 0.0000  plane waves:    6276
 k-point 17 :  -0.4375 0.3125 0.0000  plane waves:    6301
 k-point 18 :  -0.3125 0.3125 0.0000  plane waves:    6317
 k-point 19 :   0.4375 0.4375 0.0000  plane waves:    6294
 k-point 20 :  -0.4375 0.4375 0.0000  plane waves:    6321

 maximum and minimum number of plane-waves per node :      1590     1547

 maximum number of plane-waves:      6321
 maximum index in each direction: 
   IXMAX=    5   IYMAX=    5   IZMAX=   64
   IXMIN=   -5   IYMIN=   -5   IZMIN=  -64


 real space projection operators:
  total allocation   :       4218.61 KBytes
  max/ min on nodes  :       1065.78       1045.33


 parallel 3D FFT for wavefunctions:
    minimum data exchange during FFTs selected (reduces bandwidth)
 parallel 3D FFT for charge:
    minimum data exchange during FFTs selected (reduces bandwidth)


 total amount of memory used by VASP MPI-rank0    42714. kBytes
=======================================================================

   base      :      30000. kBytes
   nonlr-proj:       2387. kBytes
   fftplans  :       2059. kBytes
   grid      :       2996. kBytes
   one-center:         40. kBytes
   wavefun   :       5232. kBytes
 
     INWAV:  cpu time    0.0000: real time    0.0001
 Broyden mixing: mesh for mixing (old mesh)
   NGX = 11   NGY = 11   NGZ =129
  (NGX  = 32   NGY  = 32   NGZ  =400)
  gives a total of  15609 points

 initial charge density was supplied:
 charge density of overlapping atoms calculated
 number of electron      78.0000000 magnetization 
 keeping initial charge density in first step


--------------------------------------------------------------------------------------------------------


 Maximum index for non-local projection operator          819
 Maximum index for augmentation-charges          558 (set IRDMAX)


--------------------------------------------------------------------------------------------------------


 First call to EWALD:  gamma=   0.268
 Maximum number of real-space cells 6x 6x 1
 Maximum number of reciprocal cells 2x 2x13

    FEWALD:  cpu time    0.0014: real time    0.0014


--------------------------------------- Iteration      1(   1)  ---------------------------------------


    POTLOK:  cpu time    0.0132: real time    0.0133
    SETDIJ:  cpu time    0.0024: real time    0.0025
     EDDAV:  cpu time    1.9996: real time    2.1133
       DOS:  cpu time    0.0014: real time    0.0013
    --------------------------------------------
      LOOP:  cpu time    2.0166: real time    2.1304

 eigenvalue-minimisations  :  2000
 total energy-change (2. order) : 0.5404561E+03  (-0.3410332E+04)
 number of electron      78.0000000 magnetization 
 augmentation part       78.0000000 magnetization 

 Free energy of the ion-electron system (eV)
  ---------------------------------------------------
  alpha Z        PSCENC =       116.82593049
  Ewald energy   TEWEN  =     24148.76837520
  -Hartree energ DENC   =    -28454.84532340
  -exchange      EXHF   =         0.00000000
  -V(xc)+E(xc)   XCENC  =      -158.78780559
  PAW double counting   =      4053.25502632    -3604.47710419
  entropy T*S    EENTRO =        -0.00455394
  eigenvalues    EBANDS =       -91.00848860
  atomic energy  EATOM  =      4530.72999957
  Solvation  Ediel_sol  =         0.00000000
  ---------------------------------------------------
  free energy    TOTEN  =       540.45605585 eV

  energy without entropy =      540.46060980  energy(sigma->0) =      540.45833283


--------------------------------------------------------------------------------------------------------




--------------------------------------- Iteration      1(   2)  ---------------------------------------


     EDDAV:  cpu time    2.5958: real time    2.6000
       DOS:  cpu time    0.0014: real time    0.0014
    --------------------------------------------
      LOOP:  cpu time    2.5972: real time    2.6014

 eigenvalue-minimisations  :  2710
 total energy-change (2. order) :-0.6021001E+03  (-0.5893319E+03)
 number of electron      78.0000000 magnetization 
 augmentation part       78.0000000 magnetization 

 Free energy of the ion-electron system (eV)
  ---------------------------------------------------
  alpha Z        PSCENC =       116.82593049
  Ewald energy   TEWEN  =     24148.76837520
  -Hartree energ DENC   =    -28454.84532340
  -exchange      EXHF   =         0.00000000
  -V(xc)+E(xc)   XCENC  =      -158.78780559
  PAW double counting   =      4053.25502632    -3604.47710419
  entropy T*S    EENTRO =        -0.00398970
  eigenvalues    EBANDS =      -693.10912007
  atomic energy  EATOM  =      4530.72999957
  Solvation  Ediel_sol  =         0.00000000
  ---------------------------------------------------
  free energy    TOTEN  =       -61.64401138 eV

  energy without entropy =      -61.64002168  energy(sigma->0) =      -61.64201653


--------------------------------------------------------------------------------------------------------




--------------------------------------- Iteration      1(   3)  ---------------------------------------


     EDDAV:  cpu time    2.2481: real time    2.2532
       DOS:  cpu time    0.0016: real time    0.0016
    --------------------------------------------
      LOOP:  cpu time    2.2498: real time    2.2548

 eigenvalue-minimisations  :  2400
 total energy-change (2. order) :-0.5830696E+02  (-0.5767622E+02)
 number of electron      78.0000000 magnetization 
 augmentation part       78.0000000 magnetization 

 Free energy of the ion-electron system (eV)
  ---------------------------------------------------
  alpha Z        PSCENC =       116.82593049
  Ewald energy   TEWEN  =     24148.76837520
  -Hartree energ DENC   =    -28454.84532340
  -exchange      EXHF   =         0.00000000
  -V(xc)+E(xc)   XCENC  =      -158.78780559
  PAW double counting   =      4053.25502632    -3604.47710419
  entropy T*S    EENTRO =        -0.00783828
  eigenvalues    EBANDS =      -751.41222780
  atomic energy  EATOM  =      4530.72999957
  Solvation  Ediel_sol  =         0.00000000
  ---------------------------------------------------
  free energy    TOTEN  =      -119.95096769 eV

  energy without entropy =     -119.94312941  energy(sigma->0) =     -119.94704855


--------------------------------------------------------------------------------------------------------




--------------------------------------- Iteration      1(   4)  ---------------------------------------


     EDDAV:  cpu time    2.3306: real time    2.3371
       DOS:  cpu time    0.0008: real time    0.0008
    --------------------------------------------
      LOOP:  cpu time    2.3314: real time    2.3379

 eigenvalue-minimisations  :  2400
 total energy-change (2. order) :-0.1222596E+01  (-0.1219368E+01)
 number of electron      78.0000000 magnetization 
 augmentation part       78.0000000 magnetization 

 Free energy of the ion-electron system (eV)
  ---------------------------------------------------
  alpha Z        PSCENC =       116.82593049
  Ewald energy   TEWEN  =     24148.76837520
  -Hartree energ DENC   =    -28454.84532340
  -exchange      EXHF   =         0.00000000
  -V(xc)+E(xc)   XCENC  =      -158.78780559
  PAW double counting   =      4053.25502632    -3604.47710419
  entropy T*S    EENTRO =        -0.00763093
  eigenvalues    EBANDS =      -752.63503074
  atomic energy  EATOM  =      4530.72999957
  Solvation  Ediel_sol  =         0.00000000
  ---------------------------------------------------
  free energy    TOTEN  =      -121.17356328 eV

  energy without entropy =     -121.16593235  energy(sigma->0) =     -121.16974781


--------------------------------------------------------------------------------------------------------




--------------------------------------- Iteration      1(   5)  ---------------------------------------


     EDDAV:  cpu time    2.2026: real time    2.2082
       DOS:  cpu time    0.0015: real time    0.0015
    --------------------------------------------
      LOOP:  cpu time    2.2041: real time    2.2098

 eigenvalue-minimisations  :  2380
 total energy-change (2. order) :-0.2926653E-01  (-0.2925641E-01)
 number of electron      78.0000000 magnetization 
 augmentation part       78.0000000 magnetization 

 Free energy of the ion-electron system (eV)
  ---------------------------------------------------
  alpha Z        PSCENC =       116.82593049
  Ewald energy   TEWEN  =     24148.76837520
  -Hartree energ DENC   =    -28454.84532340
  -exchange      EXHF   =         0.00000000
  -V(xc)+E(xc)   XCENC  =      -158.78780559
  PAW double counting   =      4053.25502632    -3604.47710419
  entropy T*S    EENTRO =        -0.00763592
  eigenvalues    EBANDS =      -752.66429228
  atomic energy  EATOM  =      4530.72999957
  Solvation  Ediel_sol  =         0.00000000
  ---------------------------------------------------
  free energy    TOTEN  =      -121.20282981 eV

  energy without entropy =     -121.19519389  energy(sigma->0) =     -121.19901185


--------------------------------------------------------------------------------------------------------




--------------------------------------- Iteration      1(   6)  ---------------------------------------


     EDDAV:  cpu time    2.1650: real time    2.1754
       DOS:  cpu time    0.0008: real time    0.0008
    --------------------------------------------
      LOOP:  cpu time    2.1658: real time    2.1762

 eigenvalue-minimisations  :  2420
 total energy-change (2. order) :-0.1045504E-02  (-0.1045292E-02)
 number of electron      78.0000000 magnetization 
 augmentation part       78.0000000 magnetization 

 Free energy of the ion-electron system (eV)
  ---------------------------------------------------
  alpha Z        PSCENC =       116.82593049
  Ewald energy   TEWEN  =     24148.76837520
  -Hartree energ DENC   =    -28454.84532340
  -exchange      EXHF   =         0.00000000
  -V(xc)+E(xc)   XCENC  =      -158.78780559
  PAW double counting   =      4053.25502632    -3604.47710419
  entropy T*S    EENTRO =        -0.00763578
  eigenvalues    EBANDS =      -752.66533792
  atomic energy  EATOM  =      4530.72999957
  Solvation  Ediel_sol  =         0.00000000
  ---------------------------------------------------
  free energy    TOTEN  =      -121.20387531 eV

  energy without entropy =     -121.19623953  energy(sigma->0) =     -121.20005742


--------------------------------------------------------------------------------------------------------




--------------------------------------- Iteration      1(   7)  ---------------------------------------


     EDDAV:  cpu time    2.1897: real time    2.1953
       DOS:  cpu time    0.0008: real time    0.0008
    --------------------------------------------
      LOOP:  cpu time    2.1905: real time    2.1961

 eigenvalue-minimisations  :  2370
 total energy-change (2. order) :-0.4161003E-04  (-0.4160728E-04)
 number of electron      78.0000000 magnetization 
 augmentation part       78.0000000 magnetization 

 Free energy of the ion-electron system (eV)
  ---------------------------------------------------
  alpha Z        PSCENC =       116.82593049
  Ewald energy   TEWEN  =     24148.76837520
  -Hartree energ DENC   =    -28454.84532340
  -exchange      EXHF   =         0.00000000
  -V(xc)+E(xc)   XCENC  =      -158.78780559
  PAW double counting   =      4053.25502632    -3604.47710419
  entropy T*S    EENTRO =        -0.00763569
  eigenvalues    EBANDS =      -752.66537963
  atomic energy  EATOM  =      4530.72999957
  Solvation  Ediel_sol  =         0.00000000
  ---------------------------------------------------
  free energy    TOTEN  =      -121.20391692 eV

  energy without entropy =     -121.19628123  energy(sigma->0) =     -121.20009908


--------------------------------------------------------------------------------------------------------




--------------------------------------- Iteration      1(   8)  ---------------------------------------


     EDDAV:  cpu time    1.7880: real time    1.7922
       DOS:  cpu time    0.0008: real time    0.0008
    CHARGE:  cpu time    0.0819: real time    0.0820
    MIXING:  cpu time    0.0009: real time    0.0011
    --------------------------------------------
      LOOP:  cpu time    1.8716: real time    1.8760

 eigenvalue-minimisations  :  1810
 total energy-change (2. order) :-0.1870182E-05  (-0.1869493E-05)
 number of electron      77.9999980 magnetization 
 augmentation part        7.6733060 magnetization 

 Broyden mixing:
  rms(total) = 0.21058E+01    rms(broyden)= 0.21047E+01
  rms(prec ) = 0.21679E+01
  weight for this iteration     100.00

 Free energy of the ion-electron system (eV)
  ---------------------------------------------------
  alpha Z        PSCENC =       116.82593049
  Ewald energy   TEWEN  =     24148.76837520
  -Hartree energ DENC   =    -28454.84532340
  -exchange      EXHF   =         0.00000000
  -V(xc)+E(xc)   XCENC  =      -158.78780559
  PAW double counting   =      4053.25502632    -3604.47710419
  entropy T*S    EENTRO =        -0.00763569
  eigenvalues    EBANDS =      -752.66538149
  atomic energy  EATOM  =      4530.72999957
  Solvation  Ediel_sol  =         0.00000000
  ---------------------------------------------------
  free energy    TOTEN  =      -121.20391879 eV

  energy without entropy =     -121.19628310  energy(sigma->0) =     -121.20010094


--------------------------------------------------------------------------------------------------------




--------------------------------------- Iteration      1(   9)  ---------------------------------------


    POTLOK:  cpu time    0.0099: real time    0.0100
    SETDIJ:  cpu time    0.0028: real time    0.0028
    EDDIAG:  cpu time    0.2864: real time    0.2868
  RMM-DIIS:  cpu time    1.2690: real time    1.2709
    ORTHCH:  cpu time    0.0297: real time    0.0298
       DOS:  cpu time    0.0016: real time    0.0016
    CHARGE:  cpu time    0.0820: real time    0.0821
    MIXING:  cpu time    0.0009: real time    0.0010
    --------------------------------------------
      LOOP:  cpu time    1.6825: real time    1.6849

 eigenvalue-minimisations  :  2000
 total energy-change (2. order) : 0.1285701E+02  (-0.6253989E+01)
 number of electron      77.9999968 magnetization 
 augmentation part        6.4902664 magnetization 

 Broyden mixing:
  rms(total) = 0.75848E+00    rms(broyden)= 0.75699E+00
  rms(prec ) = 0.78594E+00
  weight for this iteration     100.00

 eigenvalues of (default mixing * dielectric matrix)
  average eigenvalue GAMMA=   0.8325
  0.8325

 Free energy of the ion-electron system (eV)
  ---------------------------------------------------
  alpha Z        PSCENC =       116.82593049
  Ewald energy   TEWEN  =     24148.76837520
  -Hartree energ DENC   =    -28621.54177125
  -exchange      EXHF   =         0.00000000
  -V(xc)+E(xc)   XCENC  =      -147.15360594
  PAW double counting   =      4699.70051673    -4253.94165707
  entropy T*S    EENTRO =        -0.01863182
  eigenvalues    EBANDS =      -581.71606433
  atomic energy  EATOM  =      4530.72999957
  Solvation  Ediel_sol  =         0.00000000
  ---------------------------------------------------
  free energy    TOTEN  =      -108.34690843 eV

  energy without entropy =     -108.32827660  energy(sigma->0) =     -108.33759251


--------------------------------------------------------------------------------------------------------




--------------------------------------- Iteration      1(  10)  ---------------------------------------


    POTLOK:  cpu time    0.0116: real time    0.0143
    SETDIJ:  cpu time    0.0028: real time    0.0030
    EDDIAG:  cpu time    0.3145: real time    0.3160
  RMM-DIIS:  cpu time    1.2720: real time    1.2735
    ORTHCH:  cpu time    0.0279: real time    0.0280
       DOS:  cpu time    0.0008: real time    0.0008
    CHARGE:  cpu time    0.0791: real time    0.0792
    MIXING:  cpu time    0.0007: real time    0.0007
    --------------------------------------------
      LOOP:  cpu time    1.7095: real time    1.7155

 eigenvalue-minimisations  :  2000
 total energy-change (2. order) :-0.1705942E+00  (-0.2338229E+00)
 number of electron      77.9999981 magnetization 
 augmentation part        6.4307573 magnetization 

 Broyden mixing:
  rms(total) = 0.62681E+00    rms(broyden)= 0.62618E+00
  rms(prec ) = 0.69274E+00
  weight for this iteration     100.00

 eigenvalues of (default mixing * dielectric matrix)
  average eigenvalue GAMMA=   0.6803
  0.7635  0.5970

 Free energy of the ion-electron system (eV)
  ---------------------------------------------------
  alpha Z        PSCENC =       116.82593049
  Ewald energy   TEWEN  =     24148.76837520
  -Hartree energ DENC   =    -28585.03222841
  -exchange      EXHF   =         0.00000000
  -V(xc)+E(xc)   XCENC  =      -146.43943591
  PAW double counting   =      4905.10883699    -4459.14069695
  entropy T*S    EENTRO =        -0.00636469
  eigenvalues    EBANDS =      -619.33191892
  atomic energy  EATOM  =      4530.72999957
  Solvation  Ediel_sol  =         0.00000000
  ---------------------------------------------------
  free energy    TOTEN  =      -108.51750264 eV

  energy without entropy =     -108.51113795  energy(sigma->0) =     -108.51432030


--------------------------------------------------------------------------------------------------------




--------------------------------------- Iteration      1(  11)  ---------------------------------------


    POTLOK:  cpu time    0.0097: real time    0.0098
    SETDIJ:  cpu time    0.0021: real time    0.0021
    EDDIAG:  cpu time    0.3083: real time    0.3087
  RMM-DIIS:  cpu time    1.3671: real time    1.3691
    ORTHCH:  cpu time    0.0302: real time    0.0302
       DOS:  cpu time    0.0008: real time    0.0008
    CHARGE:  cpu time    0.0819: real time    0.0820
    MIXING:  cpu time    0.0007: real time    0.0007
    --------------------------------------------
      LOOP:  cpu time    1.8008: real time    1.8033

 eigenvalue-minimisations  :  2000
 total energy-change (2. order) :-0.3340194E+01  (-0.7392031E-01)
 number of electron      77.9999984 magnetization 
 augmentation part        6.4594983 magnetization 

 Broyden mixing:
  rms(total) = 0.10631E+01    rms(broyden)= 0.10623E+01
  rms(prec ) = 0.13428E+01
  weight for this iteration     100.00

 eigenvalues of (default mixing * dielectric matrix)
  average eigenvalue GAMMA=   0.5806
  0.7924  0.7924  0.1571

 Free energy of the ion-electron system (eV)
  ---------------------------------------------------
  alpha Z        PSCENC =       116.82593049
  Ewald energy   TEWEN  =     24148.76837520
  -Hartree energ DENC   =    -28594.44880669
  -exchange      EXHF   =         0.00000000
  -V(xc)+E(xc)   XCENC  =      -146.29440829
  PAW double counting   =      4977.70059092    -4531.62639796
  entropy T*S    EENTRO =        -0.01150449
  eigenvalues    EBANDS =      -613.50147541
  atomic energy  EATOM  =      4530.72999957
  Solvation  Ediel_sol  =         0.00000000
  ---------------------------------------------------
  free energy    TOTEN  =      -111.85769666 eV

  energy without entropy =     -111.84619217  energy(sigma->0) =     -111.85194441


--------------------------------------------------------------------------------------------------------




--------------------------------------- Iteration      1(  12)  ---------------------------------------


    POTLOK:  cpu time    0.0112: real time    0.0113
    SETDIJ:  cpu time    0.0021: real time    0.0021
    EDDIAG:  cpu time    0.2842: real time    0.2848
  RMM-DIIS:  cpu time    1.3925: real time    1.3952
    ORTHCH:  cpu time    0.0309: real time    0.0309
       DOS:  cpu time    0.0008: real time    0.0008
    CHARGE:  cpu time    0.0832: real time    0.0833
    MIXING:  cpu time    0.0009: real time    0.0009
    --------------------------------------------
      LOOP:  cpu time    1.8058: real time    1.8092

 eigenvalue-minimisations  :  2000
 total energy-change (2. order) : 0.3750965E+01  (-0.5667852E-01)
 number of electron      77.9999976 magnetization 
 augmentation part        6.4514010 magnetization 

 Broyden mixing:
  rms(total) = 0.41054E+00    rms(broyden)= 0.40972E+00
  rms(prec ) = 0.48320E+00
  weight for this iteration     100.00

 eigenvalues of (default mixing * dielectric matrix)
  average eigenvalue GAMMA=   0.9512
  2.0456  1.0243  0.6106  0.1243

 Free energy of the ion-electron system (eV)
  ---------------------------------------------------
  alpha Z        PSCENC =       116.82593049
  Ewald energy   TEWEN  =     24148.76837520
  -Hartree energ DENC   =    -28601.23368215
  -exchange      EXHF   =         0.00000000
  -V(xc)+E(xc)   XCENC  =      -146.16921626
  PAW double counting   =      5026.54869610    -4580.41505643
  entropy T*S    EENTRO =        -0.01582698
  eigenvalues    EBANDS =      -603.14595143
  atomic energy  EATOM  =      4530.72999957
  Solvation  Ediel_sol  =         0.00000000
  ---------------------------------------------------
  free energy    TOTEN  =      -108.10673190 eV

  energy without entropy =     -108.09090492  energy(sigma->0) =     -108.09881841


--------------------------------------------------------------------------------------------------------




--------------------------------------- Iteration      1(  13)  ---------------------------------------


    POTLOK:  cpu time    0.0102: real time    0.0103
    SETDIJ:  cpu time    0.0023: real time    0.0023
    EDDIAG:  cpu time    0.2688: real time    0.2691
  RMM-DIIS:  cpu time    1.3898: real time    1.3918
    ORTHCH:  cpu time    0.0312: real time    0.0312
       DOS:  cpu time    0.0008: real time    0.0008
    CHARGE:  cpu time    0.0846: real time    0.0847
    MIXING:  cpu time    0.0009: real time    0.0009
    --------------------------------------------
      LOOP:  cpu time    1.7886: real time    1.7912

 eigenvalue-minimisations  :  2000
 total energy-change (2. order) :-0.1414182E+01  (-0.5530420E-01)
 number of electron      77.9999976 magnetization 
 augmentation part        6.4943912 magnetization 

 Broyden mixing:
  rms(total) = 0.88001E+00    rms(broyden)= 0.87824E+00
  rms(prec ) = 0.11693E+01
  weight for this iteration     100.00

 eigenvalues of (default mixing * dielectric matrix)
  average eigenvalue GAMMA=   0.8374
  2.2493  1.0156  0.4935  0.3107  0.1178

 Free energy of the ion-electron system (eV)
  ---------------------------------------------------
  alpha Z        PSCENC =       116.82593049
  Ewald energy   TEWEN  =     24148.76837520
  -Hartree energ DENC   =    -28628.93559405
  -exchange      EXHF   =         0.00000000
  -V(xc)+E(xc)   XCENC  =      -145.46901748
  PAW double counting   =      5225.33054256    -4778.99946972
  entropy T*S    EENTRO =        -0.01903251
  eigenvalues    EBANDS =      -577.75264797
  atomic energy  EATOM  =      4530.72999957
  Solvation  Ediel_sol  =         0.00000000
  ---------------------------------------------------
  free energy    TOTEN  =      -109.52091391 eV

  energy without entropy =     -109.50188140  energy(sigma->0) =     -109.51139766


--------------------------------------------------------------------------------------------------------




--------------------------------------- Iteration      1(  14)  ---------------------------------------


    POTLOK:  cpu time    0.0110: real time    0.0111
    SETDIJ:  cpu time    0.0023: real time    0.0023
    EDDIAG:  cpu time    0.2921: real time    0.2924
  RMM-DIIS:  cpu time    1.3581: real time    1.3600
    ORTHCH:  cpu time    0.0312: real time    0.0312
       DOS:  cpu time    0.0009: real time    0.0009
    CHARGE:  cpu time    0.0848: real time    0.0849
    MIXING:  cpu time    0.0010: real time    0.0010
    --------------------------------------------
      LOOP:  cpu time    1.7814: real time    1.7838

 eigenvalue-minimisations  :  2000
 total energy-change (2. order) : 0.1360940E+01  (-0.8802850E-02)
 number of electron      77.9999977 magnetization 
 augmentation part        6.4883988 magnetization 

 Broyden mixing:
  rms(total) = 0.56193E+00    rms(broyden)= 0.56108E+00
  rms(prec ) = 0.73852E+00
  weight for this iteration     100.00

 eigenvalues of (default mixing * dielectric matrix)
  average eigenvalue GAMMA=   0.8289
  2.4741  0.9835  0.5441  0.5441  0.1197  0.3080

 Free energy of the ion-electron system (eV)
  ---------------------------------------------------
  alpha Z        PSCENC =       116.82593049
  Ewald energy   TEWEN  =     24148.76837520
  -Hartree energ DENC   =    -28625.75435957
  -exchange      EXHF   =         0.00000000
  -V(xc)+E(xc)   XCENC  =      -145.33289949
  PAW double counting   =      5250.03829865    -4803.68913771
  entropy T*S    EENTRO =        -0.02626061
  eigenvalues    EBANDS =      -579.71992020
  atomic energy  EATOM  =      4530.72999957
  Solvation  Ediel_sol  =         0.00000000
  ---------------------------------------------------
  free energy    TOTEN  =      -108.15997368 eV

  energy without entropy =     -108.13371306  energy(sigma->0) =     -108.14684337


--------------------------------------------------------------------------------------------------------




--------------------------------------- Iteration      1(  15)  ---------------------------------------


    POTLOK:  cpu time    0.0112: real time    0.0113
    SETDIJ:  cpu time    0.0022: real time    0.0022
    EDDIAG:  cpu time    0.3273: real time    0.3279
  RMM-DIIS:  cpu time    1.6511: real time    1.6530
    ORTHCH:  cpu time    0.0485: real time    0.0485
       DOS:  cpu time    0.0116: real time    0.0116
    CHARGE:  cpu time    0.0991: real time    0.0991
    MIXING:  cpu time    0.0009: real time    0.0009
    --------------------------------------------
      LOOP:  cpu time    2.1518: real time    2.1545

 eigenvalue-minimisations  :  2000
 total energy-change (2. order) :-0.6207892E+00  (-0.9506769E-02)
 number of electron      77.9999967 magnetization 
 augmentation part        6.4937900 magnetization 

 Broyden mixing:
  rms(total) = 0.86910E+00    rms(broyden)= 0.86823E+00
  rms(prec ) = 0.11657E+01
  weight for this iteration     100.00

 eigenvalues of (default mixing * dielectric matrix)
  average eigenvalue GAMMA=   0.7236
  2.4670  0.9820  0.5810  0.5810  0.2939  0.1194  0.0412

 Free energy of the ion-electron system (eV)
  ---------------------------------------------------
  alpha Z        PSCENC =       116.82593049
  Ewald energy   TEWEN  =     24148.76837520
  -Hartree energ DENC   =    -28623.78304670
  -exchange      EXHF   =         0.00000000
  -V(xc)+E(xc)   XCENC  =      -145.11564555
  PAW double counting   =      5275.13227437    -4828.78512446
  entropy T*S    EENTRO =        -0.02600195
  eigenvalues    EBANDS =      -582.52752380
  atomic energy  EATOM  =      4530.72999957
  Solvation  Ediel_sol  =         0.00000000
  ---------------------------------------------------
  free energy    TOTEN  =      -108.78076284 eV

  energy without entropy =     -108.75476090  energy(sigma->0) =     -108.76776187


--------------------------------------------------------------------------------------------------------




--------------------------------------- Iteration      1(  16)  ---------------------------------------


    POTLOK:  cpu time    0.0095: real time    0.0096
    SETDIJ:  cpu time    0.0021: real time    0.0021
    EDDIAG:  cpu time    0.2824: real time    0.2830
  RMM-DIIS:  cpu time    1.4328: real time    1.4359
    ORTHCH:  cpu time    0.0318: real time    0.0318
       DOS:  cpu time    0.0017: real time    0.0017
    CHARGE:  cpu time    0.0861: real time    0.0862
    MIXING:  cpu time    0.0011: real time    0.0011
    --------------------------------------------
      LOOP:  cpu time    1.8474: real time    1.8513

 eigenvalue-minimisations  :  2034
 total energy-change (2. order) : 0.2139730E+00  (-0.1933712E-02)
 number of electron      77.9999969 magnetization 
 augmentation part        6.4898340 magnetization 

 Broyden mixing:
  rms(total) = 0.86096E+00    rms(broyden)= 0.86094E+00
  rms(prec ) = 0.11621E+01
  weight for this iteration     100.00

 eigenvalues of (default mixing * dielectric matrix)
  average eigenvalue GAMMA=   0.7208
  2.4850  0.9543  0.6064  0.5403  0.5403  0.1203  0.2599  0.2599

 Free energy of the ion-electron system (eV)
  ---------------------------------------------------
  alpha Z        PSCENC =       116.82593049
  Ewald energy   TEWEN  =     24148.76837520
  -Hartree energ DENC   =    -28622.17108934
  -exchange      EXHF   =         0.00000000
  -V(xc)+E(xc)   XCENC  =      -145.07910322
  PAW double counting   =      5273.99336866    -4827.65661493
  entropy T*S    EENTRO =        -0.02581190
  eigenvalues    EBANDS =      -583.95184439
  atomic energy  EATOM  =      4530.72999957
  Solvation  Ediel_sol  =         0.00000000
  ---------------------------------------------------
  free energy    TOTEN  =      -108.56678987 eV

  energy without entropy =     -108.54097797  energy(sigma->0) =     -108.55388392


--------------------------------------------------------------------------------------------------------




--------------------------------------- Iteration      1(  17)  ---------------------------------------


    POTLOK:  cpu time    0.0122: real time    0.0155
    SETDIJ:  cpu time    0.0030: real time    0.0030
    EDDIAG:  cpu time    0.2977: real time    0.2989
  RMM-DIIS:  cpu time    1.3289: real time    1.3363
    ORTHCH:  cpu time    0.0313: real time    0.0315
       DOS:  cpu time    0.0017: real time    0.0017
    CHARGE:  cpu time    0.0869: real time    0.0871
    MIXING:  cpu time    0.0011: real time    0.0011
    --------------------------------------------
      LOOP:  cpu time    1.7629: real time    1.7752

 eigenvalue-minimisations  :  2000
 total energy-change (2. order) : 0.5304165E+00  (-0.1975358E-02)
 number of electron      77.9999975 magnetization 
 augmentation part        6.4672759 magnetization 

 Broyden mixing:
  rms(total) = 0.17988E+00    rms(broyden)= 0.17525E+00
  rms(prec ) = 0.23557E+00
  weight for this iteration     100.00

 eigenvalues of (default mixing * dielectric matrix)
  average eigenvalue GAMMA=   0.7392
  2.5217  0.9390  0.8000  0.8000  0.4979  0.4979  0.1204  0.2380  0.2380

 Free energy of the ion-electron system (eV)
  ---------------------------------------------------
  alpha Z        PSCENC =       116.82593049
  Ewald energy   TEWEN  =     24148.76837520
  -Hartree energ DENC   =    -28624.46407605
  -exchange      EXHF   =         0.00000000
  -V(xc)+E(xc)   XCENC  =      -144.98313041
  PAW double counting   =      5274.28918017    -4827.97772816
  entropy T*S    EENTRO =        -0.01783930
  eigenvalues    EBANDS =      -581.20708485
  atomic energy  EATOM  =      4530.72999957
  Solvation  Ediel_sol  =         0.00000000
  ---------------------------------------------------
  free energy    TOTEN  =      -108.03637334 eV

  energy without entropy =     -108.01853404  energy(sigma->0) =     -108.02745369


--------------------------------------------------------------------------------------------------------




--------------------------------------- Iteration      1(  18)  ---------------------------------------


    POTLOK:  cpu time    0.0113: real time    0.0124
    SETDIJ:  cpu time    0.0024: real time    0.0024
    EDDIAG:  cpu time    0.3429: real time    0.3448
  RMM-DIIS:  cpu time    1.2922: real time    1.2982
    ORTHCH:  cpu time    0.0309: real time    0.0311
       DOS:  cpu time    0.0008: real time    0.0008
    CHARGE:  cpu time    0.0844: real time    0.0847
    MIXING:  cpu time    0.0011: real time    0.0011
    --------------------------------------------
      LOOP:  cpu time    1.7659: real time    1.7754

 eigenvalue-minimisations  :  2000
 total energy-change (2. order) :-0.2274799E+00  (-0.1762497E-02)
 number of electron      77.9999982 magnetization 
 augmentation part        6.4742354 magnetization 

 Broyden mixing:
  rms(total) = 0.73967E+00    rms(broyden)= 0.73932E+00
  rms(prec ) = 0.10007E+01
  weight for this iteration     100.00

 eigenvalues of (default mixing * dielectric matrix)
  average eigenvalue GAMMA=   0.6873
  2.5259  0.8974  0.8203  0.8203  0.4973  0.4973  0.1204  0.2394  0.2394  0.2157

 Free energy of the ion-electron system (eV)
  ---------------------------------------------------
  alpha Z        PSCENC =       116.82593049
  Ewald energy   TEWEN  =     24148.76837520
  -Hartree energ DENC   =    -28622.94731240
  -exchange      EXHF   =         0.00000000
  -V(xc)+E(xc)   XCENC  =      -144.94486037
  PAW double counting   =      5272.65843887    -4826.35487034
  entropy T*S    EENTRO =        -0.02019559
  eigenvalues    EBANDS =      -582.97935870
  atomic energy  EATOM  =      4530.72999957
  Solvation  Ediel_sol  =         0.00000000
  ---------------------------------------------------
  free energy    TOTEN  =      -108.26385329 eV

  energy without entropy =     -108.24365770  energy(sigma->0) =     -108.25375549


--------------------------------------------------------------------------------------------------------




--------------------------------------- Iteration      1(  19)  ---------------------------------------


    POTLOK:  cpu time    0.0111: real time    0.0112
    SETDIJ:  cpu time    0.0024: real time    0.0024
    EDDIAG:  cpu time    0.3212: real time    0.3227
  RMM-DIIS:  cpu time    1.3132: real time    1.3203
    ORTHCH:  cpu time    0.0423: real time    0.0425
       DOS:  cpu time    0.0010: real time    0.0008
    CHARGE:  cpu time    0.0836: real time    0.0841
    MIXING:  cpu time    0.0011: real time    0.0011
    --------------------------------------------
      LOOP:  cpu time    1.7758: real time    1.7851

 eigenvalue-minimisations  :  2000
 total energy-change (2. order) : 0.2129033E+00  (-0.3084476E-03)
 number of electron      77.9999977 magnetization 
 augmentation part        6.4604422 magnetization 

 Broyden mixing:
  rms(total) = 0.17566E+00    rms(broyden)= 0.17345E+00
  rms(prec ) = 0.17893E+00
  weight for this iteration     100.00

 eigenvalues of (default mixing * dielectric matrix)
  average eigenvalue GAMMA=   0.6895
  2.5205  0.9233  0.7020  0.7020  0.7689  0.7689  0.4259  0.2457  0.2457  0.1204
  0.1611

 Free energy of the ion-electron system (eV)
  ---------------------------------------------------
  alpha Z        PSCENC =       116.82593049
  Ewald energy   TEWEN  =     24148.76837520
  -Hartree energ DENC   =    -28623.45057459
  -exchange      EXHF   =         0.00000000
  -V(xc)+E(xc)   XCENC  =      -144.92725234
  PAW double counting   =      5271.17392983    -4824.87570568
  entropy T*S    EENTRO =        -0.00823508
  eigenvalues    EBANDS =      -582.28741743
  atomic energy  EATOM  =      4530.72999957
  Solvation  Ediel_sol  =         0.00000000
  ---------------------------------------------------
  free energy    TOTEN  =      -108.05095004 eV

  energy without entropy =     -108.04271496  energy(sigma->0) =     -108.04683250


--------------------------------------------------------------------------------------------------------




--------------------------------------- Iteration      1(  20)  ---------------------------------------


    POTLOK:  cpu time    0.0112: real time    0.0114
    SETDIJ:  cpu time    0.0023: real time    0.0023
    EDDIAG:  cpu time    0.3169: real time    0.3182
  RMM-DIIS:  cpu time    1.3147: real time    1.3205
    ORTHCH:  cpu time    0.0278: real time    0.0278
       DOS:  cpu time    0.0008: real time    0.0011
    CHARGE:  cpu time    0.0819: real time    0.0821
    MIXING:  cpu time    0.0013: real time    0.0013
    --------------------------------------------
      LOOP:  cpu time    1.7570: real time    1.7648

 eigenvalue-minimisations  :  1998
 total energy-change (2. order) : 0.2167430E-02  (-0.2139206E-03)
 number of electron      77.9999978 magnetization 
 augmentation part        6.4612017 magnetization 

 Broyden mixing:
  rms(total) = 0.17279E+00    rms(broyden)= 0.17271E+00
  rms(prec ) = 0.18280E+00
  weight for this iteration     100.00

 eigenvalues of (default mixing * dielectric matrix)
  average eigenvalue GAMMA=   0.8839
  2.4947  1.8869  1.8869  0.9528  0.7060  0.7060  0.6269  0.5558  0.2437  0.2437
  0.1204  0.1831

 Free energy of the ion-electron system (eV)
  ---------------------------------------------------
  alpha Z        PSCENC =       116.82593049
  Ewald energy   TEWEN  =     24148.76837520
  -Hartree energ DENC   =    -28622.83901137
  -exchange      EXHF   =         0.00000000
  -V(xc)+E(xc)   XCENC  =      -144.93480338
  PAW double counting   =      5269.77605353    -4823.47517096
  entropy T*S    EENTRO =        -0.00844813
  eigenvalues    EBANDS =      -582.89170754
  atomic energy  EATOM  =      4530.72999957
  Solvation  Ediel_sol  =         0.00000000
  ---------------------------------------------------
  free energy    TOTEN  =      -108.04878261 eV

  energy without entropy =     -108.04033447  energy(sigma->0) =     -108.04455854


--------------------------------------------------------------------------------------------------------




--------------------------------------- Iteration      1(  21)  ---------------------------------------


    POTLOK:  cpu time    0.0110: real time    0.0112
    SETDIJ:  cpu time    0.0024: real time    0.0024
    EDDIAG:  cpu time    0.3593: real time    0.3632
  RMM-DIIS:  cpu time    1.2901: real time    1.2965
    ORTHCH:  cpu time    0.0277: real time    0.0278
       DOS:  cpu time    0.0008: real time    0.0008
    CHARGE:  cpu time    0.0830: real time    0.0832
    MIXING:  cpu time    0.0014: real time    0.0014
    --------------------------------------------
      LOOP:  cpu time    1.7757: real time    1.7865

 eigenvalue-minimisations  :  1985
 total energy-change (2. order) : 0.7267570E-02  (-0.7822374E-03)
 number of electron      77.9999980 magnetization 
 augmentation part        6.4682434 magnetization 

 Broyden mixing:
  rms(total) = 0.20546E+00    rms(broyden)= 0.20460E+00
  rms(prec ) = 0.26515E+00
  weight for this iteration     100.00

 eigenvalues of (default mixing * dielectric matrix)
  average eigenvalue GAMMA=   0.8223
  2.4754  1.6287  1.6287  0.9848  0.8572  0.6678  0.6678  0.4948  0.4948  0.2439
  0.2439  0.1204  0.1816

 Free energy of the ion-electron system (eV)
  ---------------------------------------------------
  alpha Z        PSCENC =       116.82593049
  Ewald energy   TEWEN  =     24148.76837520
  -Hartree energ DENC   =    -28622.29276508
  -exchange      EXHF   =         0.00000000
  -V(xc)+E(xc)   XCENC  =      -144.96072055
  PAW double counting   =      5264.43626422    -4818.12755556
  entropy T*S    EENTRO =        -0.01806873
  eigenvalues    EBANDS =      -583.40297460
  atomic energy  EATOM  =      4530.72999957
  Solvation  Ediel_sol  =         0.00000000
  ---------------------------------------------------
  free energy    TOTEN  =      -108.04151504 eV

  energy without entropy =     -108.02344631  energy(sigma->0) =     -108.03248067


--------------------------------------------------------------------------------------------------------




--------------------------------------- Iteration      1(  22)  ---------------------------------------


    POTLOK:  cpu time    0.0110: real time    0.0111
    SETDIJ:  cpu time    0.0022: real time    0.0022
    EDDIAG:  cpu time    0.3162: real time    0.3172
  RMM-DIIS:  cpu time    1.2827: real time    1.2859
    ORTHCH:  cpu time    0.0291: real time    0.0292
       DOS:  cpu time    0.0009: real time    0.0009
    CHARGE:  cpu time    0.0834: real time    0.0836
    MIXING:  cpu time    0.0015: real time    0.0015
    --------------------------------------------
      LOOP:  cpu time    1.7268: real time    1.7315

 eigenvalue-minimisations  :  2000
 total energy-change (2. order) :-0.3816473E-02  (-0.3687905E-03)
 number of electron      77.9999979 magnetization 
 augmentation part        6.4654933 magnetization 

 Broyden mixing:
  rms(total) = 0.22118E+00    rms(broyden)= 0.22116E+00
  rms(prec ) = 0.29650E+00
  weight for this iteration     100.00

 eigenvalues of (default mixing * dielectric matrix)
  average eigenvalue GAMMA=   0.8495
  2.4748  2.4748  1.0807  1.0807  0.7213  0.7213  0.7332  0.7332  0.5418  0.5418
  0.2438  0.2438  0.1204  0.1819

 Free energy of the ion-electron system (eV)
  ---------------------------------------------------
  alpha Z        PSCENC =       116.82593049
  Ewald energy   TEWEN  =     24148.76837520
  -Hartree energ DENC   =    -28624.10518744
  -exchange      EXHF   =         0.00000000
  -V(xc)+E(xc)   XCENC  =      -144.93272569
  PAW double counting   =      5264.24247034    -4817.94344294
  entropy T*S    EENTRO =        -0.01748027
  eigenvalues    EBANDS =      -581.61327076
  atomic energy  EATOM  =      4530.72999957
  Solvation  Ediel_sol  =         0.00000000
  ---------------------------------------------------
  free energy    TOTEN  =      -108.04533151 eV

  energy without entropy =     -108.02785124  energy(sigma->0) =     -108.03659138


--------------------------------------------------------------------------------------------------------




--------------------------------------- Iteration      1(  23)  ---------------------------------------


    POTLOK:  cpu time    0.0108: real time    0.0110
    SETDIJ:  cpu time    0.0023: real time    0.0023
    EDDIAG:  cpu time    0.3466: real time    0.3501
  RMM-DIIS:  cpu time    1.2586: real time    1.2618
    ORTHCH:  cpu time    0.0309: real time    0.0309
       DOS:  cpu time    0.0008: real time    0.0008
    CHARGE:  cpu time    0.0836: real time    0.0838
    MIXING:  cpu time    0.0014: real time    0.0014
    --------------------------------------------
      LOOP:  cpu time    1.7350: real time    1.7421

 eigenvalue-minimisations  :  1997
 total energy-change (2. order) : 0.1600580E-01  (-0.2809304E-03)
 number of electron      77.9999977 magnetization 
 augmentation part        6.4646380 magnetization 

 Broyden mixing:
  rms(total) = 0.58965E-01    rms(broyden)= 0.58571E-01
  rms(prec ) = 0.66992E-01
  weight for this iteration     100.00

 eigenvalues of (default mixing * dielectric matrix)
  average eigenvalue GAMMA=   0.8524
  2.4188  2.4188  1.4340  0.7354  0.7354  1.0131  0.7365  0.7365  0.6478  0.5603
  0.5603  0.2438  0.2438  0.1204  0.1819

 Free energy of the ion-electron system (eV)
  ---------------------------------------------------
  alpha Z        PSCENC =       116.82593049
  Ewald energy   TEWEN  =     24148.76837520
  -Hartree energ DENC   =    -28625.12674738
  -exchange      EXHF   =         0.00000000
  -V(xc)+E(xc)   XCENC  =      -144.93113293
  PAW double counting   =      5260.49850590    -4814.20144741
  entropy T*S    EENTRO =        -0.01745772
  eigenvalues    EBANDS =      -580.57535142
  atomic energy  EATOM  =      4530.72999957
  Solvation  Ediel_sol  =         0.00000000
  ---------------------------------------------------
  free energy    TOTEN  =      -108.02932571 eV

  energy without entropy =     -108.01186799  energy(sigma->0) =     -108.02059685


--------------------------------------------------------------------------------------------------------




--------------------------------------- Iteration      1(  24)  ---------------------------------------


    POTLOK:  cpu time    0.0109: real time    0.0110
    SETDIJ:  cpu time    0.0023: real time    0.0023
    EDDIAG:  cpu time    0.2923: real time    0.2926
  RMM-DIIS:  cpu time    1.2974: real time    1.2990
    ORTHCH:  cpu time    0.0298: real time    0.0298
       DOS:  cpu time    0.0008: real time    0.0008
    CHARGE:  cpu time    0.0819: real time    0.0819
    MIXING:  cpu time    0.0014: real time    0.0014
    --------------------------------------------
      LOOP:  cpu time    1.7169: real time    1.7189

 eigenvalue-minimisations  :  1917
 total energy-change (2. order) : 0.5243023E-03  (-0.1013866E-03)
 number of electron      77.9999978 magnetization 
 augmentation part        6.4663706 magnetization 

 Broyden mixing:
  rms(total) = 0.46386E-01    rms(broyden)= 0.46087E-01
  rms(prec ) = 0.48168E-01
  weight for this iteration     100.00

 eigenvalues of (default mixing * dielectric matrix)
  average eigenvalue GAMMA=   0.8978
  2.3589  2.3589  1.6015  0.9373  0.9373  0.9976  0.8756  0.8756  0.7204  0.7204
  0.5959  0.5959  0.2438  0.2438  0.1204  0.1819

 Free energy of the ion-electron system (eV)
  ---------------------------------------------------
  alpha Z        PSCENC =       116.82593049
  Ewald energy   TEWEN  =     24148.76837520
  -Hartree energ DENC   =    -28625.09520019
  -exchange      EXHF   =         0.00000000
  -V(xc)+E(xc)   XCENC  =      -144.93344493
  PAW double counting   =      5258.97281612    -4812.67493659
  entropy T*S    EENTRO =        -0.02060705
  eigenvalues    EBANDS =      -580.60173401
  atomic energy  EATOM  =      4530.72999957
  Solvation  Ediel_sol  =         0.00000000
  ---------------------------------------------------
  free energy    TOTEN  =      -108.02880141 eV

  energy without entropy =     -108.00819435  energy(sigma->0) =     -108.01849788


--------------------------------------------------------------------------------------------------------




--------------------------------------- Iteration      1(  25)  ---------------------------------------


    POTLOK:  cpu time    0.0096: real time    0.0097
    SETDIJ:  cpu time    0.0021: real time    0.0021
    EDDIAG:  cpu time    0.3049: real time    0.3055
  RMM-DIIS:  cpu time    1.2909: real time    1.2926
    ORTHCH:  cpu time    0.0291: real time    0.0291
       DOS:  cpu time    0.0008: real time    0.0008
    CHARGE:  cpu time    0.0821: real time    0.0821
    MIXING:  cpu time    0.0017: real time    0.0017
    --------------------------------------------
      LOOP:  cpu time    1.7213: real time    1.7237

 eigenvalue-minimisations  :  1979
 total energy-change (2. order) :-0.2050136E-01  (-0.1341389E-03)
 number of electron      77.9999980 magnetization 
 augmentation part        6.4690310 magnetization 

 Broyden mixing:
  rms(total) = 0.29160E+00    rms(broyden)= 0.29126E+00
  rms(prec ) = 0.39920E+00
  weight for this iteration     100.00

 eigenvalues of (default mixing * dielectric matrix)
  average eigenvalue GAMMA=   0.8831
  2.5014  2.5014  1.1682  1.1682  1.0214  1.0214  0.8219  0.8219  0.8399  0.6656
  0.6656  0.5130  0.5130  0.2438  0.2438  0.1204  0.1819

 Free energy of the ion-electron system (eV)
  ---------------------------------------------------
  alpha Z        PSCENC =       116.82593049
  Ewald energy   TEWEN  =     24148.76837520
  -Hartree energ DENC   =    -28625.99044747
  -exchange      EXHF   =         0.00000000
  -V(xc)+E(xc)   XCENC  =      -144.92342682
  PAW double counting   =      5258.10387753    -4811.80963672
  entropy T*S    EENTRO =        -0.02443773
  eigenvalues    EBANDS =      -579.72953681
  atomic energy  EATOM  =      4530.72999957
  Solvation  Ediel_sol  =         0.00000000
  ---------------------------------------------------
  free energy    TOTEN  =      -108.04930277 eV

  energy without entropy =     -108.02486504  energy(sigma->0) =     -108.03708390


--------------------------------------------------------------------------------------------------------




--------------------------------------- Iteration      1(  26)  ---------------------------------------


    POTLOK:  cpu time    0.0108: real time    0.0109
    SETDIJ:  cpu time    0.0022: real time    0.0022
    EDDIAG:  cpu time    0.3070: real time    0.3074
  RMM-DIIS:  cpu time    1.2265: real time    1.2308
    ORTHCH:  cpu time    0.0281: real time    0.0281
       DOS:  cpu time    0.0008: real time    0.0008
    CHARGE:  cpu time    0.0803: real time    0.0805
    MIXING:  cpu time    0.0015: real time    0.0015
    --------------------------------------------
      LOOP:  cpu time    1.6573: real time    1.6623

 eigenvalue-minimisations  :  1933
 total energy-change (2. order) : 0.2261949E-01  (-0.7062302E-04)
 number of electron      77.9999978 magnetization 
 augmentation part        6.4650448 magnetization 

 Broyden mixing:
  rms(total) = 0.87247E-01    rms(broyden)= 0.86394E-01
  rms(prec ) = 0.11936E+00
  weight for this iteration     100.00

 eigenvalues of (default mixing * dielectric matrix)
  average eigenvalue GAMMA=   0.9483
  2.5866  2.3459  1.7064  1.7064  0.8614  0.8614  1.0589  0.9318  0.9318  0.8572
  0.6821  0.6821  0.5336  0.5336  0.2438  0.2438  0.1204  0.1819

 Free energy of the ion-electron system (eV)
  ---------------------------------------------------
  alpha Z        PSCENC =       116.82593049
  Ewald energy   TEWEN  =     24148.76837520
  -Hartree energ DENC   =    -28626.20846327
  -exchange      EXHF   =         0.00000000
  -V(xc)+E(xc)   XCENC  =      -144.91809627
  PAW double counting   =      5258.40390119    -4812.11123080
  entropy T*S    EENTRO =        -0.01936794
[...]
     48       9.0148      0.00000
     49       9.3098      0.00000
     50       9.3422      0.00000

 k-point    17 :      -0.4375    0.3125    0.0000
  band No.  band energies     occupation 
      1     -18.1883      2.00000
      2     -18.1189      2.00000
      3     -18.0430      2.00000
      4     -17.9570      2.00000
      5     -17.8677      2.00000
      6     -17.7889      2.00000
      7     -17.7450      2.00000
      8     -17.6749      2.00000
      9     -16.9937      2.00000
     10     -16.8715      2.00000
     11      -6.0149      2.00000
     12      -5.8429      2.00000
     13      -5.7243      2.00000
     14      -5.6223      2.00000
     15      -5.5719      2.00000
     16      -5.4310      2.00000
     17      -5.3697      2.00000
     18      -5.2027      2.00000
     19      -4.7359      2.00000
     20      -4.4563      2.00000
     21      -4.1513      2.00000
     22      -3.8613      2.00000
     23      -3.6702      2.00000
     24      -3.5460      2.00000
     25      -3.4948      2.00000
     26      -3.4513      2.00000
     27      -3.3859      2.00000
     28      -3.2950      2.00000
     29      -3.1988      2.00000
     30      -3.1264      2.00000
     31      -3.0377      2.00000
     32      -2.9652      2.00000
     33      -2.8372      2.00000
     34      -2.7697      2.00000
     35      -2.7024      2.00000
     36      -2.6303      2.00000
     37      -2.0281      2.00000
     38      -1.8951      2.00000
     39      -1.7262      1.92118
     40      -1.7170      1.86607
     41       6.1639      0.00000
     42       6.5032      0.00000
     43       6.9193      0.00000
     44       7.3033      0.00000
     45       7.6033      0.00000
     46       7.8998      0.00000
     47       8.0986      0.00000
     48       8.2414      0.00000
     49       8.3954      0.00000
     50       8.5673      0.00000

 k-point    18 :      -0.3125    0.3125    0.0000
  band No.  band energies     occupation 
      1     -18.4577      2.00000
      2     -18.3723      2.00000
      3     -18.2713      2.00000
      4     -18.1517      2.00000
      5     -18.0250      2.00000
      6     -17.9089      2.00000
      7     -17.8236      2.00000
      8     -17.7512      2.00000
      9     -17.0809      2.00000
     10     -16.9794      2.00000
     11      -5.7108      2.00000
     12      -5.6759      2.00000
     13      -5.5459      2.00000
     14      -5.4848      2.00000
     15      -5.3380      2.00000
     16      -5.2125      2.00000
     17      -5.0385      2.00000
     18      -4.9152      2.00000
     19      -4.7639      2.00000
     20      -4.5033      2.00000
     21      -4.1192      2.00000
     22      -3.7446      2.00000
     23      -3.4190      2.00000
     24      -3.1809      2.00000
     25      -3.1475      2.00000
     26      -3.0964      2.00000
     27      -2.9974      2.00000
     28      -2.9412      2.00000
     29      -2.8825      2.00000
     30      -2.7613      2.00000
     31      -2.7581      2.00000
     32      -2.6514      2.00000
     33      -2.6333      2.00000
     34      -2.5764      2.00000
     35      -2.5344      2.00000
     36      -2.4949      2.00000
     37      -1.7500      1.98497
     38      -1.7459      1.97951
     39      -1.7151      1.85146
     40      -1.5912      0.03949
     41       5.3726      0.00000
     42       5.7192      0.00000
     43       6.1478      0.00000
     44       6.6058      0.00000
     45       7.0742      0.00000
     46       7.4914      0.00000
     47       7.7375      0.00000
     48       7.9609      0.00000
     49       8.0739      0.00000
     50       8.4421      0.00000

 k-point    19 :       0.4375    0.4375    0.0000
  band No.  band energies     occupation 
      1     -17.9532      2.00000
      2     -17.9102      2.00000
      3     -17.8683      2.00000
      4     -17.8267      2.00000
      5     -17.7846      2.00000
      6     -17.7366      2.00000
      7     -17.7287      2.00000
      8     -17.6343      2.00000
      9     -16.9384      2.00000
     10     -16.7998      2.00000
     11      -6.3681      2.00000
     12      -6.1897      2.00000
     13      -5.9599      2.00000
     14      -5.8693      2.00000
     15      -5.7410      2.00000
     16      -5.7268      2.00000
     17      -5.6288      2.00000
     18      -5.4889      2.00000
     19      -4.4180      2.00000
     20      -4.3074      2.00000
     21      -4.0355      2.00000
     22      -3.9507      2.00000
     23      -3.8237      2.00000
     24      -3.7540      2.00000
     25      -3.6978      2.00000
     26      -3.5874      2.00000
     27      -3.4311      2.00000
     28      -3.4091      2.00000
     29      -3.3299      2.00000
     30      -3.2407      2.00000
     31      -3.1576      2.00000
     32      -3.0620      2.00000
     33      -2.9253      2.00000
     34      -2.8653      2.00000
     35      -2.7911      2.00000
     36      -2.7699      2.00000
     37      -2.1041      2.00000
     38      -1.9860      2.00000
     39      -1.7512      1.98637
     40      -1.7305      1.93982
     41       6.3317      0.00000
     42       6.7281      0.00000
     43       7.2399      0.00000
     44       7.5113      0.00000
     45       7.7581      0.00000
     46       7.9079      0.00000
     47       8.1105      0.00000
     48       8.1987      0.00000
     49       8.3468      0.00000
     50       8.4701      0.00000

 k-point    20 :      -0.4375    0.4375    0.0000
  band No.  band energies     occupation 
      1     -18.0701      2.00000
      2     -18.0132      2.00000
      3     -17.9546      2.00000
      4     -17.8915      2.00000
      5     -17.8264      2.00000
      6     -17.7673      2.00000
      7     -17.7459      2.00000
      8     -17.6654      2.00000
      9     -16.9717      2.00000
     10     -16.8400      2.00000
     11      -6.4205      2.00000
     12      -6.2397      2.00000
     13      -6.0050      2.00000
     14      -5.9547      2.00000
     15      -5.8010      2.00000
     16      -5.7630      2.00000
     17      -5.6624      2.00000
     18      -5.5230      2.00000
     19      -4.5008      2.00000
     20      -4.3994      2.00000
     21      -4.1199      2.00000
     22      -3.7625      2.00000
     23      -3.4992      2.00000
     24      -3.4421      2.00000
     25      -3.3530      2.00000
     26      -3.2675      2.00000
     27      -3.2298      2.00000
     28      -3.1672      2.00000
     29      -3.0506      2.00000
     30      -2.9968      2.00000
     31      -2.9274      2.00000
     32      -2.8421      2.00000
     33      -2.8155      2.00000
     34      -2.7390      2.00000
     35      -2.7155      2.00000
     36      -2.6559      2.00000
     37      -1.8631      2.00000
     38      -1.7884      1.99956
     39      -1.7627      1.99477
     40      -1.7176      1.87061
     41       5.7899      0.00000
     42       6.2159      0.00000
     43       6.7415      0.00000
     44       7.2181      0.00000
     45       7.2404      0.00000
     46       7.4618      0.00000
     47       7.6008      0.00000
     48       7.6852      0.00000
     49       7.8978      0.00000
     50       8.0769      0.00000


--------------------------------------------------------------------------------------------------------


 soft charge-density along one line, spin component           1
         0         1         2         3         4         5         6         7         8         9
 total charge-density along one line
 
 pseudopotential strength for first ion, spin component:           1
  3.005   9.644   0.001   0.001   0.001   0.001   0.001   0.001
  9.644  30.757   0.003   0.003   0.003   0.005   0.005   0.005
  0.001   0.003   7.018  -0.000  -0.000  10.423  -0.000  -0.000
  0.001   0.003  -0.000   7.018  -0.000  -0.000  10.423  -0.000
  0.001   0.003  -0.000  -0.000   7.018  -0.000  -0.000  10.423
  0.001   0.005  10.423  -0.000  -0.000  14.593  -0.000  -0.000
  0.001   0.005  -0.000  10.423  -0.000  -0.000  14.593  -0.000
  0.001   0.005  -0.000  -0.000  10.423  -0.000  -0.000  14.593
 -0.000  -0.000   0.002  -0.000   0.002   0.002  -0.000   0.002
 -0.000  -0.000   0.002   0.002  -0.000   0.002   0.002  -0.000
 -0.000  -0.000  -0.001   0.002  -0.001  -0.001   0.002  -0.001
 -0.000  -0.000  -0.000   0.002   0.002  -0.000   0.002   0.002
 -0.000  -0.000  -0.002   0.000   0.002  -0.002   0.000   0.002
 total augmentation occupancy for first ion, spin component:           1
  1.005  -0.046  -0.008  -0.008  -0.008   0.001   0.001   0.001  -0.002  -0.002   0.000  -0.002   0.000
 -0.046   0.002   0.000   0.000   0.000  -0.000  -0.000  -0.000   0.000   0.000  -0.000   0.000  -0.000
 -0.008   0.000   0.116  -0.001  -0.001  -0.012   0.000   0.000   0.001   0.001   0.002  -0.000   0.004
 -0.008   0.000  -0.001   0.116  -0.001   0.000  -0.012   0.000  -0.000   0.001  -0.005   0.001   0.000
 -0.008   0.000  -0.001  -0.001   0.116   0.000   0.000  -0.012   0.001  -0.000   0.002   0.001  -0.004
  0.001  -0.000  -0.012   0.000   0.000   0.001  -0.000  -0.000  -0.000  -0.000  -0.000   0.000  -0.000
  0.001  -0.000   0.000  -0.012   0.000  -0.000   0.001  -0.000   0.000  -0.000   0.001  -0.000  -0.000
  0.001  -0.000   0.000   0.000  -0.012  -0.000  -0.000   0.001  -0.000   0.000  -0.000  -0.000   0.000
 -0.002   0.000   0.001  -0.000   0.001  -0.000   0.000  -0.000   0.013  -0.000   0.000  -0.000   0.000
 -0.002   0.000   0.001   0.001  -0.000  -0.000  -0.000   0.000  -0.000   0.013  -0.000  -0.000   0.000
  0.000  -0.000   0.002  -0.005   0.002  -0.000   0.001  -0.000   0.000  -0.000   0.050  -0.000  -0.000
 -0.002   0.000  -0.000   0.001   0.001   0.000  -0.000  -0.000  -0.000  -0.000  -0.000   0.013  -0.000
  0.000  -0.000   0.004   0.000  -0.004  -0.000  -0.000   0.000   0.000   0.000  -0.000  -0.000   0.050


------------------------ aborting loop because EDIFF is reached ----------------------------------------


    CHARGE:  cpu time    0.0840: real time    0.0844
    FORLOC:  cpu time    0.0022: real time    0.0022
    FORNL :  cpu time    0.5844: real time    0.5859
    STRESS:  cpu time    1.4591: real time    1.4632
    FORCOR:  cpu time    0.0127: real time    0.0127
    FORHAR:  cpu time    0.0046: real time    0.0046
    MIXING:  cpu time    0.0009: real time    0.0009
    OFIELD:  cpu time    0.0000: real time    0.0000

  FORCE on cell =-STRESS in cart. coord.  units (eV):
  Direction    XX          YY          ZZ          XY          YZ          ZX
  --------------------------------------------------------------------------------------
  Alpha Z   116.82593   116.82593   116.82593
  Ewald    8189.59493  8189.57776  8189.57732-18700.30236-18700.31115-18700.30229
  Hartree  9685.00776  9684.99029  9684.99041-18428.93444-18428.94314-18428.93445
  E(xc)    -354.81371  -354.81374  -354.81371     0.03817     0.03816     0.03817
  Local  -18916.12128-18916.08572-18916.08631 37125.90197 37125.91976 37125.90267
  n-local  -183.59792  -188.65485  -193.47906    -1.81274     0.01291    -1.05386
  augment    67.03679    67.03680    67.03679     0.24435     0.24432     0.24436
  Kinetic  1388.11193  1400.52048  1412.06384    14.84359    -8.85609     3.54204
  Fock        0.00000     0.00000     0.00000     0.00000     0.00000     0.00000
  -------------------------------------------------------------------------------------
  Total      -0.81447    -0.81447    -0.81447    -0.82668    -0.82668    -0.82668
  in kB      -4.50217    -4.50217    -4.50217    -4.56969    -4.56969    -4.56969
  external pressure =       -4.50 kB  Pullay stress =        0.00 kB


 VOLUME and BASIS-vectors are now :
 -----------------------------------------------------------------------------
  energy-cutoff  :      450.00
  volume of cell :      289.84
      direct lattice vectors                 reciprocal lattice vectors
     2.124436000 -2.124435000  0.000000000     0.313808828 -0.156904414 -0.156904414
     0.000000000  2.124436000 -2.124436000     0.156904340  0.156904414 -0.313808754
    21.406867000 21.406867000 21.406867000     0.015571322  0.015571330  0.015571330

  length of vectors
     3.004405496  3.004406204 37.077781275     0.384335753  0.384335662  0.026970330


 FORCES acting on ions
    electron-ion (+dipol)            ewald-force                    non-local-force                 convergence-correction
 -----------------------------------------------------------------------------------------------
   0.227E+03 0.227E+03 0.227E+03   -.228E+03 -.228E+03 -.228E+03   0.286E+00 0.286E+00 0.286E+00   0.754E-02 0.754E-02 0.754E-02
   0.151E+03 0.151E+03 0.151E+03   -.151E+03 -.151E+03 -.151E+03   0.582E-01 0.582E-01 0.582E-01   0.845E-02 0.845E-02 0.845E-02
   -.108E+01 -.108E+01 -.108E+01   0.106E+01 0.106E+01 0.106E+01   0.119E-02 0.119E-02 0.119E-02   0.759E-02 0.759E-02 0.759E-02
   -.770E+02 -.770E+02 -.770E+02   0.770E+02 0.770E+02 0.770E+02   0.251E-02 0.251E-02 0.251E-02   0.750E-02 0.750E-02 0.750E-02
   -.229E+03 -.229E+03 -.229E+03   0.229E+03 0.229E+03 0.229E+03   -.150E-01 -.150E-01 -.150E-01   0.768E-02 0.768E-02 0.768E-02
   -.304E+03 -.304E+03 -.304E+03   0.305E+03 0.305E+03 0.305E+03   0.125E+00 0.125E+00 0.125E+00   0.522E-02 0.522E-02 0.522E-02
   0.308E+03 0.308E+03 0.308E+03   -.309E+03 -.309E+03 -.309E+03   0.127E+01 0.127E+01 0.127E+01   0.121E-02 0.121E-02 0.121E-02
   0.748E+02 0.748E+02 0.748E+02   -.749E+02 -.749E+02 -.749E+02   0.170E-01 0.170E-01 0.170E-01   0.812E-02 0.812E-02 0.812E-02
   -.153E+03 -.153E+03 -.153E+03   0.153E+03 0.153E+03 0.153E+03   -.825E-04 -.825E-04 -.825E-04   0.760E-02 0.760E-02 0.760E-02
   0.103E+04 0.103E+04 0.103E+04   -.104E+04 -.104E+04 -.104E+04   0.859E+01 0.859E+01 0.859E+01   -.103E-01 -.103E-01 -.103E-01
   0.338E+03 0.338E+03 0.338E+03   -.339E+03 -.339E+03 -.339E+03   0.607E-01 0.607E-01 0.607E-01   0.256E-01 0.256E-01 0.256E-01
   -.345E+03 -.345E+03 -.345E+03   0.345E+03 0.345E+03 0.345E+03   0.335E-02 0.335E-02 0.335E-02   0.228E-01 0.228E-01 0.228E-01
   -.100E+04 -.100E+04 -.100E+04   0.102E+04 0.102E+04 0.102E+04   -.113E+02 -.113E+02 -.113E+02   -.692E-02 -.692E-02 -.692E-02
   0.566E+03 0.566E+03 0.566E+03   -.567E+03 -.567E+03 -.567E+03   0.261E+00 0.261E+00 0.261E+00   0.254E-01 0.254E-01 0.254E-01
   -.117E+03 -.117E+03 -.117E+03   0.117E+03 0.117E+03 0.117E+03   0.344E-01 0.344E-01 0.344E-01   0.226E-01 0.226E-01 0.226E-01
   -.800E+03 -.800E+03 -.800E+03   0.800E+03 0.800E+03 0.800E+03   -.709E+00 -.709E+00 -.709E+00   0.232E-01 0.232E-01 0.232E-01
   0.797E+03 0.797E+03 0.797E+03   -.798E+03 -.798E+03 -.798E+03   0.122E+01 0.122E+01 0.122E+01   0.180E-01 0.180E-01 0.180E-01
   0.111E+03 0.111E+03 0.111E+03   -.111E+03 -.111E+03 -.111E+03   0.442E-01 0.442E-01 0.442E-01   0.235E-01 0.235E-01 0.235E-01
   -.572E+03 -.572E+03 -.572E+03   0.572E+03 0.572E+03 0.572E+03   -.774E-01 -.774E-01 -.774E-01   0.231E-01 0.231E-01 0.231E-01
 -----------------------------------------------------------------------------------------------
   -.498E-01 -.498E-01 -.498E-01   0.227E-12 0.227E-12 -.227E-12   -.165E+00 -.165E+00 -.165E+00   0.228E+00 0.228E+00 0.228E+00
 
 
 POSITION                                       TOTAL-FORCE (eV/Angst)
 -----------------------------------------------------------------------------------
      2.69185      2.69185      2.69185        -0.000787     -0.000787     -0.000787
      4.82388      4.82388      2.69944         0.000196      0.000196      0.000196
      6.95066      6.95066      6.95066        -0.012139     -0.012139     -0.012139
      9.07508      9.07509      6.95065        -0.005381     -0.005381     -0.005381
     11.19954     11.19954     11.19954         0.042402      0.042402      0.042402
     13.32396     13.32396     11.19952         0.625067      0.625067      0.625067
      2.65414      0.52970      0.52970         0.000626      0.000626      0.000626
      6.95065      4.82621      4.82622        -0.007940     -0.007940     -0.007940
     11.19953      9.07509      9.07509         0.006022      0.006022      0.006022
      0.70752      0.70752      0.70752         0.003386      0.003386      0.003386
      4.82723      4.82723      4.82723         0.001218      0.001218      0.001218
      9.07510      9.07510      9.07510        -0.000823     -0.000823     -0.000823
     13.32396     13.32396     13.32396        -0.483614     -0.483614     -0.483614
      4.83030      2.70586      2.70586         0.000566      0.000566      0.000566
      9.07509      6.95065      6.95065         0.015758      0.015758      0.015758
     13.32397     11.19953     11.19953        -0.173563     -0.173563     -0.173563
      2.72819      2.72820      0.60376         0.001580      0.001580      0.001580
      6.95067      6.95067      4.82623         0.012207      0.012207      0.012207
     11.19952     11.19952      9.07509        -0.024781     -0.024781     -0.024781
 -----------------------------------------------------------------------------------
    total drift:                                0.013203      0.013177      0.013203


--------------------------------------------------------------------------------------------------------



  FREE ENERGIE OF THE ION-ELECTRON SYSTEM (eV)
  ---------------------------------------------------
  free  energy   TOTEN  =      -108.18987582 eV

  energy  without entropy=     -108.16600362  energy(sigma->0) =     -108.17793972
 
 d Force = 0.1726370E-04[ 0.618E-05, 0.283E-04]  d Energy = 0.1287372E-04 0.439E-05
 d Force =-0.2068951E+01[-0.207E+01,-0.207E+01]  d Ewald  =-0.2068951E+01 0.573E-07


--------------------------------------------------------------------------------------------------------


    POTLOK:  cpu time    0.0140: real time    0.0140


--------------------------------------------------------------------------------------------------------


 stress matrix after NEB project (eV)
     -0.81447     -0.82668     -0.82668
     -0.82668     -0.81447     -0.82668
     -0.82668     -0.82668     -0.81447
  FORCES: max atom, RMS     0.005865    0.001630
  FORCE total and by dimension    0.007103    0.003386
  Stress total and by dimension    2.467887    0.826681
 Conjugate gradient step on ions:
 trial-energy change:   -0.000013  1 .order   -0.000017   -0.000028   -0.000006
  (g-gl).g = 0.121E-04      g.g   = 0.191E-04  gl.gl    = 0.489E-04
 g(Force)  = 0.191E-04   g(Stress)= 0.000E+00 ortho     =-0.142E-05
 gamma     =   0.24716
 trial     =   1.51256
 opt step  =   1.93406  (harmonic =   1.93406) maximal distance =0.00086308
 next E    =  -108.189881   (d E  =  -0.00002)


--------------------------------------------------------------------------------------------------------


  
 reached required accuracy - stopping structural energy minimisation
     LOOP+:  cpu time   28.1330: real time   28.2043
    4ORBIT:  cpu time    0.0000: real time    0.0000

 total amount of memory used by VASP MPI-rank0    42714. kBytes
=======================================================================

   base      :      30000. kBytes
   nonlr-proj:       2387. kBytes
   fftplans  :       2059. kBytes
   grid      :       2996. kBytes
   one-center:         40. kBytes
   wavefun   :       5232. kBytes
 
  
  
 General timing and accounting informations for this job:
 ========================================================
  
                  Total CPU time used (sec):     1102.333
                            User time (sec):     1099.473
                          System time (sec):        2.859
                         Elapsed time (sec):     1111.154
  
                   Maximum memory used (kb):      143344.
                   Average memory used (kb):           0.
  
                          Minor page faults:       167606
                          Major page faults:            0
                 Voluntary context switches:          974
