 vasp.5.4.4.18Apr17-6-g9f103f2a35 (build Nov 15 2019 10:10:58) complex          
  
 executed on             LinuxIFC date 2024.09.29  09:46:44
 running on   20 total cores
 distrk:  each k-point on   20 cores,    1 groups
 distr:  one band on NCORES_PER_BAND=   4 cores,    5 groups


--------------------------------------------------------------------------------------------------------


 INCAR:
 POTCAR:    PAW_PBE O 08Apr2002                   
 POTCAR:    PAW_PBE Mg 13Apr2007                  
 POTCAR:    PAW_PBE O 08Apr2002                   
   VRHFIN =O: s2p4                                                              
   LEXCH  = PE                                                                  
   EATOM  =   432.3788 eV,   31.7789 Ry                                         
                                                                                
   TITEL  = PAW_PBE O 08Apr2002                                                 
   LULTRA =        F    use ultrasoft PP ?                                      
   IUNSCR =        1    unscreen: 0-lin 1-nonlin 2-no                           
   RPACOR =    1.200    partial core radius                                     
   POMASS =   16.000; ZVAL   =    6.000    mass and valenz                      
   RCORE  =    1.520    outmost cutoff radius                                   
   RWIGS  =    1.550; RWIGS  =    0.820    wigner-seitz radius (au A)           
   ENMAX  =  400.000; ENMIN  =  300.000 eV                                      
   ICORE  =        2    local potential                                         
   LCOR   =        T    correct aug charges                                     
   LPAW   =        T    paw PP                                                  
   EAUG   =  605.392                                                            
   DEXC   =    0.000                                                            
   RMAX   =    1.553    core radius for proj-oper                               
   RAUG   =    1.300    factor for augmentation sphere                          
   RDEP   =    1.550    radius for radial grids                                 
   RDEPT  =    1.329    core radius for aug-charge                              
                                                                                
   Atomic configuration                                                         
    4 entries                                                                   
     n  l   j            E        occ.                                          
     1  0  0.50      -514.6923   2.0000                                         
     2  0  0.50       -23.9615   2.0000                                         
     2  1  0.50        -9.0305   4.0000                                         
     3  2  1.50        -9.5241   0.0000                                         
   Description                                                                  
     l       E           TYP  RCUT    TYP  RCUT                                 
     0    -23.9615318     23  1.200                                             
     0     -9.5240782     23  1.200                                             
     1     -9.0304911     23  1.520                                             
     1      8.1634956     23  1.520                                             
     2     -9.5240782      7  1.500                                             
  local pseudopotential read in
  partial core-charges read in
  partial kinetic energy density read in
  kinetic energy density of atom read in
  atomic valenz-charges read in
  non local Contribution for L=           0  read in
    real space projection operators read in
  non local Contribution for L=           0  read in
    real space projection operators read in
  non local Contribution for L=           1  read in
    real space projection operators read in
  non local Contribution for L=           1  read in
    real space projection operators read in
    PAW grid and wavefunctions read in
 
   number of l-projection  operators is LMAX  =           4
   number of lm-projection operators is LMMAX =           8
 
 POTCAR:    PAW_PBE Mg 13Apr2007                  
   VRHFIN =Mg: s2p0                                                             
   LEXCH  = PE                                                                  
   EATOM  =    23.0369 eV,    1.6932 Ry                                         
                                                                                
   TITEL  = PAW_PBE Mg 13Apr2007                                                
   LULTRA =        F    use ultrasoft PP ?                                      
   IUNSCR =        1    unscreen: 0-lin 1-nonlin 2-no                           
   RPACOR =    1.500    partial core radius                                     
   POMASS =   24.305; ZVAL   =    2.000    mass and valenz                      
   RCORE  =    2.000    outmost cutoff radius                                   
   RWIGS  =    2.880; RWIGS  =    1.524    wigner-seitz radius (au A)           
   ENMAX  =  200.000; ENMIN  =  100.000 eV                                      
   RCLOC  =    1.506    cutoff for local pot                                    
   LCOR   =        T    correct aug charges                                     
   LPAW   =        T    paw PP                                                  
   EAUG   =  454.734                                                            
   DEXC   =    0.000                                                            
   RMAX   =    2.045    core radius for proj-oper                               
   RAUG   =    1.300    factor for augmentation sphere                          
   RDEP   =    2.025    radius for radial grids                                 
   RDEPT  =    1.942    core radius for aug-charge                              
                                                                                
   Atomic configuration                                                         
    6 entries                                                                   
     n  l   j            E        occ.                                          
     1  0  0.50     -1259.6230   2.0000                                         
     2  0  0.50       -79.8442   2.0000                                         
     2  1  1.50       -46.6121   6.0000                                         
     3  0  0.50        -4.7055   2.0000                                         
     3  1  0.50        -1.3660   0.0000                                         
     3  2  1.50        -1.3606   0.0000                                         
   Description                                                                  
     l       E           TYP  RCUT    TYP  RCUT                                 
     0     -4.7054661     23  2.000                                             
     0     27.2116520     23  2.000                                             
     1      1.3605826     23  2.000                                             
     1     27.2116520     23  2.000                                             
     2     -1.3605826     23  2.000                                             
  local pseudopotential read in
  partial core-charges read in
  partial kinetic energy density read in
  atomic valenz-charges read in
  non local Contribution for L=           0  read in
    real space projection operators read in
  non local Contribution for L=           0  read in
    real space projection operators read in
  non local Contribution for L=           1  read in
    real space projection operators read in
  non local Contribution for L=           1  read in
    real space projection operators read in
  non local Contribution for L=           2  read in
    real space projection operators read in
    PAW grid and wavefunctions read in
 
   number of l-projection  operators is LMAX  =           5
   number of lm-projection operators is LMMAX =          13
 

 ----------------------------------------------------------------------------- 
|                                                                             |
|  ADVICE TO THIS USER RUNNING 'VASP/VAMP'   (HEAR YOUR MASTER'S VOICE ...):  |
|                                                                             |
|      You have a (more or less) 'large supercell' and for larger cells       |
|      it might be more efficient to use real space projection opertators     |
|      So try LREAL= Auto  in the INCAR   file.                               |
|      Mind:          For very  accurate calculation you might also keep the  |
|      reciprocal projection scheme          (i.e. LREAL=.FALSE.)             |
|                                                                             |
 ----------------------------------------------------------------------------- 

  PAW_PBE O 08Apr2002                   :
 energy of atom  1       EATOM= -432.3788
 kinetic energy error for atom=    0.0389 (will be added to EATOM!!)
  PAW_PBE Mg 13Apr2007                  :
 energy of atom  2       EATOM=  -23.0369
 kinetic energy error for atom=    0.0001 (will be added to EATOM!!)
 
 
 POSCAR: Layer (20)                              
  positions in direct lattice
  velocities in cartesian coordinates
 exchange correlation table for  LEXCH =        8
   RHO(1)=    0.500       N(1)  =     2000
   RHO(2)=  100.500       N(2)  =     4000

 VTST: version 3.2, (02/03/18)

 CHAIN: initializing optimizer
 
 OPT: Using VASP Conjugate-Gradient optimizer
 CHAIN: Read ICHAIN            0
 
 POSCAR: Layer (20)                              
  positions in direct lattice
  velocities in cartesian coordinates
 


--------------------------------------------------------------------------------------------------------


 ion  position               nearest neighbor table
   1  0.000  0.000  0.498-  17 2.11  17 2.11  17 2.11  14 2.12  14 2.12  14 2.12
   2  0.333  0.667  0.529-  14 2.11  14 2.11  14 2.11  11 2.12  11 2.12  11 2.12
   3  0.000  0.000  0.590-  18 2.11  18 2.11  18 2.11  15 2.12  15 2.12  15 2.12
   4  0.333  0.667  0.621-  15 2.11  15 2.11  15 2.11  12 2.12  12 2.12  12 2.12
   5  0.000  0.000  0.683-  19 2.11  19 2.11  19 2.11  16 2.12  16 2.12  16 2.12
   6  0.333  0.667  0.713-  16 2.11  16 2.11  16 2.11  13 2.15  13 2.15  13 2.15
   7  0.667  0.333  0.467-  17 2.12  17 2.12  17 2.12  10 2.12  10 2.12  10 2.12
   8  0.667  0.333  0.559-  11 2.11  11 2.11  11 2.11  18 2.12  18 2.12  18 2.12
   9  0.667  0.333  0.652-  12 2.11  12 2.11  12 2.11  19 2.12  19 2.12  19 2.12
  10  0.000  0.000  0.452-   7 2.12   7 2.12   7 2.12  17 3.02  17 3.02  17 3.02
  11  0.000  0.000  0.544-   8 2.11   8 2.11   8 2.11   2 2.12   2 2.12   2 2.12  14 3.00  14 3.00
                            14 3.00  18 3.00  18 3.00  18 3.00
  12  0.000  0.000  0.637-   9 2.11   9 2.11   9 2.11   4 2.12   4 2.12   4 2.12  15 3.00  15 3.00
                            15 3.00  19 3.00  19 3.00  19 3.00
  13  0.000  0.000  0.730-   6 2.15   6 2.15   6 2.15  16 3.04  16 3.04  16 3.04
  14  0.667  0.333  0.513-   2 2.11   2 2.11   2 2.11   1 2.12   1 2.12   1 2.12  11 3.00  11 3.00
                            11 3.00  17 3.00  17 3.00  17 3.00
  15  0.667  0.333  0.606-   4 2.11   4 2.11   4 2.11   3 2.12   3 2.12   3 2.12  18 3.00  18 3.00
                            18 3.00  12 3.00  12 3.00  12 3.00
  16  0.667  0.333  0.698-   6 2.11   6 2.11   6 2.11   5 2.12   5 2.12   5 2.12  19 3.00  19 3.00
                            19 3.00  13 3.04  13 3.04  13 3.04
  17  0.333  0.667  0.483-   1 2.11   1 2.11   1 2.11   7 2.12   7 2.12   7 2.12  14 3.00  14 3.00
                            14 3.00  10 3.02  10 3.02  10 3.02
  18  0.333  0.667  0.575-   3 2.11   3 2.11   3 2.11   8 2.12   8 2.12   8 2.12  11 3.00  11 3.00
                            11 3.00  15 3.00  15 3.00  15 3.00
  19  0.333  0.667  0.667-   5 2.11   5 2.11   5 2.11   9 2.12   9 2.12   9 2.12  12 3.00  12 3.00
                            12 3.00  16 3.00  16 3.00  16 3.00
 
  Warning from LATTYP: Monoclinic adjustement (A1->A3, A2->A1, A3->A2)!
  LATTYP: Found a base centered orthorhombic cell.
 ALAT       =     2.9842867459
 B/A-ratio  =     1.7320640768
 C/A-ratio  =    26.7276701675
  
  Lattice vectors:
  
 A1 = (   2.5844879337,  -1.4921433729,   0.0000000000)
 A2 = (  -2.5844879337,  -1.4921433729,   0.0000000000)
 A3 = (  -0.0000000000,  -0.0000000000, -79.7630318286)


Analysis of symmetry for initial positions (statically):
=====================================================================
 Subroutine PRICEL returns:
 Original cell was already a primitive cell.
 

 Routine SETGRP: Setting up the symmetry group for a 
 base centered orthorhombic supercell.


 Subroutine GETGRP returns: Found  1 space group operations
 (whereof  1 operations were pure point group operations)
 out of a pool of  8 trial point group operations.


The static configuration has the point symmetry C_1 .


Analysis of symmetry for dynamics (positions and initial velocities):
=====================================================================
 Subroutine PRICEL returns:
 Original cell was already a primitive cell.
 

 Routine SETGRP: Setting up the symmetry group for a 
 base centered orthorhombic supercell.


 Subroutine GETGRP returns: Found  1 space group operations
 (whereof  1 operations were pure point group operations)
 out of a pool of  8 trial point group operations.


The dynamic configuration has the point symmetry C_1 .


Analysis of constrained symmetry for selective dynamics:
=====================================================================
 Subroutine PRICEL returns:
 Original cell was already a primitive cell.
 

 Routine SETGRP: Setting up the symmetry group for a 
 base centered orthorhombic supercell.


 Subroutine GETGRP returns: Found  1 space group operations
 (whereof  1 operations were pure point group operations)
 out of a pool of  8 trial point group operations.


The constrained configuration has the point symmetry C_1 .


 Subroutine INISYM returns: Found  1 space group operations
 (whereof  1 operations are pure point group operations),
 and found     1 'primitive' translations

 
 
 KPOINTS: K-Spacing Value to Generate K-Mesh: 0.02

Automatic generation of k-mesh.
Space group operators:
 irot       det(A)        alpha          n_x          n_y          n_z        tau_x        tau_y        tau_z
    1     1.000000     0.000001     1.000000     0.000000     0.000000     0.000000     0.000000     0.000000
 
 Subroutine IBZKPT returns following result:
 ===========================================
 
 Found     64 irreducible k-points:
 
 Following reciprocal coordinates:
            Coordinates               Weight
  0.062500  0.062500 -0.000000      8.000000
 -0.125000  0.062500 -0.000000      8.000000
  0.187500  0.062500 -0.000000      8.000000
 -0.250000  0.062500  0.000000      8.000000
  0.312500  0.062500  0.000000      8.000000
 -0.375000  0.062500  0.000000      8.000000
  0.437500  0.062500 -0.000000      8.000000
  0.500000  0.062500 -0.000000      8.000000
 -0.437500  0.062500  0.000000      8.000000
  0.375000  0.062500 -0.000000      8.000000
 -0.312500  0.062500  0.000000      8.000000
  0.250000  0.062500 -0.000000      8.000000
 -0.187500  0.062500  0.000000      8.000000
  0.125000  0.062500 -0.000000      8.000000
 -0.062500  0.062500 -0.000000      8.000000
  0.000000  0.062500 -0.000000      8.000000
  0.062500  0.187500 -0.000000      8.000000
 -0.250000  0.187500 -0.000000      8.000000
  0.187500  0.187500 -0.000000      8.000000
 -0.375000  0.187500  0.000000      8.000000
  0.312500  0.187500 -0.000000      8.000000
  0.500000  0.187500 -0.000000      8.000000
  0.437500  0.187500 -0.000000      8.000000
  0.375000  0.187500 -0.000000      8.000000
 -0.437500  0.187500 -0.000000      8.000000
  0.250000  0.187500 -0.000000      8.000000
 -0.312500  0.187500 -0.000000      8.000000
  0.125000  0.187500 -0.000000      8.000000
 -0.187500  0.187500 -0.000000      8.000000
 -0.000000  0.187500 -0.000000      8.000000
 -0.062500  0.187500 -0.000000      8.000000
 -0.125000  0.187500 -0.000000      8.000000
  0.062500  0.312500 -0.000000      8.000000
 -0.375000  0.312500 -0.000000      8.000000
  0.187500  0.312500 -0.000000      8.000000
  0.500000  0.312500 -0.000000      8.000000
  0.312500  0.312500 -0.000000      8.000000
  0.375000  0.312500 -0.000000      8.000000
  0.437500  0.312500 -0.000000      8.000000
  0.250000  0.312500 -0.000000      8.000000
 -0.437500  0.312500 -0.000000      8.000000
  0.125000  0.312500 -0.000000      8.000000
 -0.312500  0.312500 -0.000000      8.000000
  0.000000  0.312500 -0.000000      8.000000
 -0.187500  0.312500 -0.000000      8.000000
 -0.125000  0.312500  0.000000      8.000000
 -0.062500  0.312500 -0.000000      8.000000
 -0.250000  0.312500 -0.000000      8.000000
  0.062500  0.437500 -0.000000      8.000000
  0.500000  0.437500 -0.000000      8.000000
  0.187500  0.437500 -0.000000      8.000000
  0.375000  0.437500 -0.000000      8.000000
  0.312500  0.437500 -0.000000      8.000000
  0.250000  0.437500 -0.000000      8.000000
  0.437500  0.437500 -0.000000      8.000000
  0.125000  0.437500 -0.000000      8.000000
 -0.437500  0.437500 -0.000000      8.000000
  0.000000  0.437500 -0.000000      8.000000
 -0.312500  0.437500 -0.000000      8.000000
 -0.125000  0.437500 -0.000000      8.000000
 -0.187500  0.437500 -0.000000      8.000000
 -0.250000  0.437500 -0.000000      8.000000
 -0.062500  0.437500 -0.000000      8.000000
 -0.375000  0.437500 -0.000000      8.000000
 
 Following cartesian coordinates:
            Coordinates               Weight
  0.036274  0.020943 -0.000000      8.000000
 -0.036274  0.020943 -0.000000      8.000000
  0.084640  0.020943 -0.000000      8.000000
 -0.084640  0.020943  0.000000      8.000000
  0.133005  0.020943 -0.000000      8.000000
 -0.133005  0.020943  0.000000      8.000000
  0.181371  0.020943 -0.000000      8.000000
  0.205553  0.020943 -0.000000      8.000000
 -0.157188  0.020943  0.000000      8.000000
  0.157188  0.020943 -0.000000      8.000000
 -0.108822  0.020943  0.000000      8.000000
  0.108822  0.020943 -0.000000      8.000000
 -0.060457  0.020943  0.000000      8.000000
  0.060457  0.020943 -0.000000      8.000000
 -0.012091  0.020943 -0.000000      8.000000
  0.012091  0.020943 -0.000000      8.000000
  0.060457  0.062829 -0.000000      8.000000
 -0.060457  0.062829 -0.000000      8.000000
  0.108822  0.062829 -0.000000      8.000000
 -0.108822  0.062829 -0.000000      8.000000
  0.157188  0.062829 -0.000000      8.000000
  0.229736  0.062829 -0.000000      8.000000
  0.205553  0.062829 -0.000000      8.000000
  0.181371  0.062829 -0.000000      8.000000
 -0.133005  0.062829  0.000000      8.000000
  0.133005  0.062829 -0.000000      8.000000
 -0.084640  0.062829 -0.000000      8.000000
  0.084640  0.062829 -0.000000      8.000000
 -0.036274  0.062829 -0.000000      8.000000
  0.036274  0.062829 -0.000000      8.000000
  0.012091  0.062829 -0.000000      8.000000
 -0.012091  0.062829 -0.000000      8.000000
  0.084640  0.104715 -0.000000      8.000000
 -0.084640  0.104715 -0.000000      8.000000
  0.133005  0.104715 -0.000000      8.000000
  0.253919  0.104715 -0.000000      8.000000
  0.181371  0.104715 -0.000000      8.000000
  0.205553  0.104715 -0.000000      8.000000
  0.229736  0.104715 -0.000000      8.000000
  0.157188  0.104715 -0.000000      8.000000
 -0.108822  0.104715 -0.000000      8.000000
  0.108822  0.104715 -0.000000      8.000000
 -0.060457  0.104715 -0.000000      8.000000
  0.060457  0.104715 -0.000000      8.000000
 -0.012091  0.104715 -0.000000      8.000000
  0.012091  0.104715 -0.000000      8.000000
  0.036274  0.104715 -0.000000      8.000000
 -0.036274  0.104715 -0.000000      8.000000
  0.108822  0.146601 -0.000000      8.000000
  0.278102  0.146601 -0.000000      8.000000
  0.157188  0.146601 -0.000000      8.000000
  0.229736  0.146601 -0.000000      8.000000
  0.205553  0.146601 -0.000000      8.000000
  0.181371  0.146601 -0.000000      8.000000
  0.253919  0.146601 -0.000000      8.000000
  0.133005  0.146601 -0.000000      8.000000
 -0.084640  0.146601 -0.000000      8.000000
  0.084640  0.146601 -0.000000      8.000000
 -0.036274  0.146601 -0.000000      8.000000
  0.036274  0.146601 -0.000000      8.000000
  0.012091  0.146601 -0.000000      8.000000
 -0.012091  0.146601 -0.000000      8.000000
  0.060457  0.146601 -0.000000      8.000000
 -0.060457  0.146601 -0.000000      8.000000
 


--------------------------------------------------------------------------------------------------------




 Dimension of arrays:
   k-points           NKPTS =     64   k-points in BZ     NKDIM =     64   number of bands    NBANDS=     50
   number of dos      NEDOS =    301   number of ions     NIONS =     19
   non local maximal  LDIM  =      5   non local SUM 2l+1 LMDIM =     13
   total plane-waves  NPLWV = 362880
   max r-space proj   IRMAX =      1   max aug-charges    IRDMAX= 200632
   dimension x,y,z NGX =    24 NGY =   24 NGZ =  630
   dimension x,y,z NGXF=    48 NGYF=   48 NGZF= 1260
   support grid    NGXF=    96 NGYF=   96 NGZF= 2520
   ions per type =               9  10
   NGX,Y,Z   is equivalent  to a cutoff of  13.37, 13.37, 13.13 a.u.
   NGXF,Y,Z  is equivalent  to a cutoff of  26.74, 26.74, 26.26 a.u.

 Based on PREC, I would recommend the following setting:
   dimension x,y,z NGX =    24 NGY =   24 NGZ =  560

 SYSTEM =  unknown system                          
 POSCAR =  Layer (20)                              

 Startparameter for this run:
   NWRITE =      2    write-flag & timer
   PREC   = accura    normal or accurate (medium, high low for compatibility)
   ISTART =      0    job   : 0-new  1-cont  2-samecut
   ICHARG =      2    charge: 1-file 2-atom 10-const
   ISPIN  =      1    spin polarized calculation?
   LNONCOLLINEAR =      F non collinear calculations
   LSORBIT =      F    spin-orbit coupling
   INIWAV =      1    electr: 0-lowe 1-rand  2-diag
   LASPH  =      F    aspherical Exc in radial PAW
   METAGGA=      F    non-selfconsistent MetaGGA calc.

 Electronic Relaxation 1
   ENCUT  =  450.0 eV  33.07 Ry    5.75 a.u.   5.16  5.16137.96*2*pi/ulx,y,z
   ENINI  =  450.0     initial cutoff
   ENAUG  =  605.4 eV  augmentation charge cutoff
   NELM   =    100;   NELMIN=  6; NELMDL=  0     # of ELM steps 
   EDIFF  = 0.1E-05   stopping-criterion for ELM
   LREAL  =      F    real-space projection
   NLSPLINE    = F    spline interpolate recip. space projectors
   LCOMPAT=      F    compatible to vasp.4.4
   GGA_COMPAT  = T    GGA compatible to vasp.4.4-vasp.4.6
   LMAXPAW     = -100 max onsite density
   LMAXMIX     =    2 max onsite mixed and CHGCAR
   VOSKOWN=      0    Vosko Wilk Nusair interpolation
   ROPT   =    0.00000   0.00000
 Ionic relaxation
   EDIFFG = -.2E-01   stopping-criterion for IOM
   NSW    =      0    number of steps for IOM
   NBLOCK =      1;   KBLOCK =      1    inner block; outer block 
   IBRION =     -1    ionic relax: 0-MD 1-quasi-New 2-CG
   NFREE  =      1    steps in history (QN), initial steepest desc. (CG)
   ISIF   =      4    stress and relaxation
   IWAVPR =     10    prediction:  0-non 1-charg 2-wave 3-comb
   ISYM   =      2    0-nonsym 1-usesym 2-fastsym
   LCORR  =      T    Harris-Foulkes like correction to forces

   POTIM  = 0.5000    time-step for ionic-motion
   TEIN   =    0.0    initial temperature
   TEBEG  =    0.0;   TEEND  =   0.0 temperature during run
   SMASS  =  -3.00    Nose mass-parameter (am)
   estimated Nose-frequenzy (Omega)   =  0.10E-29 period in steps =****** mass=  -0.204E-27a.u.
   SCALEE = 1.0000    scale energy and forces
   NPACO  =    256;   APACO  = 16.0  distance and # of slots for P.C.
   PSTRESS=    0.0 pullay stress

  Mass of Ions in am
   POMASS =  16.00 24.30
  Ionic Valenz
   ZVAL   =   6.00  2.00
  Atomic Wigner-Seitz radii
   RWIGS  =  -1.00 -1.00
  virtual crystal weights 
   VCA    =   1.00  1.00
   NELECT =      74.0000    total number of electrons
   NUPDOWN=      -1.0000    fix difference up-down

 DOS related values:
   EMIN   =  10.00;   EMAX   =-10.00  energy-range for DOS
   EFERMI =   0.00
   ISMEAR =     0;   SIGMA  =   0.05  broadening in eV -4-tet -1-fermi 0-gaus

 Electronic relaxation 2 (details)
   IALGO  =     38    algorithm
   LDIAG  =      T    sub-space diagonalisation (order eigenvalues)
   LSUBROT=      F    optimize rotation matrix (better conditioning)
   TURBO    =      0    0=normal 1=particle mesh
   IRESTART =      0    0=no restart 2=restart with 2 vectors
   NREBOOT  =      0    no. of reboots
   NMIN     =      0    reboot dimension
   EREF     =   0.00    reference energy to select bands
   IMIX   =      4    mixing-type and parameters
     AMIX     =   0.40;   BMIX     =  1.00
     AMIX_MAG =   1.60;   BMIX_MAG =  1.00
     AMIN     =   0.01
     WC   =   100.;   INIMIX=   1;  MIXPRE=   1;  MAXMIX= -45

 Intra band minimization:
   WEIMIN = 0.0000     energy-eigenvalue tresh-hold
   EBREAK =  0.50E-08  absolut break condition
   DEPER  =   0.30     relativ break condition  

   TIME   =   0.40     timestep for ELM

  volume/ion in A,a.u.               =      32.38       218.50
  Fermi-wavevector in a.u.,A,eV,Ry     =   0.808127  1.527139  8.885555  0.653070
  Thomas-Fermi vector in A             =   1.916875
 
 Write flags
   LWAVE        =      F    write WAVECAR
   LDOWNSAMPLE  =      F    k-point downsampling of WAVECAR
   LCHARG       =      T    write CHGCAR
   LVTOT        =      F    write LOCPOT, total local potential
   LVHAR        =      F    write LOCPOT, Hartree potential only
   LELF         =      F    write electronic localiz. function (ELF)
   LORBIT       =      0    0 simple, 1 ext, 2 COOP (PROOUT), +10 PAW based schemes


 Dipole corrections
   LMONO  =      F    monopole corrections only (constant potential shift)
   LDIPOL =      F    correct potential (dipole corrections)
   IDIPOL =      0    1-x, 2-y, 3-z, 4-all directions 
   EPSILON=  1.0000000 bulk dielectric constant

 Exchange correlation treatment:
   GGA     =    --    GGA type
   LEXCH   =     8    internal setting for exchange type
   VOSKOWN=      0    Vosko Wilk Nusair interpolation
   LHFCALC =     F    Hartree Fock is set to
   LHFONE  =     F    Hartree Fock one center treatment
   AEXX    =    0.0000 exact exchange contribution

 Linear response parameters
   LEPSILON=     F    determine dielectric tensor
   LRPA    =     F    only Hartree local field effects (RPA)
   LNABLA  =     F    use nabla operator in PAW spheres
   LVEL    =     F    velocity operator in full k-point grid
   LINTERFAST=   F  fast interpolation
   KINTER  =     0    interpolate to denser k-point grid
   CSHIFT  =0.1000    complex shift for real part using Kramers Kronig
   OMEGAMAX=  -1.0    maximum frequency
   DEG_THRESHOLD= 0.2000000E-02 threshold for treating states as degnerate
   RTIME   =   -0.100 relaxation time in fs
  (WPLASMAI=    0.000 imaginary part of plasma frequency in eV, 0.658/RTIME)
   DFIELD  = 0.0000000 0.0000000 0.0000000 field for delta impulse in time
 
 Orbital magnetization related:
   ORBITALMAG=     F  switch on orbital magnetization
   LCHIMAG   =     F  perturbation theory with respect to B field
   DQ        =  0.001000  dq finite difference perturbation B field
   LLRAUG    =     F  two centre corrections for induced B field



--------------------------------------------------------------------------------------------------------


 Static calculation
 charge density and potential will be updated during run
 non-spin polarized calculation
 Variant of blocked Davidson
 Davidson routine will perform the subspace rotation
 perform sub-space diagonalisation
    after iterative eigenvector-optimisation
 modified Broyden-mixing scheme, WC =      100.0
 initial mixing is a Kerker type mixing with AMIX =  0.4000 and BMIX =      1.0000
 Hartree-type preconditioning will be used
 using additional bands           13
 reciprocal scheme for non local part
 use partial core corrections
 calculate Harris-corrections to forces 
   (improved forces if not selfconsistent)
 use gradient corrections 
 use of overlap-Matrix (Vanderbilt PP)
 Gauss-broadening in eV      SIGMA  =   0.05


--------------------------------------------------------------------------------------------------------


  energy-cutoff  :      450.00
  volume of cell :      615.20
      direct lattice vectors                 reciprocal lattice vectors
     2.584487934 -1.492143373  0.000000000     0.386923842  0.000000000 -0.000000000
     0.000000000  2.984286746  0.000000000     0.193461921  0.335088443 -0.000000000
     0.000000000  0.000000000 79.763031829    -0.000000000 -0.000000000  0.012537136

  length of vectors
     2.984303893  2.984286746 79.763031829     0.386923842  0.386926065  0.012537136


 
 k-points in units of 2pi/SCALE and weight: K-Spacing Value to Generate K-Mesh: 0.02
   0.03627411  0.02094303 -0.00000000       0.016
  -0.03627411  0.02094303 -0.00000000       0.016
   0.08463959  0.02094303 -0.00000000       0.016
  -0.08463959  0.02094303  0.00000000       0.016
   0.13300507  0.02094303 -0.00000000       0.016
  -0.13300507  0.02094303  0.00000000       0.016
   0.18137055  0.02094303 -0.00000000       0.016
   0.20555329  0.02094303 -0.00000000       0.016
  -0.15718781  0.02094303  0.00000000       0.016
   0.15718781  0.02094303 -0.00000000       0.016
  -0.10882233  0.02094303  0.00000000       0.016
   0.10882233  0.02094303 -0.00000000       0.016
  -0.06045685  0.02094303  0.00000000       0.016
   0.06045685  0.02094303 -0.00000000       0.016
  -0.01209137  0.02094303 -0.00000000       0.016
   0.01209137  0.02094303 -0.00000000       0.016
   0.06045685  0.06282908 -0.00000000       0.016
  -0.06045685  0.06282908 -0.00000000       0.016
   0.10882233  0.06282908 -0.00000000       0.016
  -0.10882233  0.06282908 -0.00000000       0.016
   0.15718781  0.06282908 -0.00000000       0.016
   0.22973603  0.06282908 -0.00000000       0.016
   0.20555329  0.06282908 -0.00000000       0.016
   0.18137055  0.06282908 -0.00000000       0.016
  -0.13300507  0.06282908  0.00000000       0.016
   0.13300507  0.06282908 -0.00000000       0.016
  -0.08463959  0.06282908 -0.00000000       0.016
   0.08463959  0.06282908 -0.00000000       0.016
  -0.03627411  0.06282908 -0.00000000       0.016
   0.03627411  0.06282908 -0.00000000       0.016
   0.01209137  0.06282908 -0.00000000       0.016
  -0.01209137  0.06282908 -0.00000000       0.016
   0.08463959  0.10471514 -0.00000000       0.016
  -0.08463959  0.10471514 -0.00000000       0.016
   0.13300507  0.10471514 -0.00000000       0.016
   0.25391877  0.10471514 -0.00000000       0.016
   0.18137055  0.10471514 -0.00000000       0.016
   0.20555329  0.10471514 -0.00000000       0.016
   0.22973603  0.10471514 -0.00000000       0.016
   0.15718781  0.10471514 -0.00000000       0.016
  -0.10882233  0.10471514 -0.00000000       0.016
   0.10882233  0.10471514 -0.00000000       0.016
  -0.06045685  0.10471514 -0.00000000       0.016
   0.06045685  0.10471514 -0.00000000       0.016
  -0.01209137  0.10471514 -0.00000000       0.016
   0.01209137  0.10471514 -0.00000000       0.016
   0.03627411  0.10471514 -0.00000000       0.016
  -0.03627411  0.10471514 -0.00000000       0.016
   0.10882233  0.14660119 -0.00000000       0.016
   0.27810151  0.14660119 -0.00000000       0.016
   0.15718781  0.14660119 -0.00000000       0.016
   0.22973603  0.14660119 -0.00000000       0.016
   0.20555329  0.14660119 -0.00000000       0.016
   0.18137055  0.14660119 -0.00000000       0.016
   0.25391877  0.14660119 -0.00000000       0.016
   0.13300507  0.14660119 -0.00000000       0.016
  -0.08463959  0.14660119 -0.00000000       0.016
   0.08463959  0.14660119 -0.00000000       0.016
  -0.03627411  0.14660119 -0.00000000       0.016
   0.03627411  0.14660119 -0.00000000       0.016
   0.01209137  0.14660119 -0.00000000       0.016
  -0.01209137  0.14660119 -0.00000000       0.016
   0.06045685  0.14660119 -0.00000000       0.016
  -0.06045685  0.14660119 -0.00000000       0.016
 
 k-points in reciprocal lattice and weights: K-Spacing Value to Generate K-Mesh: 0.02
   0.06250000  0.06250000 -0.00000000       0.016
  -0.12500000  0.06250000 -0.00000000       0.016
   0.18750000  0.06250000 -0.00000000       0.016
  -0.25000000  0.06250000  0.00000000       0.016
   0.31250000  0.06250000  0.00000000       0.016
  -0.37500000  0.06250000  0.00000000       0.016
   0.43750000  0.06250000 -0.00000000       0.016
   0.50000000  0.06250000 -0.00000000       0.016
  -0.43750000  0.06250000  0.00000000       0.016
   0.37500000  0.06250000 -0.00000000       0.016
  -0.31250000  0.06250000  0.00000000       0.016
   0.25000000  0.06250000 -0.00000000       0.016
  -0.18750000  0.06250000  0.00000000       0.016
   0.12500000  0.06250000 -0.00000000       0.016
  -0.06250000  0.06250000 -0.00000000       0.016
   0.00000000  0.06250000 -0.00000000       0.016
   0.06250000  0.18750000 -0.00000000       0.016
  -0.25000000  0.18750000 -0.00000000       0.016
   0.18750000  0.18750000 -0.00000000       0.016
  -0.37500000  0.18750000  0.00000000       0.016
   0.31250000  0.18750000 -0.00000000       0.016
   0.50000000  0.18750000 -0.00000000       0.016
   0.43750000  0.18750000 -0.00000000       0.016
   0.37500000  0.18750000 -0.00000000       0.016
  -0.43750000  0.18750000 -0.00000000       0.016
   0.25000000  0.18750000 -0.00000000       0.016
  -0.31250000  0.18750000 -0.00000000       0.016
   0.12500000  0.18750000 -0.00000000       0.016
  -0.18750000  0.18750000 -0.00000000       0.016
  -0.00000000  0.18750000 -0.00000000       0.016
  -0.06250000  0.18750000 -0.00000000       0.016
  -0.12500000  0.18750000 -0.00000000       0.016
   0.06250000  0.31250000 -0.00000000       0.016
  -0.37500000  0.31250000 -0.00000000       0.016
   0.18750000  0.31250000 -0.00000000       0.016
   0.50000000  0.31250000 -0.00000000       0.016
   0.31250000  0.31250000 -0.00000000       0.016
   0.37500000  0.31250000 -0.00000000       0.016
   0.43750000  0.31250000 -0.00000000       0.016
   0.25000000  0.31250000 -0.00000000       0.016
  -0.43750000  0.31250000 -0.00000000       0.016
   0.12500000  0.31250000 -0.00000000       0.016
  -0.31250000  0.31250000 -0.00000000       0.016
   0.00000000  0.31250000 -0.00000000       0.016
  -0.18750000  0.31250000 -0.00000000       0.016
  -0.12500000  0.31250000  0.00000000       0.016
  -0.06250000  0.31250000 -0.00000000       0.016
  -0.25000000  0.31250000 -0.00000000       0.016
   0.06250000  0.43750000 -0.00000000       0.016
   0.50000000  0.43750000 -0.00000000       0.016
   0.18750000  0.43750000 -0.00000000       0.016
   0.37500000  0.43750000 -0.00000000       0.016
   0.31250000  0.43750000 -0.00000000       0.016
   0.25000000  0.43750000 -0.00000000       0.016
   0.43750000  0.43750000 -0.00000000       0.016
   0.12500000  0.43750000 -0.00000000       0.016
  -0.43750000  0.43750000 -0.00000000       0.016
   0.00000000  0.43750000 -0.00000000       0.016
  -0.31250000  0.43750000 -0.00000000       0.016
  -0.12500000  0.43750000 -0.00000000       0.016
  -0.18750000  0.43750000 -0.00000000       0.016
  -0.25000000  0.43750000 -0.00000000       0.016
  -0.06250000  0.43750000 -0.00000000       0.016
  -0.37500000  0.43750000 -0.00000000       0.016
 
 position of ions in fractional coordinates (direct lattice) 
   0.00000000  0.00000000  0.49791631
   0.33333300  0.66666700  0.52868455
   0.00000000  0.00000000  0.59020438
   0.33333300  0.66666700  0.62099419
   0.00000000  0.00000000  0.68258092
   0.33333300  0.66666700  0.71334512
   0.66666700  0.33333300  0.46712749
   0.66666700  0.33333300  0.55943681
   0.66666700  0.33333300  0.65178232
   0.00000000  0.00000000  0.45156545
   0.00000000  0.00000000  0.54419676
   0.00000000  0.00000000  0.63653081
   0.00000000  0.00000000  0.72954982
   0.66666700  0.33333300  0.51344235
   0.66666700  0.33333300  0.60574048
   0.66666700  0.33333300  0.69812693
   0.33333300  0.66666700  0.48267303
   0.33333300  0.66666700  0.57495382
   0.33333300  0.66666700  0.66732605
 
 position of ions in cartesian coordinates  (Angst):
   0.00000000  0.00000000 39.71531424
   0.86149512  1.49214487 42.16948284
   0.00000000  0.00000000 47.07649104
   0.86149512  1.49214487 49.53237953
   0.00000000  0.00000000 54.44472358
   0.86149512  1.49214487 56.89856944
   1.72299282 -0.00000149 37.25950525
   1.72299282 -0.00000149 44.62237618
   1.72299282 -0.00000149 51.98813395
   0.00000000  0.00000000 36.01822904
   0.00000000  0.00000000 43.40678360
   0.00000000  0.00000000 50.77162759
   0.00000000  0.00000000 58.19110514
   1.72299282 -0.00000149 40.95371882
   1.72299282 -0.00000149 48.31569734
   1.72299282 -0.00000149 55.68472065
   0.86149512  1.49214487 38.49946416
   0.86149512  1.49214487 45.86006001
   0.86149512  1.49214487 53.22794866
 


--------------------------------------------------------------------------------------------------------


 k-point  1 :   0.0625 0.0625-0.0000  plane waves:   13179
 k-point  2 :  -0.1250 0.0625-0.0000  plane waves:   13179
 k-point  3 :   0.1875 0.0625-0.0000  plane waves:   13277
 k-point  4 :  -0.2500 0.0625 0.0000  plane waves:   13277
 k-point  5 :   0.3125 0.0625 0.0000  plane waves:   13398
 k-point  6 :  -0.3750 0.0625 0.0000  plane waves:   13398
 k-point  7 :   0.4375 0.0625-0.0000  plane waves:   13375
 k-point  8 :   0.5000 0.0625-0.0000  plane waves:   13375
 k-point  9 :  -0.4375 0.0625 0.0000  plane waves:   13399
 k-point 10 :   0.3750 0.0625-0.0000  plane waves:   13399
 k-point 11 :  -0.3125 0.0625 0.0000  plane waves:   13368
 k-point 12 :   0.2500 0.0625-0.0000  plane waves:   13368
 k-point 13 :  -0.1875 0.0625 0.0000  plane waves:   13229
 k-point 14 :   0.1250 0.0625-0.0000  plane waves:   13229
 k-point 15 :  -0.0625 0.0625-0.0000  plane waves:   13249
 k-point 16 :   0.0000 0.0625-0.0000  plane waves:   13249
 k-point 17 :   0.0625 0.1875-0.0000  plane waves:   13277
 k-point 18 :  -0.2500 0.1875-0.0000  plane waves:   13277
 k-point 19 :   0.1875 0.1875-0.0000  plane waves:   13331
 k-point 20 :  -0.3750 0.1875 0.0000  plane waves:   13331
 k-point 21 :   0.3125 0.1875-0.0000  plane waves:   13358
 k-point 22 :   0.5000 0.1875-0.0000  plane waves:   13358
 k-point 23 :   0.4375 0.1875-0.0000  plane waves:   13339
 k-point 24 :   0.3750 0.1875-0.0000  plane waves:   13339
 k-point 25 :  -0.4375 0.1875-0.0000  plane waves:   13341
 k-point 26 :   0.2500 0.1875-0.0000  plane waves:   13341
 k-point 27 :  -0.3125 0.1875-0.0000  plane waves:   13304
 k-point 28 :   0.1250 0.1875-0.0000  plane waves:   13304
 k-point 29 :  -0.1875 0.1875-0.0000  plane waves:   13249
 k-point 30 :  -0.0000 0.1875-0.0000  plane waves:   13249
 k-point 31 :  -0.0625 0.1875-0.0000  plane waves:   13227
 k-point 32 :  -0.1250 0.1875-0.0000  plane waves:   13227
 k-point 33 :   0.0625 0.3125-0.0000  plane waves:   13398
 k-point 34 :  -0.3750 0.3125-0.0000  plane waves:   13398
 k-point 35 :   0.1875 0.3125-0.0000  plane waves:   13360
 k-point 36 :   0.5000 0.3125-0.0000  plane waves:   13360
 k-point 37 :   0.3125 0.3125-0.0000  plane waves:   13271
 k-point 38 :   0.3750 0.3125-0.0000  plane waves:   13271
 k-point 39 :   0.4375 0.3125-0.0000  plane waves:   13329
 k-point 40 :   0.2500 0.3125-0.0000  plane waves:   13329
 k-point 41 :  -0.4375 0.3125-0.0000  plane waves:   13401
 k-point 42 :   0.1250 0.3125-0.0000  plane waves:   13401
 k-point 43 :  -0.3125 0.3125-0.0000  plane waves:   13377
 k-point 44 :   0.0000 0.3125-0.0000  plane waves:   13377
 k-point 45 :  -0.1875 0.3125-0.0000  plane waves:   13304
 k-point 46 :  -0.1250 0.3125 0.0000  plane waves:   13304
 k-point 47 :  -0.0625 0.3125-0.0000  plane waves:   13368
 k-point 48 :  -0.2500 0.3125-0.0000  plane waves:   13368
 k-point 49 :   0.0625 0.4375-0.0000  plane waves:   13375
 k-point 50 :   0.5000 0.4375-0.0000  plane waves:   13375
 k-point 51 :   0.1875 0.4375-0.0000  plane waves:   13339
 k-point 52 :   0.3750 0.4375-0.0000  plane waves:   13339
 k-point 53 :   0.3125 0.4375-0.0000  plane waves:   13329
 k-point 54 :   0.2500 0.4375-0.0000  plane waves:   13329
 k-point 55 :   0.4375 0.4375-0.0000  plane waves:   13366
 k-point 56 :   0.1250 0.4375-0.0000  plane waves:   13366
 k-point 57 :  -0.4375 0.4375-0.0000  plane waves:   13421
 k-point 58 :   0.0000 0.4375-0.0000  plane waves:   13421
 k-point 59 :  -0.3125 0.4375-0.0000  plane waves:   13401
 k-point 60 :  -0.1250 0.4375-0.0000  plane waves:   13401
 k-point 61 :  -0.1875 0.4375-0.0000  plane waves:   13341
 k-point 62 :  -0.2500 0.4375-0.0000  plane waves:   13341
 k-point 63 :  -0.0625 0.4375-0.0000  plane waves:   13399
 k-point 64 :  -0.3750 0.4375-0.0000  plane waves:   13399

 maximum and minimum number of plane-waves per node :      3367     3276

 maximum number of plane-waves:     13421
 maximum index in each direction: 
   IXMAX=    5   IYMAX=    5   IZMAX=  137
   IXMIN=   -5   IYMIN=   -5   IZMIN= -137


 parallel 3D FFT for wavefunctions:
    minimum data exchange during FFTs selected (reduces bandwidth)
 parallel 3D FFT for charge:
    minimum data exchange during FFTs selected (reduces bandwidth)


 total amount of memory used by VASP MPI-rank0   149465. kBytes
=======================================================================

   base      :      30000. kBytes
   nonl-proj :      45749. kBytes
   fftplans  :      24904. kBytes
   grid      :      13803. kBytes
   one-center:         40. kBytes
   wavefun   :      34969. kBytes
 
     INWAV:  cpu time    0.0000: real time    0.0000
 Broyden mixing: mesh for mixing (old mesh)
   NGX = 11   NGY = 11   NGZ =275
  (NGX  = 48   NGY  = 48   NGZ  =***)
  gives a total of  33275 points

 initial charge density was supplied:
 charge density of overlapping atoms calculated
 number of electron      74.0000000 magnetization 
 keeping initial charge density in first step


--------------------------------------------------------------------------------------------------------


 Maximum index for augmentation-charges        10340 (set IRDMAX)


--------------------------------------------------------------------------------------------------------


 First call to EWALD:  gamma=   0.208
 Maximum number of real-space cells 8x 8x 1
 Maximum number of reciprocal cells 1x 1x22

    FEWALD:  cpu time    0.0014: real time    0.0014


--------------------------------------- Iteration      1(   1)  ---------------------------------------


    POTLOK:  cpu time    0.0859: real time    0.0866
    SETDIJ:  cpu time    0.1030: real time    0.1033
     EDDAV:  cpu time   10.2851: real time   10.2952
       DOS:  cpu time    0.0016: real time    0.0020
    --------------------------------------------
      LOOP:  cpu time   10.4757: real time   10.4870

 eigenvalue-minimisations  :  7040
 total energy-change (2. order) : 0.6525291E+03  (-0.2771136E+04)
 number of electron      74.0000000 magnetization 
 augmentation part       74.0000000 magnetization 

 Free energy of the ion-electron system (eV)
  ---------------------------------------------------
  alpha Z        PSCENC =        52.13918862
  Ewald energy   TEWEN  =    215565.14860893
  -Hartree energ DENC   =   -219105.34175768
  -exchange      EXHF   =         0.00000000
  -V(xc)+E(xc)   XCENC  =      -233.65171762
  PAW double counting   =      3772.01224470    -3269.57291537
  entropy T*S    EENTRO =        -0.00679282
  eigenvalues    EBANDS =      -249.62474931
  atomic energy  EATOM  =      4121.42696706
  Solvation  Ediel_sol  =         0.00000000
  ---------------------------------------------------
  free energy    TOTEN  =       652.52907652 eV

  energy without entropy =      652.53586934  energy(sigma->0) =      652.53247293


--------------------------------------------------------------------------------------------------------




--------------------------------------- Iteration      1(   2)  ---------------------------------------


     EDDAV:  cpu time   12.3205: real time   12.3316
       DOS:  cpu time    0.0015: real time    0.0015
    --------------------------------------------
      LOOP:  cpu time   12.3220: real time   12.3330

 eigenvalue-minimisations  :  9020
 total energy-change (2. order) :-0.6513716E+03  (-0.6257734E+03)
 number of electron      74.0000000 magnetization 
 augmentation part       74.0000000 magnetization 

 Free energy of the ion-electron system (eV)
  ---------------------------------------------------
  alpha Z        PSCENC =        52.13918862
  Ewald energy   TEWEN  =    215565.14860893
  -Hartree energ DENC   =   -219105.34175768
  -exchange      EXHF   =         0.00000000
  -V(xc)+E(xc)   XCENC  =      -233.65171762
  PAW double counting   =      3772.01224470    -3269.57291537
  entropy T*S    EENTRO =        -0.00099273
  eigenvalues    EBANDS =      -901.00210278
  atomic energy  EATOM  =      4121.42696706
  Solvation  Ediel_sol  =         0.00000000
  ---------------------------------------------------
  free energy    TOTEN  =         1.15752313 eV

  energy without entropy =        1.15851587  energy(sigma->0) =        1.15801950


--------------------------------------------------------------------------------------------------------




--------------------------------------- Iteration      1(   3)  ---------------------------------------


     EDDAV:  cpu time   10.8401: real time   10.8499
       DOS:  cpu time    0.0016: real time    0.0019
    --------------------------------------------
      LOOP:  cpu time   10.8416: real time   10.8517

 eigenvalue-minimisations  :  7600
 total energy-change (2. order) :-0.1199801E+03  (-0.1192046E+03)
 number of electron      74.0000000 magnetization 
 augmentation part       74.0000000 magnetization 

 Free energy of the ion-electron system (eV)
  ---------------------------------------------------
  alpha Z        PSCENC =        52.13918862
  Ewald energy   TEWEN  =    215565.14860893
  -Hartree energ DENC   =   -219105.34175768
  -exchange      EXHF   =         0.00000000
  -V(xc)+E(xc)   XCENC  =      -233.65171762
  PAW double counting   =      3772.01224470    -3269.57291537
  entropy T*S    EENTRO =        -0.00224804
  eigenvalues    EBANDS =     -1020.98094728
  atomic energy  EATOM  =      4121.42696706
  Solvation  Ediel_sol  =         0.00000000
  ---------------------------------------------------
  free energy    TOTEN  =      -118.82257667 eV

  energy without entropy =     -118.82032863  energy(sigma->0) =     -118.82145265


--------------------------------------------------------------------------------------------------------




--------------------------------------- Iteration      1(   4)  ---------------------------------------


     EDDAV:  cpu time   11.7077: real time   11.7185
       DOS:  cpu time    0.0016: real time    0.0020
    --------------------------------------------
      LOOP:  cpu time   11.7094: real time   11.7205

 eigenvalue-minimisations  :  8360
 total energy-change (2. order) :-0.3095744E+01  (-0.3087658E+01)
 number of electron      74.0000000 magnetization 
 augmentation part       74.0000000 magnetization 

 Free energy of the ion-electron system (eV)
  ---------------------------------------------------
  alpha Z        PSCENC =        52.13918862
  Ewald energy   TEWEN  =    215565.14860893
  -Hartree energ DENC   =   -219105.34175768
  -exchange      EXHF   =         0.00000000
  -V(xc)+E(xc)   XCENC  =      -233.65171762
  PAW double counting   =      3772.01224470    -3269.57291537
  entropy T*S    EENTRO =        -0.00216537
  eigenvalues    EBANDS =     -1024.07677384
  atomic energy  EATOM  =      4121.42696706
  Solvation  Ediel_sol  =         0.00000000
  ---------------------------------------------------
  free energy    TOTEN  =      -121.91832057 eV

  energy without entropy =     -121.91615519  energy(sigma->0) =     -121.91723788


--------------------------------------------------------------------------------------------------------




--------------------------------------- Iteration      1(   5)  ---------------------------------------


     EDDAV:  cpu time   11.6876: real time   11.6973
       DOS:  cpu time    0.0017: real time    0.0017
    CHARGE:  cpu time    0.5685: real time    0.5689
    MIXING:  cpu time    0.0037: real time    0.0038
    --------------------------------------------
      LOOP:  cpu time   12.2615: real time   12.2716

 eigenvalue-minimisations  :  8260
 total energy-change (2. order) :-0.4737172E-01  (-0.4735202E-01)
 number of electron      73.9999999 magnetization 
 augmentation part        7.2177684 magnetization 

 Broyden mixing:
  rms(total) = 0.21993E+01    rms(broyden)= 0.21987E+01
  rms(prec ) = 0.22151E+01
  weight for this iteration     100.00

 Free energy of the ion-electron system (eV)
  ---------------------------------------------------
  alpha Z        PSCENC =        52.13918862
  Ewald energy   TEWEN  =    215565.14860893
  -Hartree energ DENC   =   -219105.34175768
  -exchange      EXHF   =         0.00000000
  -V(xc)+E(xc)   XCENC  =      -233.65171762
  PAW double counting   =      3772.01224470    -3269.57291537
  entropy T*S    EENTRO =        -0.00213214
  eigenvalues    EBANDS =     -1024.12417879
  atomic energy  EATOM  =      4121.42696706
  Solvation  Ediel_sol  =         0.00000000
  ---------------------------------------------------
  free energy    TOTEN  =      -121.96569229 eV

  energy without entropy =     -121.96356015  energy(sigma->0) =     -121.96462622


--------------------------------------------------------------------------------------------------------




--------------------------------------- Iteration      1(   6)  ---------------------------------------


    POTLOK:  cpu time    0.0824: real time    0.0826
    SETDIJ:  cpu time    0.1018: real time    0.1024
     EDDAV:  cpu time   11.0411: real time   11.0505
       DOS:  cpu time    0.0016: real time    0.0016
    CHARGE:  cpu time    0.5840: real time    0.5844
    MIXING:  cpu time    0.0027: real time    0.0027
    --------------------------------------------
      LOOP:  cpu time   11.8136: real time   11.8242

 eigenvalue-minimisations  :  7670
 total energy-change (2. order) : 0.1487535E+02  (-0.6943441E+01)
 number of electron      73.9999999 magnetization 
 augmentation part        5.9557788 magnetization 

 Broyden mixing:
  rms(total) = 0.68936E+00    rms(broyden)= 0.68831E+00
  rms(prec ) = 0.69112E+00
  weight for this iteration     100.00

 eigenvalues of (default mixing * dielectric matrix)
  average eigenvalue GAMMA=   0.8567
  0.8567

 Free energy of the ion-electron system (eV)
  ---------------------------------------------------
  alpha Z        PSCENC =        52.13918862
  Ewald energy   TEWEN  =    215565.14860893
  -Hartree energ DENC   =   -219294.69861752
  -exchange      EXHF   =         0.00000000
  -V(xc)+E(xc)   XCENC  =      -221.65686901
  PAW double counting   =      4440.98415463    -3941.62065610
  entropy T*S    EENTRO =        -0.00168405
  eigenvalues    EBANDS =      -828.81143139
  atomic energy  EATOM  =      4121.42696706
  Solvation  Ediel_sol  =         0.00000000
  ---------------------------------------------------
  free energy    TOTEN  =      -107.09033881 eV

  energy without entropy =     -107.08865477  energy(sigma->0) =     -107.08949679


--------------------------------------------------------------------------------------------------------




--------------------------------------- Iteration      1(   7)  ---------------------------------------


    POTLOK:  cpu time    0.0823: real time    0.0824
    SETDIJ:  cpu time    0.1011: real time    0.1012
     EDDAV:  cpu time   11.0483: real time   11.0575
       DOS:  cpu time    0.0016: real time    0.0019
    CHARGE:  cpu time    0.5725: real time    0.5729
    MIXING:  cpu time    0.0030: real time    0.0030
    --------------------------------------------
      LOOP:  cpu time   11.8089: real time   11.8189

 eigenvalue-minimisations  :  7610
 total energy-change (2. order) :-0.1218581E-01  (-0.2287289E+00)
 number of electron      73.9999999 magnetization 
 augmentation part        5.9523092 magnetization 

 Broyden mixing:
  rms(total) = 0.45457E+00    rms(broyden)= 0.45454E+00
  rms(prec ) = 0.45667E+00
  weight for this iteration     100.00

 eigenvalues of (default mixing * dielectric matrix)
  average eigenvalue GAMMA=   1.6819
  1.0127  2.3512

 Free energy of the ion-electron system (eV)
  ---------------------------------------------------
  alpha Z        PSCENC =        52.13918862
  Ewald energy   TEWEN  =    215565.14860893
  -Hartree energ DENC   =   -219299.54162956
  -exchange      EXHF   =         0.00000000
  -V(xc)+E(xc)   XCENC  =      -221.23001136
  PAW double counting   =      4644.62447911    -4144.94548403
  entropy T*S    EENTRO =        -0.00118393
  eigenvalues    EBANDS =      -824.72345947
  atomic energy  EATOM  =      4121.42696706
  Solvation  Ediel_sol  =         0.00000000
  ---------------------------------------------------
  free energy    TOTEN  =      -107.10252462 eV

  energy without entropy =     -107.10134069  energy(sigma->0) =     -107.10193266


--------------------------------------------------------------------------------------------------------




--------------------------------------- Iteration      1(   8)  ---------------------------------------


    POTLOK:  cpu time    0.0822: real time    0.0828
    SETDIJ:  cpu time    0.1017: real time    0.1020
     EDDAV:  cpu time   11.4920: real time   11.5020
       DOS:  cpu time    0.0015: real time    0.0015
    CHARGE:  cpu time    0.5739: real time    0.5743
    MIXING:  cpu time    0.0034: real time    0.0034
    --------------------------------------------
      LOOP:  cpu time   12.2548: real time   12.2660

 eigenvalue-minimisations  :  8070
 total energy-change (2. order) : 0.3524876E-01  (-0.1293583E+00)
 number of electron      73.9999999 magnetization 
 augmentation part        6.0174899 magnetization 

 Broyden mixing:
  rms(total) = 0.11398E+00    rms(broyden)= 0.11394E+00
  rms(prec ) = 0.14920E+00
  weight for this iteration     100.00

 eigenvalues of (default mixing * dielectric matrix)
  average eigenvalue GAMMA=   1.3604
  2.4897  0.9694  0.6222

 Free energy of the ion-electron system (eV)
  ---------------------------------------------------
  alpha Z        PSCENC =        52.13918862
  Ewald energy   TEWEN  =    215565.14860893
  -Hartree energ DENC   =   -219309.21620984
  -exchange      EXHF   =         0.00000000
  -V(xc)+E(xc)   XCENC  =      -220.35555219
  PAW double counting   =      4983.23399947    -4483.23768056
  entropy T*S    EENTRO =        -0.00097721
  eigenvalues    EBANDS =      -816.20562014
  atomic energy  EATOM  =      4121.42696706
  Solvation  Ediel_sol  =         0.00000000
  ---------------------------------------------------
  free energy    TOTEN  =      -107.06727586 eV

  energy without entropy =     -107.06629865  energy(sigma->0) =     -107.06678725


--------------------------------------------------------------------------------------------------------




--------------------------------------- Iteration      1(   9)  ---------------------------------------


    POTLOK:  cpu time    0.0814: real time    0.0820
    SETDIJ:  cpu time    0.1023: real time    0.1024
     EDDAV:  cpu time   11.6082: real time   11.6177
       DOS:  cpu time    0.0016: real time    0.0016
    CHARGE:  cpu time    0.5768: real time    0.5772
    MIXING:  cpu time    0.0048: real time    0.0048
    --------------------------------------------
      LOOP:  cpu time   12.3752: real time   12.3857

 eigenvalue-minimisations  :  8090
 total energy-change (2. order) : 0.7733830E-01  (-0.2371420E-01)
 number of electron      73.9999999 magnetization 
 augmentation part        6.0059469 magnetization 

 Broyden mixing:
  rms(total) = 0.65733E-01    rms(broyden)= 0.65723E-01
  rms(prec ) = 0.67467E-01
  weight for this iteration     100.00

 eigenvalues of (default mixing * dielectric matrix)
  average eigenvalue GAMMA=   1.1491
  2.4967  0.9560  0.5719  0.5719

 Free energy of the ion-electron system (eV)
  ---------------------------------------------------
  alpha Z        PSCENC =        52.13918862
  Ewald energy   TEWEN  =    215565.14860893
  -Hartree energ DENC   =   -219315.75748154
  -exchange      EXHF   =         0.00000000
  -V(xc)+E(xc)   XCENC  =      -219.94721814
  PAW double counting   =      5025.94469467    -4525.98471834
  entropy T*S    EENTRO =        -0.00291402
  eigenvalues    EBANDS =      -809.95706481
  atomic energy  EATOM  =      4121.42696706
  Solvation  Ediel_sol  =         0.00000000
  ---------------------------------------------------
  free energy    TOTEN  =      -106.98993757 eV

  energy without entropy =     -106.98702354  energy(sigma->0) =     -106.98848055


--------------------------------------------------------------------------------------------------------




--------------------------------------- Iteration      1(  10)  ---------------------------------------


    POTLOK:  cpu time    0.0801: real time    0.0801
    SETDIJ:  cpu time    0.1025: real time    0.1025
     EDDAV:  cpu time   11.0248: real time   11.0340
       DOS:  cpu time    0.0016: real time    0.0016
    CHARGE:  cpu time    0.5713: real time    0.5717
    MIXING:  cpu time    0.0050: real time    0.0050
    --------------------------------------------
      LOOP:  cpu time   11.7852: real time   11.7949

 eigenvalue-minimisations  :  7620
 total energy-change (2. order) : 0.4901823E-02  (-0.2354697E-02)
 number of electron      73.9999999 magnetization 
 augmentation part        5.9932789 magnetization 

 Broyden mixing:
  rms(total) = 0.38497E-01    rms(broyden)= 0.38493E-01
  rms(prec ) = 0.40295E-01
  weight for this iteration     100.00

 eigenvalues of (default mixing * dielectric matrix)
  average eigenvalue GAMMA=   1.2522
  2.4984  1.5520  0.9537  0.7956  0.4613

 Free energy of the ion-electron system (eV)
  ---------------------------------------------------
  alpha Z        PSCENC =        52.13918862
  Ewald energy   TEWEN  =    215565.14860893
  -Hartree energ DENC   =   -219318.21832298
  -exchange      EXHF   =         0.00000000
  -V(xc)+E(xc)   XCENC  =      -219.83080849
  PAW double counting   =      5023.71139222    -4523.78114311
  entropy T*S    EENTRO =        -0.00355731
  eigenvalues    EBANDS =      -807.57736068
  atomic energy  EATOM  =      4121.42696706
  Solvation  Ediel_sol  =         0.00000000
  ---------------------------------------------------
  free energy    TOTEN  =      -106.98503574 eV

  energy without entropy =     -106.98147843  energy(sigma->0) =     -106.98325709


--------------------------------------------------------------------------------------------------------




--------------------------------------- Iteration      1(  11)  ---------------------------------------


    POTLOK:  cpu time    0.0810: real time    0.0810
    SETDIJ:  cpu time    0.1012: real time    0.1013
     EDDAV:  cpu time   11.0648: real time   11.0744
       DOS:  cpu time    0.0016: real time    0.0016
    CHARGE:  cpu time    0.5699: real time    0.5702
    MIXING:  cpu time    0.0046: real time    0.0046
    --------------------------------------------
      LOOP:  cpu time   11.8232: real time   11.8332

 eigenvalue-minimisations  :  7790
 total energy-change (2. order) : 0.1102034E-02  (-0.3377090E-02)
 number of electron      73.9999999 magnetization 
 augmentation part        5.9732170 magnetization 

 Broyden mixing:
  rms(total) = 0.23111E-01    rms(broyden)= 0.23089E-01
  rms(prec ) = 0.32621E-01
  weight for this iteration     100.00

 eigenvalues of (default mixing * dielectric matrix)
  average eigenvalue GAMMA=   1.2708
  2.5548  2.0833  0.9677  0.8000  0.8000  0.4192

 Free energy of the ion-electron system (eV)
  ---------------------------------------------------
  alpha Z        PSCENC =        52.13918862
  Ewald energy   TEWEN  =    215565.14860893
  -Hartree energ DENC   =   -219324.25977452
  -exchange      EXHF   =         0.00000000
  -V(xc)+E(xc)   XCENC  =      -219.62290832
  PAW double counting   =      5006.17765305    -4506.30309377
  entropy T*S    EENTRO =        -0.00169442
  eigenvalues    EBANDS =      -801.68888034
  atomic energy  EATOM  =      4121.42696706
  Solvation  Ediel_sol  =         0.00000000
  ---------------------------------------------------
  free energy    TOTEN  =      -106.98393371 eV

  energy without entropy =     -106.98223929  energy(sigma->0) =     -106.98308650


--------------------------------------------------------------------------------------------------------




--------------------------------------- Iteration      1(  12)  ---------------------------------------


    POTLOK:  cpu time    0.0812: real time    0.0813
    SETDIJ:  cpu time    0.1019: real time    0.1019
     EDDAV:  cpu time   11.2157: real time   11.2255
       DOS:  cpu time    0.0016: real time    0.0020
    CHARGE:  cpu time    0.5661: real time    0.5665
    MIXING:  cpu time    0.0048: real time    0.0048
    --------------------------------------------
      LOOP:  cpu time   11.9714: real time   11.9820

 eigenvalue-minimisations  :  7910
 total energy-change (2. order) : 0.2957694E-02  (-0.3650379E-02)
 number of electron      73.9999999 magnetization 
 augmentation part        5.9744930 magnetization 

 Broyden mixing:
  rms(total) = 0.18476E-01    rms(broyden)= 0.18467E-01
  rms(prec ) = 0.25720E-01
  weight for this iteration     100.00

 eigenvalues of (default mixing * dielectric matrix)
  average eigenvalue GAMMA=   1.1945
  2.5810  2.1970  0.9472  0.7586  0.7586  0.7354  0.3835

 Free energy of the ion-electron system (eV)
  ---------------------------------------------------
  alpha Z        PSCENC =        52.13918862
  Ewald energy   TEWEN  =    215565.14860893
  -Hartree energ DENC   =   -219326.44795780
  -exchange      EXHF   =         0.00000000
  -V(xc)+E(xc)   XCENC  =      -219.61334301
  PAW double counting   =      4997.90317225    -4498.02913295
  entropy T*S    EENTRO =        -0.00325291
  eigenvalues    EBANDS =      -799.50522622
  atomic energy  EATOM  =      4121.42696706
  Solvation  Ediel_sol  =         0.00000000
  ---------------------------------------------------
  free energy    TOTEN  =      -106.98097601 eV

  energy without entropy =     -106.97772311  energy(sigma->0) =     -106.97934956


--------------------------------------------------------------------------------------------------------




--------------------------------------- Iteration      1(  13)  ---------------------------------------


    POTLOK:  cpu time    0.0830: real time    0.0833
    SETDIJ:  cpu time    0.1026: real time    0.1029
     EDDAV:  cpu time   12.5968: real time   12.6078
       DOS:  cpu time    0.0016: real time    0.0016
    CHARGE:  cpu time    0.5728: real time    0.5732
    MIXING:  cpu time    0.0047: real time    0.0048
    --------------------------------------------
      LOOP:  cpu time   13.3615: real time   13.3736

 eigenvalue-minimisations  :  9220
 total energy-change (2. order) : 0.1465763E-02  (-0.1834395E-02)
 number of electron      73.9999999 magnetization 
 augmentation part        5.9755877 magnetization 

 Broyden mixing:
  rms(total) = 0.11099E-01    rms(broyden)= 0.11095E-01
  rms(prec ) = 0.15588E-01
  weight for this iteration     100.00

 eigenvalues of (default mixing * dielectric matrix)
  average eigenvalue GAMMA=   1.2347
  2.8181  2.4169  0.9521  0.9580  0.9580  0.6971  0.6971  0.3806

 Free energy of the ion-electron system (eV)
  ---------------------------------------------------
  alpha Z        PSCENC =        52.13918862
  Ewald energy   TEWEN  =    215565.14860893
  -Hartree energ DENC   =   -219327.51846483
  -exchange      EXHF   =         0.00000000
  -V(xc)+E(xc)   XCENC  =      -219.61581779
  PAW double counting   =      4996.00157942    -4496.12698595
  entropy T*S    EENTRO =        -0.00308695
  eigenvalues    EBANDS =      -798.43149876
  atomic energy  EATOM  =      4121.42696706
  Solvation  Ediel_sol  =         0.00000000
  ---------------------------------------------------
  free energy    TOTEN  =      -106.97951025 eV

  energy without entropy =     -106.97642330  energy(sigma->0) =     -106.97796678


--------------------------------------------------------------------------------------------------------




--------------------------------------- Iteration      1(  14)  ---------------------------------------


    POTLOK:  cpu time    0.0832: real time    0.0838
    SETDIJ:  cpu time    0.1039: real time    0.1039
     EDDAV:  cpu time   11.3532: real time   11.3630
       DOS:  cpu time    0.0015: real time    0.0015
    CHARGE:  cpu time    0.5682: real time    0.5686
    MIXING:  cpu time    0.0048: real time    0.0048
    --------------------------------------------
      LOOP:  cpu time   12.1149: real time   12.1257

 eigenvalue-minimisations  :  8030
 total energy-change (2. order) : 0.1765284E-02  (-0.5140147E-03)
 number of electron      73.9999999 magnetization 
 augmentation part        5.9787752 magnetization 

 Broyden mixing:
  rms(total) = 0.68565E-02    rms(broyden)= 0.68525E-02
  rms(prec ) = 0.12538E-01
  weight for this iteration     100.00

 eigenvalues of (default mixing * dielectric matrix)
  average eigenvalue GAMMA=   1.2138
  2.8857  2.4537  1.0236  1.0236  0.9368  0.7605  0.7337  0.7337  0.3734

 Free energy of the ion-electron system (eV)
  ---------------------------------------------------
  alpha Z        PSCENC =        52.13918862
  Ewald energy   TEWEN  =    215565.14860893
  -Hartree energ DENC   =   -219329.89087025
  -exchange      EXHF   =         0.00000000
  -V(xc)+E(xc)   XCENC  =      -219.63533248
  PAW double counting   =      4991.94399063    -4492.06504086
  entropy T*S    EENTRO =        -0.00354493
  eigenvalues    EBANDS =      -796.04171169
  atomic energy  EATOM  =      4121.42696706
  Solvation  Ediel_sol  =         0.00000000
  ---------------------------------------------------
  free energy    TOTEN  =      -106.97774497 eV

  energy without entropy =     -106.97420004  energy(sigma->0) =     -106.97597250


--------------------------------------------------------------------------------------------------------




--------------------------------------- Iteration      1(  15)  ---------------------------------------


    POTLOK:  cpu time    0.0825: real time    0.0825
    SETDIJ:  cpu time    0.1034: real time    0.1035
     EDDAV:  cpu time   11.6492: real time   11.6591
       DOS:  cpu time    0.0018: real time    0.0018
    CHARGE:  cpu time    0.5756: real time    0.5759
    MIXING:  cpu time    0.0034: real time    0.0034
    --------------------------------------------
      LOOP:  cpu time   12.4158: real time   12.4263

 eigenvalue-minimisations  :  8240
 total energy-change (2. order) : 0.1207175E-02  (-0.6365195E-03)
 number of electron      73.9999999 magnetization 
 augmentation part        5.9791429 magnetization 

 Broyden mixing:
  rms(total) = 0.94493E-02    rms(broyden)= 0.94450E-02
  rms(prec ) = 0.17029E-01
  weight for this iteration     100.00

 eigenvalues of (default mixing * dielectric matrix)
  average eigenvalue GAMMA=   1.3175
  3.1763  2.5325  1.6726  1.0805  1.0805  0.9233  0.9233  0.7066  0.7066  0.3726

 Free energy of the ion-electron system (eV)
  ---------------------------------------------------
  alpha Z        PSCENC =        52.13918862
  Ewald energy   TEWEN  =    215565.14860893
  -Hartree energ DENC   =   -219332.98331794
  -exchange      EXHF   =         0.00000000
  -V(xc)+E(xc)   XCENC  =      -219.63296502
  PAW double counting   =      4991.42144011    -4491.54404739
  entropy T*S    EENTRO =        -0.00269404
  eigenvalues    EBANDS =      -792.94971811
  atomic energy  EATOM  =      4121.42696706
  Solvation  Ediel_sol  =         0.00000000
  ---------------------------------------------------
  free energy    TOTEN  =      -106.97653779 eV

  energy without entropy =     -106.97384375  energy(sigma->0) =     -106.97519077


--------------------------------------------------------------------------------------------------------




--------------------------------------- Iteration      1(  16)  ---------------------------------------


    POTLOK:  cpu time    0.0834: real time    0.0834
    SETDIJ:  cpu time    0.1030: real time    0.1030
     EDDAV:  cpu time   13.3339: real time   13.3455
       DOS:  cpu time    0.0016: real time    0.0016
    CHARGE:  cpu time    0.5716: real time    0.5720
    MIXING:  cpu time    0.0039: real time    0.0039
    --------------------------------------------
      LOOP:  cpu time   14.0973: real time   14.1094

 eigenvalue-minimisations  : 10020
 total energy-change (2. order) : 0.4489351E-02  (-0.6378349E-03)
 number of electron      73.9999999 magnetization 
 augmentation part        5.9795493 magnetization 

 Broyden mixing:
  rms(total) = 0.85952E-02    rms(broyden)= 0.85875E-02
  rms(prec ) = 0.12346E-01
  weight for this iteration     100.00

 eigenvalues of (default mixing * dielectric matrix)
  average eigenvalue GAMMA=   1.4531
  4.5763  2.6816  2.2979  0.9507  0.9507  0.9435  0.9435  0.8384  0.8384  0.5913
  0.3720

 Free energy of the ion-electron system (eV)
  ---------------------------------------------------
  alpha Z        PSCENC =        52.13918862
  Ewald energy   TEWEN  =    215565.14860893
  -Hartree energ DENC   =   -219342.51150637
  -exchange      EXHF   =         0.00000000
  -V(xc)+E(xc)   XCENC  =      -219.63791993
  PAW double counting   =      4991.16029252    -4491.28398768
  entropy T*S    EENTRO =        -0.00354829
  eigenvalues    EBANDS =      -783.41014331
  atomic energy  EATOM  =      4121.42696706
  Solvation  Ediel_sol  =         0.00000000
  ---------------------------------------------------
  free energy    TOTEN  =      -106.97204844 eV

  energy without entropy =     -106.96850016  energy(sigma->0) =     -106.97027430


--------------------------------------------------------------------------------------------------------




--------------------------------------- Iteration      1(  17)  ---------------------------------------


    POTLOK:  cpu time    0.0829: real time    0.0830
    SETDIJ:  cpu time    0.1018: real time    0.1019
     EDDAV:  cpu time   11.8414: real time   11.8515
       DOS:  cpu time    0.0016: real time    0.0016
    CHARGE:  cpu time    0.5780: real time    0.5783
    MIXING:  cpu time    0.0037: real time    0.0038
    --------------------------------------------
      LOOP:  cpu time   12.6095: real time   12.6200

 eigenvalue-minimisations  :  8590
 total energy-change (2. order) : 0.2591892E-02  (-0.2222199E-03)
 number of electron      73.9999999 magnetization 
 augmentation part        5.9800166 magnetization 

 Broyden mixing:
  rms(total) = 0.57648E-02    rms(broyden)= 0.57628E-02
  rms(prec ) = 0.82526E-02
  weight for this iteration     100.00

 eigenvalues of (default mixing * dielectric matrix)
  average eigenvalue GAMMA=   1.5851
  6.3234  2.7025  2.3955  1.0544  1.0544  1.0459  1.0459  0.8448  0.8448  0.6685
  0.6685  0.3722

 Free energy of the ion-electron system (eV)
  ---------------------------------------------------
  alpha Z        PSCENC =        52.13918862
  Ewald energy   TEWEN  =    215565.14860893
  -Hartree energ DENC   =   -219350.17355153
  -exchange      EXHF   =         0.00000000
  -V(xc)+E(xc)   XCENC  =      -219.64347923
  PAW double counting   =      4991.30470190    -4491.42692999
  entropy T*S    EENTRO =        -0.00355633
  eigenvalues    EBANDS =      -775.74140598
  atomic energy  EATOM  =      4121.42696706
  Solvation  Ediel_sol  =         0.00000000
  ---------------------------------------------------
  free energy    TOTEN  =      -106.96945655 eV

  energy without entropy =     -106.96590022  energy(sigma->0) =     -106.96767838


--------------------------------------------------------------------------------------------------------




--------------------------------------- Iteration      1(  18)  ---------------------------------------


    POTLOK:  cpu time    0.0829: real time    0.0829
    SETDIJ:  cpu time    0.1033: real time    0.1033
     EDDAV:  cpu time   12.3401: real time   12.3509
       DOS:  cpu time    0.0016: real time    0.0016
    CHARGE:  cpu time    0.5658: real time    0.5661
    MIXING:  cpu time    0.0038: real time    0.0038
    --------------------------------------------
      LOOP:  cpu time   13.0974: real time   13.1087

 eigenvalue-minimisations  :  9090
 total energy-change (2. order) : 0.1516797E-02  (-0.1618898E-03)
 number of electron      73.9999999 magnetization 
 augmentation part        5.9796410 magnetization 

 Broyden mixing:
  rms(total) = 0.37125E-02    rms(broyden)= 0.37093E-02
  rms(prec ) = 0.57534E-02
  weight for this iteration     100.00

 eigenvalues of (default mixing * dielectric matrix)
  average eigenvalue GAMMA=   1.6772
  7.4103  2.7801  2.3901  1.8132  0.9997  0.9997  0.9708  0.9708  0.8517  0.8517
  0.7790  0.6140  0.3721

 Free energy of the ion-electron system (eV)
  ---------------------------------------------------
  alpha Z        PSCENC =        52.13918862
  Ewald energy   TEWEN  =    215565.14860893
  -Hartree energ DENC   =   -219356.44106439
  -exchange      EXHF   =         0.00000000
  -V(xc)+E(xc)   XCENC  =      -219.63340036
  PAW double counting   =      4991.91491569    -4492.03720367
  entropy T*S    EENTRO =        -0.00354544
  eigenvalues    EBANDS =      -769.48240620
  atomic energy  EATOM  =      4121.42696706
  Solvation  Ediel_sol  =         0.00000000
  ---------------------------------------------------
  free energy    TOTEN  =      -106.96793975 eV

  energy without entropy =     -106.96439431  energy(sigma->0) =     -106.96616703


--------------------------------------------------------------------------------------------------------




--------------------------------------- Iteration      1(  19)  ---------------------------------------


    POTLOK:  cpu time    0.0839: real time    0.0840
    SETDIJ:  cpu time    0.1028: real time    0.1029
     EDDAV:  cpu time   12.2633: real time   12.2734
       DOS:  cpu time    0.0016: real time    0.0020
    CHARGE:  cpu time    0.5762: real time    0.5766
    MIXING:  cpu time    0.0054: real time    0.0054
    --------------------------------------------
      LOOP:  cpu time   13.0332: real time   13.0442

 eigenvalue-minimisations  :  8940
 total energy-change (2. order) : 0.8667892E-03  (-0.7388465E-04)
 number of electron      73.9999999 magnetization 
 augmentation part        5.9787430 magnetization 

 Broyden mixing:
  rms(total) = 0.34810E-02    rms(broyden)= 0.34783E-02
  rms(prec ) = 0.45056E-02
  weight for this iteration     100.00

 eigenvalues of (default mixing * dielectric matrix)
  average eigenvalue GAMMA=   1.9858
 10.6985  3.5409  2.6234  2.4828  1.0588  1.0588  0.9910  0.9910  0.8584  0.8584
  0.8281  0.8281  0.6113  0.3721

 Free energy of the ion-electron system (eV)
  ---------------------------------------------------
  alpha Z        PSCENC =        52.13918862
  Ewald energy   TEWEN  =    215565.14860893
  -Hartree energ DENC   =   -219361.26414319
  -exchange      EXHF   =         0.00000000
  -V(xc)+E(xc)   XCENC  =      -219.62450361
  PAW double counting   =      4991.95954648    -4492.08242233
  entropy T*S    EENTRO =        -0.00343550
  eigenvalues    EBANDS =      -764.66687943
  atomic energy  EATOM  =      4121.42696706
  Solvation  Ediel_sol  =         0.00000000
  ---------------------------------------------------
  free energy    TOTEN  =      -106.96707296 eV

  energy without entropy =     -106.96363747  energy(sigma->0) =     -106.96535521


--------------------------------------------------------------------------------------------------------




--------------------------------------- Iteration      1(  20)  ---------------------------------------


    POTLOK:  cpu time    0.0854: real time    0.0858
    SETDIJ:  cpu time    0.1056: real time    0.1059
     EDDAV:  cpu time   13.5957: real time   13.6070
       DOS:  cpu time    0.0016: real time    0.0016
    CHARGE:  cpu time    0.5669: real time    0.5673
    MIXING:  cpu time    0.0062: real time    0.0062
    --------------------------------------------
      LOOP:  cpu time   14.3614: real time   14.3738

 eigenvalue-minimisations  : 10200
 total energy-change (2. order) : 0.2508789E-03  (-0.5589201E-04)
 number of electron      73.9999999 magnetization 
 augmentation part        5.9785342 magnetization 

 Broyden mixing:
  rms(total) = 0.54937E-02    rms(broyden)= 0.54923E-02
  rms(prec ) = 0.90520E-02
  weight for this iteration     100.00

 eigenvalues of (default mixing * dielectric matrix)
  average eigenvalue GAMMA=   2.1161
 12.4404  4.4144  2.7475  2.4261  1.0413  1.0413  0.3721  1.1752  1.0850  1.0850
  0.8415  0.8415  0.6166  0.8554  0.7578

 Free energy of the ion-electron system (eV)
  ---------------------------------------------------
  alpha Z        PSCENC =        52.13918862
  Ewald energy   TEWEN  =    215565.14860893
  -Hartree energ DENC   =   -219366.11173561
  -exchange      EXHF   =         0.00000000
  -V(xc)+E(xc)   XCENC  =      -219.62134899
  PAW double counting   =      4991.39431204    -4491.51662679
  entropy T*S    EENTRO =        -0.00315096
  eigenvalues    EBANDS =      -759.82303639
  atomic energy  EATOM  =      4121.42696706
  Solvation  Ediel_sol  =         0.00000000
  ---------------------------------------------------
  free energy    TOTEN  =      -106.96682208 eV

  energy without entropy =     -106.96367112  energy(sigma->0) =     -106.96524660


--------------------------------------------------------------------------------------------------------




--------------------------------------- Iteration      1(  21)  ---------------------------------------


    POTLOK:  cpu time    0.0826: real time    0.0833
    SETDIJ:  cpu time    0.1024: real time    0.1025
     EDDAV:  cpu time   11.9443: real time   11.9546
       DOS:  cpu time    0.0015: real time    0.0015
    CHARGE:  cpu time    0.5743: real time    0.5747
    MIXING:  cpu time    0.0043: real time    0.0043
    --------------------------------------------
      LOOP:  cpu time   12.7095: real time   12.7208

 eigenvalue-minimisations  :  8670
 total energy-change (2. order) : 0.5336484E-04  (-0.6719495E-04)
 number of electron      73.9999999 magnetization 
 augmentation part        5.9791766 magnetization 

 Broyden mixing:
  rms(total) = 0.20914E-02    rms(broyden)= 0.20865E-02
  rms(prec ) = 0.28946E-02
  weight for this iteration     100.00

 eigenvalues of (default mixing * dielectric matrix)
  average eigenvalue GAMMA=   2.1696
 13.8528  4.9324  2.7807  2.4548  1.4817  1.0636  1.0636  1.0515  1.0515  0.3721
  0.8294  0.8294  0.6190  0.7907  0.7697  0.7697

 Free energy of the ion-electron system (eV)
  ---------------------------------------------------
  alpha Z        PSCENC =        52.13918862
  Ewald energy   TEWEN  =    215565.14860893
  -Hartree energ DENC   =   -219368.46067858
  -exchange      EXHF   =         0.00000000
  -V(xc)+E(xc)   XCENC  =      -219.62659196
  PAW double counting   =      4991.09731514    -4491.21812637
  entropy T*S    EENTRO =        -0.00350228
  eigenvalues    EBANDS =      -757.46994929
  atomic energy  EATOM  =      4121.42696706
[...]
     44       4.7338      0.00000
     45       4.9177      0.00000
     46       5.0457      0.00000
     47       5.2829      0.00000
     48       5.5271      0.00000
     49       5.6648      0.00000
     50       5.7734      0.00000

 k-point    60 :      -0.1250    0.4375   -0.0000
  band No.  band energies     occupation 
      1     -20.8818      2.00000
      2     -20.7863      2.00000
      3     -20.7160      2.00000
      4     -20.6559      2.00000
      5     -20.5882      2.00000
      6     -20.5140      2.00000
      7     -20.4428      2.00000
      8     -20.3678      2.00000
      9     -20.2839      2.00000
     10      -8.6847      2.00000
     11      -8.5368      2.00000
     12      -8.4117      2.00000
     13      -8.3709      2.00000
     14      -8.2744      2.00000
     15      -8.1861      2.00000
     16      -8.1391      2.00000
     17      -8.0195      2.00000
     18      -7.9334      2.00000
     19      -7.4252      2.00000
     20      -7.1196      2.00000
     21      -6.7653      2.00000
     22      -6.4257      2.00000
     23      -6.2621      2.00000
     24      -6.1742      2.00000
     25      -6.1222      2.00000
     26      -6.0639      2.00000
     27      -6.0211      2.00000
     28      -5.9620      2.00000
     29      -5.9112      2.00000
     30      -5.8117      2.00000
     31      -5.7691      2.00000
     32      -5.6432      2.00000
     33      -5.6056      2.00000
     34      -5.4883      2.00000
     35      -5.3935      2.00000
     36      -5.2392      2.00000
     37      -0.8606      0.00386
     38      -0.8470      0.00106
     39       3.2035      0.00000
     40       3.2616      0.00000
     41       3.6840      0.00000
     42       4.0093      0.00000
     43       4.3961      0.00000
     44       4.7338      0.00000
     45       4.9177      0.00000
     46       5.0457      0.00000
     47       5.2829      0.00000
     48       5.5271      0.00000
     49       5.6648      0.00000
     50       5.7734      0.00000

 k-point    61 :      -0.1875    0.4375   -0.0000
  band No.  band energies     occupation 
      1     -20.9090      2.00000
      2     -20.8115      2.00000
      3     -20.7401      2.00000
      4     -20.6760      2.00000
      5     -20.6025      2.00000
      6     -20.5223      2.00000
      7     -20.4464      2.00000
      8     -20.3683      2.00000
      9     -20.2815      2.00000
     10      -8.4336      2.00000
     11      -8.3241      2.00000
     12      -8.2905      2.00000
     13      -8.1945      2.00000
     14      -8.1530      2.00000
     15      -8.0716      2.00000
     16      -7.9867      2.00000
     17      -7.9212      2.00000
     18      -7.7476      2.00000
     19      -7.5355      2.00000
     20      -7.2094      2.00000
     21      -6.8915      2.00000
     22      -6.5933      2.00000
     23      -6.3764      2.00000
     24      -6.3065      2.00000
     25      -6.2169      2.00000
     26      -6.1653      2.00000
     27      -6.1267      2.00000
     28      -6.0573      2.00000
     29      -6.0111      2.00000
     30      -5.9659      2.00000
     31      -5.8599      2.00000
     32      -5.7793      2.00000
     33      -5.6555      2.00000
     34      -5.5368      2.00000
     35      -5.3781      2.00000
     36      -5.2190      2.00000
     37      -0.9703      1.16901
     38      -0.9550      0.82618
     39       3.7661      0.00000
     40       3.8298      0.00000
     41       4.0092      0.00000
     42       4.1736      0.00000
     43       4.3536      0.00000
     44       4.5478      0.00000
     45       4.8122      0.00000
     46       5.1984      0.00000
     47       5.6305      0.00000
     48       5.9508      0.00000
     49       6.1585      0.00000
     50       6.2429      0.00000

 k-point    62 :      -0.2500    0.4375   -0.0000
  band No.  band energies     occupation 
      1     -20.9090      2.00000
      2     -20.8115      2.00000
      3     -20.7401      2.00000
      4     -20.6760      2.00000
      5     -20.6025      2.00000
      6     -20.5223      2.00000
      7     -20.4464      2.00000
      8     -20.3683      2.00000
      9     -20.2815      2.00000
     10      -8.4336      2.00000
     11      -8.3241      2.00000
     12      -8.2905      2.00000
     13      -8.1945      2.00000
     14      -8.1530      2.00000
     15      -8.0716      2.00000
     16      -7.9867      2.00000
     17      -7.9212      2.00000
     18      -7.7476      2.00000
     19      -7.5355      2.00000
     20      -7.2094      2.00000
     21      -6.8915      2.00000
     22      -6.5933      2.00000
     23      -6.3764      2.00000
     24      -6.3065      2.00000
     25      -6.2169      2.00000
     26      -6.1653      2.00000
     27      -6.1267      2.00000
     28      -6.0573      2.00000
     29      -6.0111      2.00000
     30      -5.9659      2.00000
     31      -5.8599      2.00000
     32      -5.7793      2.00000
     33      -5.6555      2.00000
     34      -5.5368      2.00000
     35      -5.3781      2.00000
     36      -5.2190      2.00000
     37      -0.9703      1.16901
     38      -0.9550      0.82618
     39       3.7661      0.00000
     40       3.8298      0.00000
     41       4.0092      0.00000
     42       4.1736      0.00000
     43       4.3536      0.00000
     44       4.5478      0.00000
     45       4.8122      0.00000
     46       5.1984      0.00000
     47       5.6305      0.00000
     48       5.9508      0.00000
     49       6.1585      0.00000
     50       6.2429      0.00000

 k-point    63 :      -0.0625    0.4375   -0.0000
  band No.  band energies     occupation 
      1     -20.8324      2.00000
      2     -20.7409      2.00000
      3     -20.6725      2.00000
      4     -20.6189      2.00000
      5     -20.5618      2.00000
      6     -20.4985      2.00000
      7     -20.4355      2.00000
      8     -20.3662      2.00000
      9     -20.2878      2.00000
     10      -8.9336      2.00000
     11      -8.7815      2.00000
     12      -8.6163      2.00000
     13      -8.5482      2.00000
     14      -8.4337      2.00000
     15      -8.3878      2.00000
     16      -8.2975      2.00000
     17      -8.1924      2.00000
     18      -8.1328      2.00000
     19      -7.2446      2.00000
     20      -6.9780      2.00000
     21      -6.6489      2.00000
     22      -6.3203      2.00000
     23      -6.1170      2.00000
     24      -6.0564      2.00000
     25      -5.9949      2.00000
     26      -5.9603      2.00000
     27      -5.9234      2.00000
     28      -5.8655      2.00000
     29      -5.7747      2.00000
     30      -5.7241      2.00000
     31      -5.6331      2.00000
     32      -5.5614      2.00000
     33      -5.4611      2.00000
     34      -5.4228      2.00000
     35      -5.3324      2.00000
     36      -5.2680      2.00000
     37      -0.6381      0.00000
     38      -0.6281      0.00000
     39       2.6011      0.00000
     40       2.6364      0.00000
     41       3.3822      0.00000
     42       3.7688      0.00000
     43       4.2437      0.00000
     44       4.6762      0.00000
     45       4.8558      0.00000
     46       4.9641      0.00000
     47       5.0763      0.00000
     48       5.1318      0.00000
     49       5.2531      0.00000
     50       5.4221      0.00000

 k-point    64 :      -0.3750    0.4375   -0.0000
  band No.  band energies     occupation 
      1     -20.8324      2.00000
      2     -20.7409      2.00000
      3     -20.6725      2.00000
      4     -20.6189      2.00000
      5     -20.5618      2.00000
      6     -20.4985      2.00000
      7     -20.4355      2.00000
      8     -20.3662      2.00000
      9     -20.2878      2.00000
     10      -8.9336      2.00000
     11      -8.7815      2.00000
     12      -8.6163      2.00000
     13      -8.5482      2.00000
     14      -8.4337      2.00000
     15      -8.3878      2.00000
     16      -8.2975      2.00000
     17      -8.1924      2.00000
     18      -8.1328      2.00000
     19      -7.2446      2.00000
     20      -6.9780      2.00000
     21      -6.6489      2.00000
     22      -6.3203      2.00000
     23      -6.1170      2.00000
     24      -6.0564      2.00000
     25      -5.9949      2.00000
     26      -5.9603      2.00000
     27      -5.9234      2.00000
     28      -5.8655      2.00000
     29      -5.7747      2.00000
     30      -5.7241      2.00000
     31      -5.6331      2.00000
     32      -5.5614      2.00000
     33      -5.4611      2.00000
     34      -5.4228      2.00000
     35      -5.3324      2.00000
     36      -5.2680      2.00000
     37      -0.6381      0.00000
     38      -0.6281      0.00000
     39       2.6011      0.00000
     40       2.6364      0.00000
     41       3.3822      0.00000
     42       3.7688      0.00000
     43       4.2437      0.00000
     44       4.6762      0.00000
     45       4.8558      0.00000
     46       4.9641      0.00000
     47       5.0763      0.00000
     48       5.1318      0.00000
     49       5.2531      0.00000
     50       5.4221      0.00000


--------------------------------------------------------------------------------------------------------


 soft charge-density along one line, spin component           1
         0         1         2         3         4         5         6         7         8         9
 total charge-density along one line
 
 pseudopotential strength for first ion, spin component:           1
 13.348 -16.333   0.000   0.000  -0.000  -0.000  -0.000   0.000
-16.333  20.013  -0.000  -0.000   0.000   0.000   0.001  -0.000
  0.000  -0.000  -9.844  -0.000   0.000  12.095   0.000  -0.000
  0.000  -0.000  -0.000  -9.846   0.000   0.000  12.097  -0.000
 -0.000   0.000   0.000   0.000  -9.844  -0.000  -0.000  12.095
 -0.000   0.000  12.095   0.000  -0.000 -14.766  -0.000   0.000
 -0.000   0.001   0.000  12.097  -0.000  -0.000 -14.769   0.000
  0.000  -0.000  -0.000  -0.000  12.095   0.000   0.000 -14.766
 total augmentation occupancy for first ion, spin component:           1
  2.701   0.410  -0.000  -0.002  -0.000  -0.000  -0.001  -0.000
  0.410   0.079  -0.000  -0.001   0.000  -0.000  -0.000  -0.000
 -0.000  -0.000   2.182   0.000  -0.000   0.268   0.000  -0.000
 -0.002  -0.001   0.000   2.181   0.000   0.000   0.269  -0.000
 -0.000   0.000  -0.000   0.000   2.182  -0.000  -0.000   0.268
 -0.000  -0.000   0.268   0.000  -0.000   0.035   0.000  -0.000
 -0.001  -0.000   0.000   0.269  -0.000   0.000   0.036   0.000
 -0.000  -0.000  -0.000  -0.000   0.268  -0.000   0.000   0.035


------------------------ aborting loop because EDIFF is reached ----------------------------------------


    CHARGE:  cpu time    0.5759: real time    0.5762
    FORLOC:  cpu time    0.0121: real time    0.0121
    FORNL :  cpu time    3.0575: real time    3.0601
    STRESS:  cpu time    6.4420: real time    6.4463
    FORCOR:  cpu time    0.0943: real time    0.0944
    FORHAR:  cpu time    0.0324: real time    0.0325
    MIXING:  cpu time    0.0065: real time    0.0065
    OFIELD:  cpu time    0.0001: real time    0.0001

  FORCE on cell =-STRESS in cart. coord.  units (eV):
  Direction    XX          YY          ZZ          XY          YZ          ZX
  --------------------------------------------------------------------------------------
  Alpha Z    52.13919    52.13919    52.13919
  Ewald  217719.05523217719.06084************    -0.00002    -0.00003    -0.00412
  Hartree218537.80653218537.78787************    -0.00002    -0.00003     0.00976
  E(xc)    -331.61300  -331.61318  -331.58020    -0.00000     0.00000     0.00086
  Local  ************************436656.05260    -0.00013     0.00006    -0.01775
  n-local  -160.88766  -160.87192  -161.33137     0.00000     0.00000    -0.01552
  augment    61.44242    61.43452    61.28029     0.00016    -0.00000     0.00283
  Kinetic  1281.42579  1281.13595  1281.38716    -0.00001    -0.00001     0.02474
  Fock        0.00000     0.00000     0.00000     0.00000     0.00000     0.00000
  -------------------------------------------------------------------------------------
  Total       2.51216     2.29629    -0.54481    -0.00002    -0.00000     0.00082
  in kB       6.54246     5.98028    -1.41885    -0.00006    -0.00001     0.00212
  external pressure =        3.70 kB  Pullay stress =        0.00 kB


 VOLUME and BASIS-vectors are now :
 -----------------------------------------------------------------------------
  energy-cutoff  :      450.00
  volume of cell :      615.20
      direct lattice vectors                 reciprocal lattice vectors
     2.584487934 -1.492143373  0.000000000     0.386923842  0.000000000 -0.000000000
     0.000000000  2.984286746  0.000000000     0.193461921  0.335088443 -0.000000000
     0.000000000  0.000000000 79.763031829    -0.000000000 -0.000000000  0.012537136

  length of vectors
     2.984303893  2.984286746 79.763031829     0.386923842  0.386926065  0.012537136


 FORCES acting on ions
    electron-ion (+dipol)            ewald-force                    non-local-force                 convergence-correction
 -----------------------------------------------------------------------------------------------
   -.224E-02 -.850E-06 0.242E+04   -.105E-04 0.124E-05 -.242E+04   0.257E-02 -.231E-06 -.120E+00   0.614E-06 0.156E-06 0.388E-02
   -.388E-04 0.787E-04 0.161E+04   0.500E-04 -.103E-03 -.161E+04   -.428E-05 0.102E-04 -.189E+00   0.484E-06 0.132E-06 0.365E-02
   0.601E-05 -.963E-06 0.306E+00   -.104E-04 0.122E-05 -.976E-01   0.185E-05 -.234E-07 -.174E+00   -.639E-07 0.169E-06 0.197E-02
   -.341E-04 0.784E-04 -.805E+03   0.495E-04 -.103E-03 0.805E+03   -.102E-04 0.102E-04 -.177E+00   0.104E-06 0.174E-06 0.163E-02
   0.231E-02 -.103E-05 -.242E+04   -.116E-04 0.132E-05 0.242E+04   -.264E-02 0.323E-06 -.222E+00   0.117E-05 -.150E-06 0.224E-02
   0.154E-01 0.611E-04 -.321E+04   0.927E-04 -.891E-04 0.322E+04   -.161E-01 0.160E-04 -.181E+01   -.461E-05 0.417E-07 0.223E-02
   -.193E-01 -.608E-04 0.322E+04   -.125E-03 0.889E-04 -.322E+04   0.198E-01 -.165E-04 0.188E+01   0.201E-05 0.380E-07 0.369E-02
   0.443E-04 -.779E-04 0.806E+03   -.683E-04 0.102E-03 -.806E+03   0.143E-04 -.104E-04 -.184E+00   0.372E-07 -.435E-07 0.308E-02
   0.541E-04 -.777E-04 -.161E+04   -.686E-04 0.102E-03 0.161E+04   0.117E-06 -.106E-04 -.169E+00   0.470E-06 0.217E-06 0.200E-02
   0.842E-02 0.322E-04 0.119E+04   0.264E-03 -.271E-04 -.119E+04   -.878E-02 -.802E-05 -.950E+00   -.386E-07 -.573E-09 0.626E-03
   -.696E-05 0.149E-05 0.402E+03   0.102E-04 -.119E-05 -.402E+03   -.277E-07 -.613E-06 -.150E+00   0.117E-08 0.671E-10 0.107E-02
   -.168E-04 0.134E-05 -.403E+03   0.106E-04 -.125E-05 0.403E+03   0.771E-05 -.634E-06 -.154E+00   -.473E-09 -.875E-09 0.636E-03
   -.744E-02 -.291E-04 -.119E+04   -.242E-03 0.245E-04 0.119E+04   0.809E-02 0.691E-05 0.647E+00   0.171E-07 0.531E-09 0.615E-03
   -.135E-03 -.103E-03 0.671E+03   -.409E-04 0.879E-04 -.671E+03   0.186E-03 0.286E-04 -.156E+00   -.147E-08 -.108E-08 0.118E-02
   0.487E-04 -.103E-03 -.135E+03   -.409E-04 0.878E-04 0.135E+03   -.131E-04 0.285E-04 -.153E+00   -.105E-08 -.979E-09 0.612E-03
   0.782E-03 -.103E-03 -.940E+03   -.386E-04 0.880E-04 0.940E+03   -.139E-03 0.286E-04 -.910E-01   0.474E-09 0.467E-10 0.740E-03
   -.112E-02 0.102E-03 0.940E+03   0.600E-04 -.865E-04 -.939E+03   0.376E-03 -.279E-04 -.213E+00   -.121E-07 -.105E-09 0.120E-02
   -.706E-04 0.102E-03 0.134E+03   0.594E-04 -.867E-04 -.134E+03   0.207E-04 -.280E-04 -.146E+00   0.192E-08 -.234E-09 0.829E-03
   0.127E-03 0.102E-03 -.672E+03   0.600E-04 -.865E-04 0.672E+03   -.194E-03 -.279E-04 -.153E+00   -.614E-08 0.154E-09 0.759E-03
 -----------------------------------------------------------------------------------------------
   -.321E-02 0.553E-06 0.265E+01   -.269E-13 -.678E-14 0.114E-12   0.321E-02 -.138E-05 -.268E+01   0.169E-06 0.731E-06 0.326E-01
 
 
 POSITION                                       TOTAL-FORCE (eV/Angst)
 -----------------------------------------------------------------------------------
      0.00000      0.00000     39.71531         0.000317      0.000000      0.030876
      0.86150      1.49214     42.16948         0.000007     -0.000014      0.023657
      0.00000      0.00000     47.07649        -0.000003      0.000000      0.035845
      0.86150      1.49214     49.53238         0.000005     -0.000014      0.033412
      0.00000      0.00000     54.44472        -0.000335      0.000000      0.040312
      0.86150      1.49214     56.89857        -0.000650     -0.000012      0.035781
      1.72299     -0.00000     37.25951         0.000436      0.000012      0.260001
      1.72299     -0.00000     44.62238        -0.000010      0.000014      0.029904
      1.72299     -0.00000     51.98813        -0.000014      0.000013      0.040524
      0.00000      0.00000     36.01823        -0.000097     -0.000003     -0.287724
      0.00000      0.00000     43.40678         0.000003     -0.000000     -0.024938
      0.00000      0.00000     50.77163         0.000002     -0.000001     -0.034734
      0.00000      0.00000     58.19111         0.000406      0.000002     -0.010094
      1.72299     -0.00000     40.95372         0.000010      0.000013     -0.033953
      1.72299     -0.00000     48.31570        -0.000005      0.000013     -0.032395
      1.72299     -0.00000     55.68472         0.000604      0.000013     -0.031814
      0.86150      1.49214     38.49946        -0.000680     -0.000013     -0.019160
      0.86150      1.49214     45.86006         0.000009     -0.000013     -0.016839
      0.86150      1.49214     53.22795        -0.000007     -0.000013     -0.038663
 -----------------------------------------------------------------------------------
    total drift:                                0.000000     -0.000000     -0.000060


--------------------------------------------------------------------------------------------------------



  FREE ENERGIE OF THE ION-ELECTRON SYSTEM (eV)
  ---------------------------------------------------
  free  energy   TOTEN  =      -106.96737932 eV

  energy  without entropy=     -106.96389951  energy(sigma->0) =     -106.96563942
 


--------------------------------------------------------------------------------------------------------


    POTLOK:  cpu time    0.1864: real time    0.1869


--------------------------------------------------------------------------------------------------------


 stress matrix after NEB project (eV)
      2.51216     -0.00002      0.00082
     -0.00002      2.29629     -0.00000
      0.00082     -0.00000     -0.54481
  FORCES: max atom, RMS     0.287724    0.093762
  FORCE total and by dimension    0.408698    0.287724
  Stress total and by dimension    3.446844    2.512161
     LOOP+:  cpu time  557.5862: real time  558.0614
    4ORBIT:  cpu time    0.0000: real time    0.0000

 total amount of memory used by VASP MPI-rank0   149465. kBytes
=======================================================================

   base      :      30000. kBytes
   nonl-proj :      45749. kBytes
   fftplans  :      24904. kBytes
   grid      :      13803. kBytes
   one-center:         40. kBytes
   wavefun   :      34969. kBytes
 
  
  
 General timing and accounting informations for this job:
 ========================================================
  
                  Total CPU time used (sec):      565.388
                            User time (sec):      561.613
                          System time (sec):        3.775
                         Elapsed time (sec):      565.858
  
                   Maximum memory used (kb):      324412.
                   Average memory used (kb):           0.
  
                          Minor page faults:       418683
                          Major page faults:            0
                 Voluntary context switches:          364
