       N       E                     dE             d eps       ncg     rms          rms(c)
DAV:   1     0.501518649429E+03    0.50152E+03   -0.40962E+04  2628   0.131E+03
DAV:   2    -0.839914710889E+02   -0.58551E+03   -0.55364E+03  3382   0.254E+02
DAV:   3    -0.147082918959E+03   -0.63091E+02   -0.62669E+02  3058   0.890E+01
DAV:   4    -0.148250686832E+03   -0.11678E+01   -0.11649E+01  3074   0.132E+01
DAV:   5    -0.148277796523E+03   -0.27110E-01   -0.27091E-01  3194   0.198E+00    0.221E+01
DAV:   6    -0.132422960139E+03    0.15855E+02   -0.87293E+01  2910   0.284E+01    0.733E+00
DAV:   7    -0.132331008622E+03    0.91952E-01   -0.19002E+00  2928   0.494E+00    0.450E+00
DAV:   8    -0.132236948759E+03    0.94060E-01   -0.43638E-01  2994   0.346E+00    0.783E-01
DAV:   9    -0.132213719095E+03    0.23230E-01   -0.59095E-02  2936   0.906E-01    0.396E-01
DAV:  10    -0.132214622392E+03   -0.90330E-03   -0.30322E-02  3038   0.610E-01    0.274E-01
DAV:  11    -0.132214071244E+03    0.55115E-03   -0.20747E-03  3346   0.270E-01    0.160E-01
DAV:  12    -0.132213428782E+03    0.64246E-03   -0.17711E-03  3648   0.281E-01    0.481E-02
DAV:  13    -0.132213076575E+03    0.35221E-03   -0.52704E-04  3044   0.122E-01    0.293E-02
DAV:  14    -0.132212412576E+03    0.66400E-03   -0.20723E-04  3338   0.159E-01    0.330E-02
DAV:  15    -0.132211854553E+03    0.55802E-03   -0.22662E-04  3540   0.185E-01    0.297E-02
DAV:  16    -0.132210241225E+03    0.16133E-02   -0.29190E-03  4388   0.879E-01    0.360E-02
DAV:  17    -0.132210395657E+03   -0.15443E-03   -0.29445E-03  2998   0.255E-01    0.458E-02
DAV:  18    -0.132210363703E+03    0.31954E-04   -0.41826E-04  3116   0.110E-01    0.359E-02
DAV:  19    -0.132210364784E+03   -0.10811E-05   -0.74001E-05  2722   0.317E-02
   1 F= -.13221036E+03 E0= -.13220793E+03  d E =-.132210E+03
       N       E                     dE             d eps       ncg     rms          rms(c)
DAV:   1    -0.132212459112E+03   -0.20954E-02   -0.28210E-02  2756   0.717E-01    0.419E-02
DAV:   2    -0.132212407803E+03    0.51309E-04   -0.92248E-04  2992   0.133E-01    0.284E-02
DAV:   3    -0.132212345123E+03    0.62680E-04   -0.32943E-05  2652   0.530E-02    0.209E-02
DAV:   4    -0.132212217601E+03    0.12752E-03   -0.21471E-04  3292   0.140E-01    0.139E-02
DAV:   5    -0.132212214667E+03    0.29336E-05   -0.11201E-04  2838   0.429E-02    0.151E-02
DAV:   6    -0.132212205349E+03    0.93182E-05   -0.10797E-05  1820   0.183E-02
   2 F= -.13221221E+03 E0= -.13220979E+03  d E =-.184057E-02
       N       E                     dE             d eps       ncg     rms          rms(c)
DAV:   1    -0.132213073853E+03   -0.85919E-03   -0.40805E-02  2688   0.875E-01    0.465E-02
DAV:   2    -0.132213119461E+03   -0.45609E-04   -0.19195E-03  3024   0.202E-01    0.420E-02
DAV:   3    -0.132213070708E+03    0.48754E-04   -0.13387E-04  2980   0.584E-02    0.303E-02
DAV:   4    -0.132213001421E+03    0.69287E-04   -0.83781E-05  2892   0.453E-02    0.150E-02
DAV:   5    -0.132212945173E+03    0.56248E-04   -0.66202E-05  2902   0.668E-02    0.130E-02
DAV:   6    -0.132212913087E+03    0.32086E-04   -0.82073E-05  3006   0.860E-02    0.649E-03
DAV:   7    -0.132212913984E+03   -0.89709E-06   -0.75509E-05  2786   0.433E-02
   3 F= -.13221291E+03 E0= -.13221056E+03  d E =-.254920E-02
       N       E                     dE             d eps       ncg     rms          rms(c)
DAV:   1    -0.132213984430E+03   -0.10713E-02   -0.16245E-01  2696   0.166E+00    0.547E-02
DAV:   2    -0.132214282088E+03   -0.29766E-03   -0.35318E-03  2876   0.234E-01    0.322E-02
DAV:   3    -0.132214253321E+03    0.28766E-04   -0.57071E-05  2956   0.455E-02    0.213E-02
DAV:   4    -0.132214228648E+03    0.24674E-04   -0.33134E-05  2662   0.433E-02    0.933E-03
DAV:   5    -0.132214218714E+03    0.99335E-05   -0.21676E-05  2210   0.380E-02    0.513E-03
DAV:   6    -0.132214211710E+03    0.70039E-05   -0.11792E-05  1966   0.344E-02
   4 F= -.13221421E+03 E0= -.13221188E+03  d E =-.129773E-02
       N       E                     dE             d eps       ncg     rms          rms(c)
DAV:   1    -0.132214036217E+03    0.18250E-03   -0.10140E+00  2660   0.416E+00    0.135E-01
DAV:   2    -0.132215901597E+03   -0.18654E-02   -0.22423E-02  2870   0.586E-01    0.820E-02
DAV:   3    -0.132215695839E+03    0.20576E-03   -0.33073E-04  3084   0.120E-01    0.556E-02
DAV:   4    -0.132215492573E+03    0.20327E-03   -0.26156E-04  3016   0.138E-01    0.231E-02
DAV:   5    -0.132215424542E+03    0.68031E-04   -0.20791E-04  3100   0.106E-01    0.146E-02
DAV:   6    -0.132215370199E+03    0.54343E-04   -0.74290E-05  2832   0.848E-02    0.110E-02
DAV:   7    -0.132215321509E+03    0.48691E-04   -0.24180E-05  2392   0.811E-02    0.936E-03
DAV:   8    -0.132215270232E+03    0.51277E-04   -0.42538E-05  2764   0.102E-01    0.560E-03
DAV:   9    -0.132215232208E+03    0.38024E-04   -0.49487E-05  2802   0.103E-01    0.576E-03
DAV:  10    -0.132215206050E+03    0.26158E-04   -0.51043E-05  2912   0.888E-02    0.469E-03
DAV:  11    -0.132215189898E+03    0.16152E-04   -0.39378E-05  2656   0.714E-02    0.613E-03
DAV:  12    -0.132215173341E+03    0.16557E-04   -0.29791E-05  2450   0.690E-02    0.425E-03
DAV:  13    -0.132215173847E+03   -0.50684E-06   -0.53424E-05  2692   0.409E-02
   5 F= -.13221517E+03 E0= -.13221290E+03  d E =-.225986E-02
       N       E                     dE             d eps       ncg     rms          rms(c)
DAV:   1    -0.132215812777E+03   -0.63944E-03   -0.26459E-01  2652   0.209E+00    0.672E-02
DAV:   2    -0.132216312369E+03   -0.49959E-03   -0.56568E-03  2862   0.282E-01    0.363E-02
DAV:   3    -0.132216283323E+03    0.29046E-04   -0.68477E-05  3012   0.392E-02    0.256E-02
DAV:   4    -0.132216263451E+03    0.19872E-04   -0.74626E-05  2896   0.437E-02    0.938E-03
DAV:   5    -0.132216261754E+03    0.16973E-05   -0.19057E-05  2180   0.191E-02    0.748E-03
DAV:   6    -0.132216259336E+03    0.24173E-05   -0.87774E-06  1718   0.154E-02
   6 F= -.13221626E+03 E0= -.13221402E+03  d E =-.108549E-02
       N       E                     dE             d eps       ncg     rms          rms(c)
DAV:   1    -0.132213999446E+03    0.22623E-02   -0.23815E+00  2636   0.627E+00    0.196E-01
DAV:   2    -0.132218418674E+03   -0.44192E-02   -0.50272E-02  2856   0.845E-01    0.112E-01
DAV:   3    -0.132218140397E+03    0.27828E-03   -0.60870E-04  3068   0.115E-01    0.777E-02
DAV:   4    -0.132217935641E+03    0.20476E-03   -0.59132E-04  2942   0.127E-01    0.282E-02
DAV:   5    -0.132217909350E+03    0.26291E-04   -0.19356E-04  2914   0.613E-02    0.210E-02
DAV:   6    -0.132217878000E+03    0.31350E-04   -0.65453E-05  2822   0.415E-02    0.929E-03
DAV:   7    -0.132217847412E+03    0.30587E-04   -0.15813E-05  2054   0.449E-02    0.103E-02
DAV:   8    -0.132217803190E+03    0.44223E-04   -0.23796E-05  2384   0.688E-02    0.650E-03
DAV:   9    -0.132217750883E+03    0.52306E-04   -0.70471E-05  3232   0.104E-01    0.137E-02
DAV:  10    -0.132217705969E+03    0.44914E-04   -0.49743E-05  2960   0.105E-01    0.811E-03
DAV:  11    -0.132217697072E+03    0.88966E-05   -0.73396E-05  2762   0.725E-02
   7 F= -.13221770E+03 E0= -.13221548E+03  d E =-.252322E-02
       N       E                     dE             d eps       ncg     rms          rms(c)
DAV:   1    -0.132218728961E+03   -0.10230E-02   -0.15201E-01  2638   0.158E+00    0.463E-02
DAV:   2    -0.132218970548E+03   -0.24159E-03   -0.29407E-03  2940   0.213E-01    0.294E-02
DAV:   3    -0.132218945878E+03    0.24670E-04   -0.48915E-05  2856   0.369E-02    0.209E-02
DAV:   4    -0.132218920755E+03    0.25123E-04   -0.63687E-05  2840   0.502E-02    0.933E-03
DAV:   5    -0.132218916397E+03    0.43578E-05   -0.28536E-05  2712   0.328E-02    0.101E-02
DAV:   6    -0.132218915043E+03    0.13542E-05   -0.98550E-06  1536   0.149E-02
   8 F= -.13221892E+03 E0= -.13221668E+03  d E =-.121797E-02
       N       E                     dE             d eps       ncg     rms          rms(c)
DAV:   1    -0.132218525162E+03    0.39124E-03   -0.13687E+00  2620   0.473E+00    0.148E-01
DAV:   2    -0.132220784655E+03   -0.22595E-02   -0.27922E-02  2970   0.656E-01    0.938E-02
DAV:   3    -0.132220555840E+03    0.22881E-03   -0.56183E-04  3006   0.131E-01    0.678E-02
DAV:   4    -0.132220353927E+03    0.20191E-03   -0.53024E-04  2910   0.133E-01    0.314E-02
DAV:   5    -0.132220286046E+03    0.67880E-04   -0.22052E-04  2996   0.106E-01    0.313E-02
DAV:   6    -0.132220254739E+03    0.31307E-04   -0.18542E-04  2878   0.788E-02    0.149E-02
DAV:   7    -0.132220234566E+03    0.20173E-04   -0.65275E-05  2922   0.607E-02    0.144E-02
DAV:   8    -0.132220217770E+03    0.16797E-04   -0.21184E-05  2310   0.481E-02    0.139E-02
DAV:   9    -0.132220198525E+03    0.19245E-04   -0.15470E-05  2162   0.556E-02    0.774E-03
DAV:  10    -0.132220191005E+03    0.75199E-05   -0.30830E-05  2562   0.434E-02
   9 F= -.13222019E+03 E0= -.13221794E+03  d E =-.249393E-02
       N       E                     dE             d eps       ncg     rms          rms(c)
DAV:   1    -0.132220769508E+03   -0.57098E-03   -0.90018E-02  2628   0.123E+00    0.382E-02
DAV:   2    -0.132220930381E+03   -0.16087E-03   -0.18317E-03  2874   0.167E-01    0.240E-02
DAV:   3    -0.132220916596E+03    0.13785E-04   -0.25140E-05  2214   0.305E-02    0.165E-02
DAV:   4    -0.132220906713E+03    0.98826E-05   -0.43650E-05  2598   0.421E-02    0.690E-03
DAV:   5    -0.132220906487E+03    0.22668E-06   -0.17444E-05  1830   0.188E-02    0.678E-03
DAV:   6    -0.132220905777E+03    0.71011E-06   -0.17799E-06  1500   0.647E-03
  10 F= -.13222091E+03 E0= -.13221865E+03  d E =-.714772E-03
       N       E                     dE             d eps       ncg     rms          rms(c)
DAV:   1    -0.132221116525E+03   -0.21004E-03   -0.81002E-01  2620   0.370E+00    0.114E-01
DAV:   2    -0.132222542527E+03   -0.14260E-02   -0.16377E-02  2868   0.502E-01    0.697E-02
DAV:   3    -0.132222424609E+03    0.11792E-03   -0.26107E-04  3046   0.930E-02    0.484E-02
DAV:   4    -0.132222339082E+03    0.85527E-04   -0.30363E-04  2962   0.108E-01    0.229E-02
DAV:   5    -0.132222326770E+03    0.12312E-04   -0.13795E-04  3082   0.635E-02    0.219E-02
DAV:   6    -0.132222319216E+03    0.75534E-05   -0.39620E-05  2462   0.314E-02
  11 F= -.13222232E+03 E0= -.13222004E+03  d E =-.212821E-02
       N       E                     dE             d eps       ncg     rms          rms(c)
DAV:   1    -0.132216997308E+03    0.53295E-02   -0.32393E+00  2628   0.743E+00    0.228E-01
DAV:   2    -0.132222671827E+03   -0.56745E-02   -0.65532E-02  2868   0.102E+00    0.141E-01
DAV:   3    -0.132222186896E+03    0.48493E-03   -0.11379E-03  3030   0.193E-01    0.973E-02
DAV:   4    -0.132221830010E+03    0.35689E-03   -0.11216E-03  2980   0.208E-01    0.474E-02
DAV:   5    -0.132221754769E+03    0.75241E-04   -0.52550E-04  3160   0.136E-01    0.422E-02
DAV:   6    -0.132221712821E+03    0.41948E-04   -0.27087E-04  2890   0.919E-02    0.201E-02
DAV:   7    -0.132221683209E+03    0.29612E-04   -0.12566E-04  2936   0.874E-02    0.253E-02
DAV:   8    -0.132221665496E+03    0.17713E-04   -0.63753E-05  2942   0.517E-02    0.246E-02
DAV:   9    -0.132221645372E+03    0.20124E-04   -0.32808E-05  2602   0.440E-02    0.131E-02
DAV:  10    -0.132221630330E+03    0.15042E-04   -0.26554E-05  2442   0.481E-02    0.589E-03
DAV:  11    -0.132221621817E+03    0.85127E-05   -0.19488E-05  2116   0.465E-02
  12 F= -.13222162E+03 E0= -.13221927E+03  d E =-.143081E-02
       N       E                     dE             d eps       ncg     rms          rms(c)
DAV:   1    -0.132220860445E+03    0.76988E-03   -0.11877E+00  2620   0.452E+00    0.137E-01
DAV:   2    -0.132222916419E+03   -0.20560E-02   -0.23580E-02  2854   0.612E-01    0.837E-02
DAV:   3    -0.132222747879E+03    0.16854E-03   -0.37959E-04  3030   0.111E-01    0.580E-02
DAV:   4    -0.132222629207E+03    0.11867E-03   -0.44015E-04  2984   0.128E-01    0.272E-02
DAV:   5    -0.132222612879E+03    0.16329E-04   -0.18578E-04  3056   0.732E-02    0.250E-02
DAV:   6    -0.132222601620E+03    0.11259E-04   -0.61771E-05  2790   0.402E-02    0.132E-02
DAV:   7    -0.132222594175E+03    0.74451E-05   -0.35303E-05  2688   0.330E-02
  13 F= -.13222259E+03 E0= -.13222027E+03  d E =-.240317E-02
       N       E                     dE             d eps       ncg     rms          rms(c)
DAV:   1    -0.132223371357E+03   -0.76974E-03   -0.18721E-01  2636   0.182E+00    0.588E-02
DAV:   2    -0.132223692986E+03   -0.32163E-03   -0.38725E-03  2888   0.250E-01    0.309E-02
DAV:   3    -0.132223673292E+03    0.19693E-04   -0.87563E-05  3050   0.416E-02    0.215E-02
DAV:   4    -0.132223662358E+03    0.10935E-04   -0.22912E-05  1920   0.280E-02    0.119E-02
DAV:   5    -0.132223657843E+03    0.45150E-05   -0.23771E-05  2172   0.279E-02    0.677E-03
DAV:   6    -0.132223657374E+03    0.46876E-06   -0.75293E-06  1536   0.142E-02
  14 F= -.13222366E+03 E0= -.13222134E+03  d E =-.106320E-02
       N       E                     dE             d eps       ncg     rms          rms(c)
DAV:   1    -0.132222982324E+03    0.67552E-03   -0.16839E+00  2652   0.546E+00    0.167E-01
DAV:   2    -0.132225937271E+03   -0.29549E-02   -0.34703E-02  2888   0.741E-01    0.945E-02
DAV:   3    -0.132225743386E+03    0.19388E-03   -0.59605E-04  3108   0.111E-01    0.654E-02
DAV:   4    -0.132225624638E+03    0.11875E-03   -0.29791E-04  2970   0.902E-02    0.340E-02
DAV:   5    -0.132225589916E+03    0.34722E-04   -0.14273E-04  2926   0.656E-02    0.194E-02
DAV:   6    -0.132225580036E+03    0.98800E-05   -0.51931E-05  2816   0.416E-02
  15 F= -.13222558E+03 E0= -.13222327E+03  d E =-.298586E-02
       N       E                     dE             d eps       ncg     rms          rms(c)
DAV:   1    -0.132225234586E+03    0.35533E-03   -0.36668E-01  2636   0.255E+00    0.781E-02
DAV:   2    -0.132225879291E+03   -0.64471E-03   -0.76029E-03  2900   0.347E-01    0.446E-02
DAV:   3    -0.132225830657E+03    0.48634E-04   -0.11802E-04  3054   0.528E-02    0.313E-02
DAV:   4    -0.132225790374E+03    0.40284E-04   -0.80459E-05  2886   0.536E-02    0.157E-02
DAV:   5    -0.132225775272E+03    0.15102E-04   -0.44466E-05  2876   0.437E-02    0.108E-02
DAV:   6    -0.132225767696E+03    0.75761E-05   -0.22080E-05  2154   0.290E-02
  16 F= -.13222577E+03 E0= -.13222344E+03  d E =-.317352E-02
       N       E                     dE             d eps       ncg     rms          rms(c)
DAV:   1    -0.132226560662E+03   -0.78539E-03   -0.34215E-01  2620   0.246E+00    0.758E-02
DAV:   2    -0.132227212811E+03   -0.65215E-03   -0.72546E-03  2870   0.342E-01    0.446E-02
DAV:   3    -0.132227163826E+03    0.48985E-04   -0.97767E-05  3068   0.588E-02    0.305E-02
DAV:   4    -0.132227120262E+03    0.43564E-04   -0.10358E-04  2976   0.784E-02    0.140E-02
DAV:   5    -0.132227111761E+03    0.85011E-05   -0.76861E-05  2872   0.537E-02    0.138E-02
DAV:   6    -0.132227110830E+03    0.93118E-06   -0.19758E-05  1872   0.189E-02
  17 F= -.13222711E+03 E0= -.13222478E+03  d E =-.134313E-02
       N       E                     dE             d eps       ncg     rms          rms(c)
DAV:   1    -0.132224368901E+03    0.27429E-02   -0.25815E+00  2636   0.677E+00    0.210E-01
DAV:   2    -0.132229222348E+03   -0.48534E-02   -0.54878E-02  2900   0.940E-01    0.123E-01
DAV:   3    -0.132228822123E+03    0.40022E-03   -0.74740E-04  3092   0.165E-01    0.842E-02
DAV:   4    -0.132228464936E+03    0.35719E-03   -0.80202E-04  3150   0.224E-01    0.386E-02
DAV:   5    -0.132228393843E+03    0.71092E-04   -0.63635E-04  3006   0.157E-01    0.384E-02
DAV:   6    -0.132228385032E+03    0.88113E-05   -0.17098E-04  2768   0.543E-02    0.348E-02
DAV:   7    -0.132228378809E+03    0.62227E-05   -0.52176E-06  1566   0.965E-03
  18 F= -.13222838E+03 E0= -.13222608E+03  d E =-.261111E-02
       N       E                     dE             d eps       ncg     rms          rms(c)
DAV:   1    -0.132228845160E+03   -0.46013E-03   -0.45287E-01  2644   0.286E+00    0.967E-02
DAV:   2    -0.132229606770E+03   -0.76161E-03   -0.94774E-03  2906   0.402E-01    0.553E-02
DAV:   3    -0.132229541787E+03    0.64983E-04   -0.24353E-04  3026   0.813E-02    0.346E-02
DAV:   4    -0.132229505643E+03    0.36144E-04   -0.98295E-05  2928   0.521E-02    0.190E-02
DAV:   5    -0.132229489500E+03    0.16143E-04   -0.31053E-05  2672   0.447E-02    0.105E-02
DAV:   6    -0.132229481311E+03    0.81891E-05   -0.21649E-05  2280   0.476E-02
  19 F= -.13222948E+03 E0= -.13222724E+03  d E =-.110250E-02
       N       E                     dE             d eps       ncg     rms          rms(c)
DAV:   1    -0.132228642635E+03    0.84687E-03   -0.99285E-01  2676   0.423E+00    0.129E-01
DAV:   2    -0.132230409445E+03   -0.17668E-02   -0.20360E-02  2878   0.575E-01    0.737E-02
DAV:   3    -0.132230286951E+03    0.12249E-03   -0.35152E-04  3090   0.953E-02    0.487E-02
DAV:   4    -0.132230212458E+03    0.74493E-04   -0.24988E-04  2948   0.881E-02    0.236E-02
DAV:   5    -0.132230199305E+03    0.13153E-04   -0.89820E-05  2922   0.554E-02    0.160E-02
DAV:   6    -0.132230190793E+03    0.85119E-05   -0.35190E-05  2562   0.426E-02
  20 F= -.13223019E+03 E0= -.13222803E+03  d E =-.181198E-02
       N       E                     dE             d eps       ncg     rms          rms(c)
DAV:   1    -0.132230993499E+03   -0.79419E-03   -0.23160E-01  2668   0.202E+00    0.698E-02
DAV:   2    -0.132231377858E+03   -0.38436E-03   -0.53406E-03  2914   0.305E-01    0.412E-02
DAV:   3    -0.132231322185E+03    0.55673E-04   -0.21490E-04  3038   0.822E-02    0.325E-02
DAV:   4    -0.132231270748E+03    0.51437E-04   -0.57087E-05  2880   0.500E-02    0.184E-02
DAV:   5    -0.132231198808E+03    0.71939E-04   -0.58428E-05  2896   0.919E-02    0.123E-02
DAV:   6    -0.132231164166E+03    0.34643E-04   -0.60056E-05  2904   0.791E-02    0.103E-02
DAV:   7    -0.132231140112E+03    0.24054E-04   -0.63557E-05  2804   0.803E-02    0.877E-03
DAV:   8    -0.132231114056E+03    0.26056E-04   -0.10330E-05  1914   0.702E-02    0.532E-03
DAV:   9    -0.132231089661E+03    0.24395E-04   -0.30075E-05  2574   0.815E-02    0.377E-03
DAV:  10    -0.132231080582E+03    0.90792E-05   -0.34011E-05  2488   0.562E-02
  21 F= -.13223108E+03 E0= -.13222897E+03  d E =-.889789E-03
       N       E                     dE             d eps       ncg     rms          rms(c)
DAV:   1    -0.132231097424E+03   -0.77629E-05   -0.97049E-03  2714   0.416E-01    0.144E-02
DAV:   2    -0.132231114168E+03   -0.16744E-04   -0.24477E-04  2870   0.642E-02    0.103E-02
DAV:   3    -0.132231109935E+03    0.42337E-05   -0.55200E-06  1572   0.142E-02    0.750E-03
DAV:   4    -0.132231102028E+03    0.79068E-05   -0.10092E-05  1774   0.259E-02    0.396E-03
DAV:   5    -0.132231099597E+03    0.24305E-05   -0.55884E-06  1554   0.163E-02    0.443E-03
DAV:   6    -0.132231098042E+03    0.15550E-05   -0.32576E-06  1518   0.121E-02
  22 F= -.13223110E+03 E0= -.13222901E+03  d E =-.907249E-03
       N       E                     dE             d eps       ncg     rms          rms(c)
DAV:   1    -0.132231463137E+03   -0.36354E-03   -0.30553E-01  2644   0.233E+00    0.750E-02
DAV:   2    -0.132232073864E+03   -0.61073E-03   -0.70094E-03  2922   0.333E-01    0.457E-02
DAV:   3    -0.132232032112E+03    0.41752E-04   -0.11359E-04  2994   0.567E-02    0.344E-02
DAV:   4    -0.132231995881E+03    0.36231E-04   -0.15041E-04  2924   0.716E-02    0.141E-02
DAV:   5    -0.132231990953E+03    0.49279E-05   -0.55072E-05  2794   0.431E-02    0.162E-02
DAV:   6    -0.132231985663E+03    0.52899E-05   -0.20649E-05  1848   0.238E-02
  23 F= -.13223199E+03 E0= -.13222996E+03  d E =-.887620E-03
       N       E                     dE             d eps       ncg     rms          rms(c)
DAV:   1    -0.132231396615E+03    0.59434E-03   -0.57507E-01  2644   0.320E+00    0.101E-01
DAV:   2    -0.132232520407E+03   -0.11238E-02   -0.13039E-02  2904   0.457E-01    0.639E-02
DAV:   3    -0.132232427446E+03    0.92961E-04   -0.21095E-04  3050   0.826E-02    0.481E-02
DAV:   4    -0.132232329786E+03    0.97660E-04   -0.27583E-04  2912   0.108E-01    0.200E-02
DAV:   5    -0.132232302318E+03    0.27468E-04   -0.12956E-04  3012   0.728E-02    0.227E-02
DAV:   6    -0.132232285032E+03    0.17287E-04   -0.62223E-05  2756   0.401E-02    0.101E-02
DAV:   7    -0.132232249554E+03    0.35478E-04   -0.27446E-05  2450   0.533E-02    0.846E-03
DAV:   8    -0.132232223338E+03    0.26215E-04   -0.30629E-05  2542   0.633E-02    0.166E-02
DAV:   9    -0.132232209371E+03    0.13967E-04   -0.44351E-05  2642   0.472E-02    0.166E-02
DAV:  10    -0.132232180258E+03    0.29113E-04   -0.17581E-05  2238   0.676E-02    0.104E-02
DAV:  11    -0.132232143980E+03    0.36278E-04   -0.61581E-05  3272   0.122E-01    0.896E-03
DAV:  12    -0.132232137648E+03    0.63322E-05   -0.59963E-05  2828   0.493E-02
  24 F= -.13223214E+03 E0= -.13223018E+03  d E =-.103961E-02
       N       E                     dE             d eps       ncg     rms          rms(c)
DAV:   1    -0.132232114709E+03    0.29272E-04   -0.55993E-02  2748   0.100E+00    0.378E-02
DAV:   2    -0.132232223854E+03   -0.10914E-03   -0.13597E-03  2932   0.148E-01    0.188E-02
DAV:   3    -0.132232216089E+03    0.77645E-05   -0.27816E-05  2438   0.272E-02    0.143E-02
DAV:   4    -0.132232209616E+03    0.64736E-05   -0.21594E-05  2288   0.296E-02    0.555E-03
DAV:   5    -0.132232208070E+03    0.15461E-05   -0.98201E-06  1628   0.224E-02    0.573E-03
DAV:   6    -0.132232206824E+03    0.12459E-05   -0.43909E-06  1548   0.144E-02
  25 F= -.13223221E+03 E0= -.13223021E+03  d E =-.110878E-02
       N       E                     dE             d eps       ncg     rms          rms(c)
DAV:   1    -0.132232433897E+03   -0.22583E-03   -0.27025E-01  2692   0.220E+00    0.688E-02
DAV:   2    -0.132232913574E+03   -0.47968E-03   -0.58438E-03  2902   0.314E-01    0.424E-02
DAV:   3    -0.132232860993E+03    0.52581E-04   -0.11861E-04  3052   0.669E-02    0.308E-02
DAV:   4    -0.132232798951E+03    0.62043E-04   -0.91475E-05  2866   0.801E-02    0.141E-02
DAV:   5    -0.132232771236E+03    0.27715E-04   -0.67822E-05  2988   0.724E-02    0.138E-02
DAV:   6    -0.132232760144E+03    0.11092E-04   -0.55709E-05  2756   0.464E-02    0.765E-03
DAV:   7    -0.132232739526E+03    0.20617E-04   -0.90624E-06  1898   0.496E-02    0.518E-03
DAV:   8    -0.132232713196E+03    0.26331E-04   -0.33674E-05  2718   0.926E-02    0.112E-02
DAV:   9    -0.132232709772E+03    0.34234E-05   -0.43375E-05  2664   0.355E-02
  26 F= -.13223271E+03 E0= -.13223079E+03  d E =-.502948E-03
       N       E                     dE             d eps       ncg     rms          rms(c)
DAV:   1    -0.132232705646E+03    0.75494E-05   -0.54376E-03  2776   0.315E-01    0.107E-02
DAV:   2    -0.132232711665E+03   -0.60192E-05   -0.12600E-04  2876   0.504E-02    0.775E-03
DAV:   3    -0.132232708012E+03    0.36532E-05   -0.54687E-06  1590   0.150E-02    0.539E-03
DAV:   4    -0.132232703094E+03    0.49185E-05   -0.10285E-06  1664   0.177E-02    0.342E-03
DAV:   5    -0.132232694974E+03    0.81200E-05   -0.44303E-06  1866   0.376E-02    0.299E-03
DAV:   6    -0.132232693192E+03    0.17815E-05   -0.86200E-06  1684   0.205E-02
  27 F= -.13223269E+03 E0= -.13223078E+03  d E =-.486368E-03
       N       E                     dE             d eps       ncg     rms          rms(c)
DAV:   1    -0.132233044363E+03   -0.34939E-03   -0.31741E-02  2720   0.774E-01    0.279E-02
DAV:   2    -0.132233094382E+03   -0.50019E-04   -0.82831E-04  2960   0.127E-01    0.219E-02
DAV:   3    -0.132233081472E+03    0.12910E-04   -0.32808E-05  2646   0.329E-02    0.161E-02
DAV:   4    -0.132233068501E+03    0.12971E-04   -0.22622E-05  2204   0.291E-02    0.759E-03
DAV:   5    -0.132233060195E+03    0.83064E-05   -0.98255E-06  1890   0.304E-02    0.513E-03
DAV:   6    -0.132233053267E+03    0.69281E-05   -0.85605E-06  2016   0.362E-02
  28 F= -.13223305E+03 E0= -.13223117E+03  d E =-.360075E-03
       N       E                     dE             d eps       ncg     rms          rms(c)
DAV:   1    -0.132233096115E+03   -0.35921E-04   -0.12126E-02  2744   0.479E-01    0.172E-02
DAV:   2    -0.132233110507E+03   -0.14392E-04   -0.30736E-04  2954   0.774E-02    0.128E-02
DAV:   3    -0.132233102443E+03    0.80649E-05   -0.10508E-05  1776   0.218E-02    0.938E-03
DAV:   4    -0.132233089123E+03    0.13319E-04   -0.12847E-05  1964   0.309E-02    0.443E-03
DAV:   5    -0.132233081339E+03    0.77845E-05   -0.78248E-06  1726   0.263E-02    0.431E-03
DAV:   6    -0.132233072142E+03    0.91967E-05   -0.59747E-06  1860   0.350E-02
  29 F= -.13223307E+03 E0= -.13223121E+03  d E =-.378950E-03
       N       E                     dE             d eps       ncg     rms          rms(c)
DAV:   1    -0.132233319513E+03   -0.23817E-03   -0.35917E-02  2640   0.825E-01    0.323E-02
DAV:   2    -0.132233373896E+03   -0.54383E-04   -0.89372E-04  2924   0.128E-01    0.195E-02
DAV:   3    -0.132233359278E+03    0.14618E-04   -0.37605E-05  2836   0.375E-02    0.129E-02
DAV:   4    -0.132233345910E+03    0.13367E-04   -0.10167E-05  1762   0.284E-02    0.777E-03
DAV:   5    -0.132233327960E+03    0.17951E-04   -0.64509E-06  1924   0.411E-02    0.461E-03
DAV:   6    -0.132233306699E+03    0.21261E-04   -0.15988E-05  2210   0.616E-02    0.424E-03
DAV:   7    -0.132233291031E+03    0.15668E-04   -0.22434E-05  2422   0.620E-02    0.483E-03
DAV:   8    -0.132233274051E+03    0.16980E-04   -0.90834E-06  2046   0.760E-02    0.355E-03
DAV:   9    -0.132233269857E+03    0.41932E-05   -0.33450E-05  2620   0.534E-02
  30 F= -.13223327E+03 E0= -.13223148E+03  d E =-.197715E-03
       N       E                     dE             d eps       ncg     rms          rms(c)
DAV:   1    -0.132233287241E+03   -0.13191E-04   -0.33964E-03  2730   0.253E-01    0.118E-02
DAV:   2    -0.132233291792E+03   -0.45503E-05   -0.87883E-05  2854   0.380E-02    0.556E-03
DAV:   3    -0.132233290203E+03    0.15882E-05   -0.18979E-06  1572   0.102E-02    0.383E-03
DAV:   4    -0.132233288439E+03    0.17644E-05   -0.14901E-06  1548   0.130E-02    0.207E-03
DAV:   5    -0.132233286834E+03    0.16052E-05   -0.16247E-06  1576   0.137E-02    0.144E-03
DAV:   6    -0.132233284717E+03    0.21170E-05   -0.78346E-07  1598   0.155E-02
  31 F= -.13223328E+03 E0= -.13223151E+03  d E =-.212575E-03
       N       E                     dE             d eps       ncg     rms          rms(c)
DAV:   1    -0.132233492803E+03   -0.20597E-03   -0.54435E-02  2740   0.994E-01    0.338E-02
DAV:   2    -0.132233597592E+03   -0.10479E-03   -0.12493E-03  2906   0.142E-01    0.194E-02
DAV:   3    -0.132233587981E+03    0.96103E-05   -0.20547E-05  2090   0.269E-02    0.137E-02
DAV:   4    -0.132233580091E+03    0.78908E-05   -0.20440E-05  1984   0.305E-02    0.564E-03
DAV:   5    -0.132233578408E+03    0.16824E-05   -0.11048E-05  1578   0.204E-02    0.475E-03
DAV:   6    -0.132233577721E+03    0.68730E-06   -0.36401E-06  1536   0.106E-02
  32 F= -.13223358E+03 E0= -.13223187E+03  d E =-.293004E-03
       N       E                     dE             d eps       ncg     rms          rms(c)
DAV:   1    -0.132233412963E+03    0.16545E-03   -0.23963E-01  2708   0.209E+00    0.696E-02
DAV:   2    -0.132233855972E+03   -0.44301E-03   -0.54337E-03  2906   0.300E-01    0.413E-02
DAV:   3    -0.132233807802E+03    0.48170E-04   -0.10415E-04  3050   0.589E-02    0.296E-02
DAV:   4    -0.132233760622E+03    0.47180E-04   -0.69389E-05  2848   0.595E-02    0.152E-02
DAV:   5    -0.132233735103E+03    0.25519E-04   -0.39260E-05  2824   0.528E-02    0.111E-02
DAV:   6    -0.132233716818E+03    0.18285E-04   -0.24230E-05  2278   0.455E-02    0.599E-03
DAV:   7    -0.132233697573E+03    0.19246E-04   -0.11189E-05  1934   0.487E-02    0.665E-03
DAV:   8    -0.132233665716E+03    0.31857E-04   -0.14376E-05  2170   0.761E-02    0.681E-03
DAV:   9    -0.132233651673E+03    0.14043E-04   -0.32915E-05  2538   0.458E-02    0.507E-03
DAV:  10    -0.132233634811E+03    0.16862E-04   -0.11090E-05  1992   0.541E-02    0.571E-03
DAV:  11    -0.132233616353E+03    0.18458E-04   -0.23171E-05  2570   0.881E-02    0.741E-03
DAV:  12    -0.132233611194E+03    0.51590E-05   -0.43598E-05  2754   0.575E-02
  33 F= -.13223361E+03 E0= -.13223200E+03  d E =-.326477E-03
       N       E                     dE             d eps       ncg     rms          rms(c)
DAV:   1    -0.132233642425E+03   -0.26072E-04   -0.40929E-02  2784   0.863E-01    0.314E-02
DAV:   2    -0.132233715929E+03   -0.73504E-04   -0.95386E-04  2912   0.127E-01    0.166E-02
DAV:   3    -0.132233708478E+03    0.74509E-05   -0.26802E-05  2362   0.290E-02    0.120E-02
DAV:   4    -0.132233702764E+03    0.57133E-05   -0.10171E-05  1674   0.213E-02    0.612E-03
DAV:   5    -0.132233698529E+03    0.42354E-05   -0.68992E-06  1722   0.234E-02    0.394E-03
DAV:   6    -0.132233696740E+03    0.17891E-05   -0.55259E-06  1580   0.176E-02
  34 F= -.13223370E+03 E0= -.13223203E+03  d E =-.412023E-03
       N       E                     dE             d eps       ncg     rms          rms(c)
DAV:   1    -0.132233692015E+03    0.65134E-05   -0.58319E-03  2748   0.328E-01    0.109E-02
DAV:   2    -0.132233702555E+03   -0.10539E-04   -0.14499E-04  2868   0.498E-02    0.812E-03
DAV:   3    -0.132233700201E+03    0.23538E-05   -0.27251E-06  1566   0.107E-02    0.579E-03
DAV:   4    -0.132233695663E+03    0.45374E-05   -0.49905E-06  1676   0.184E-02    0.260E-03
DAV:   5    -0.132233694833E+03    0.83080E-06   -0.28648E-06  1534   0.939E-03    0.252E-03
DAV:   6    -0.132233694019E+03    0.81401E-06   -0.11553E-06  1500   0.791E-03
  35 F= -.13223369E+03 E0= -.13223201E+03  d E =-.409302E-03
       N       E                     dE             d eps       ncg     rms          rms(c)
DAV:   1    -0.132233808421E+03   -0.11359E-03   -0.27673E-02  2780   0.708E-01    0.266E-02
DAV:   2    -0.132233856520E+03   -0.48098E-04   -0.66936E-04  2914   0.109E-01    0.146E-02
DAV:   3    -0.132233849440E+03    0.70799E-05   -0.21203E-05  2124   0.266E-02    0.107E-02
DAV:   4    -0.132233842216E+03    0.72242E-05   -0.73852E-06  1716   0.221E-02    0.581E-03
DAV:   5    -0.132233836003E+03    0.62132E-05   -0.75048E-06  1810   0.294E-02    0.407E-03
DAV:   6    -0.132233833986E+03    0.20161E-05   -0.88901E-06  1586   0.222E-02
  36 F= -.13223383E+03 E0= -.13223220E+03  d E =-.139968E-03
       N       E                     dE             d eps       ncg     rms          rms(c)
DAV:   1    -0.132233849387E+03   -0.13385E-04   -0.30268E-02  2772   0.742E-01    0.257E-02
DAV:   2    -0.132233898781E+03   -0.49394E-04   -0.70129E-04  2914   0.113E-01    0.157E-02
DAV:   3    -0.132233889005E+03    0.97764E-05   -0.20404E-05  2044   0.290E-02    0.114E-02
DAV:   4    -0.132233877006E+03    0.11999E-04   -0.82890E-06  1804   0.292E-02    0.628E-03
DAV:   5    -0.132233867373E+03    0.96329E-05   -0.10163E-05  1894   0.367E-02    0.436E-03
DAV:   6    -0.132233862710E+03    0.46631E-05   -0.12902E-05  1966   0.344E-02
  37 F= -.13223386E+03 E0= -.13223227E+03  d E =-.168691E-03
       N       E                     dE             d eps       ncg     rms          rms(c)
DAV:   1    -0.132233964615E+03   -0.97243E-04   -0.14213E-02  2628   0.526E-01    0.220E-02
DAV:   2    -0.132233993573E+03   -0.28958E-04   -0.39499E-04  2932   0.854E-02    0.151E-02
DAV:   3    -0.132233989019E+03    0.45541E-05   -0.13141E-05  1756   0.179E-02    0.101E-02
DAV:   4    -0.132233985779E+03    0.32405E-05   -0.11086E-05  1642   0.154E-02    0.473E-03
DAV:   5    -0.132233984682E+03    0.10962E-05   -0.17827E-06  1590   0.120E-02    0.321E-03
DAV:   6    -0.132233982688E+03    0.19941E-05   -0.12692E-06  1824   0.273E-02
  38 F= -.13223398E+03 E0= -.13223244E+03  d E =-.119979E-03
       N       E                     dE             d eps       ncg     rms          rms(c)
DAV:   1    -0.132233966049E+03    0.18633E-04   -0.12766E-01  2604   0.156E+00    0.640E-02
DAV:   2    -0.132234179121E+03   -0.21307E-03   -0.29023E-03  2934   0.229E-01    0.322E-02
DAV:   3    -0.132234160649E+03    0.18472E-04   -0.93130E-05  3048   0.478E-02    0.224E-02
DAV:   4    -0.132234149152E+03    0.11497E-04   -0.36740E-05  2628   0.313E-02    0.153E-02
DAV:   5    -0.132234143949E+03    0.52032E-05   -0.85731E-06  1810   0.251E-02    0.851E-03
DAV:   6    -0.132234140144E+03    0.38051E-05   -0.55192E-06  1920   0.326E-02
  39 F= -.13223414E+03 E0= -.13223273E+03  d E =-.277435E-03
       N       E                     dE             d eps       ncg     rms          rms(c)
DAV:   1    -0.132234247511E+03   -0.10356E-03   -0.12160E-02  2660   0.479E-01    0.180E-02
DAV:   2    -0.132234269133E+03   -0.21622E-04   -0.27186E-04  2922   0.684E-02    0.105E-02
DAV:   3    -0.132234267054E+03    0.20788E-05   -0.66382E-06  1656   0.147E-02    0.669E-03
DAV:   4    -0.132234265946E+03    0.11083E-05   -0.44643E-06  1608   0.134E-02    0.356E-03
DAV:   5    -0.132234265804E+03    0.14175E-06   -0.20556E-06  1452   0.765E-03    0.228E-03
DAV:   6    -0.132234265623E+03    0.18058E-06   -0.56571E-07  1398   0.499E-03
  40 F= -.13223427E+03 E0= -.13223288E+03  d E =-.125479E-03
       N       E                     dE             d eps       ncg     rms          rms(c)
DAV:   1    -0.132234332018E+03   -0.66214E-04   -0.10868E-01  2644   0.143E+00    0.531E-02
DAV:   2    -0.132234513998E+03   -0.18198E-03   -0.23372E-03  2946   0.204E-01    0.279E-02
DAV:   3    -0.132234494366E+03    0.19632E-04   -0.61727E-05  3028   0.453E-02    0.185E-02
DAV:   4    -0.132234477642E+03    0.16724E-04   -0.22159E-05  2204   0.404E-02    0.113E-02
DAV:   5    -0.132234468657E+03    0.89856E-05   -0.15796E-05  1974   0.389E-02    0.667E-03
DAV:   6    -0.132234462398E+03    0.62587E-05   -0.12332E-05  2010   0.408E-02
  41 F= -.13223446E+03 E0= -.13223317E+03  d E =-.322254E-03
       N       E                     dE             d eps       ncg     rms          rms(c)
DAV:   1    -0.132234454443E+03    0.14213E-04   -0.80120E-03  2788   0.391E-01    0.148E-02
DAV:   2    -0.132234466939E+03   -0.12496E-04   -0.18728E-04  2976   0.598E-02    0.946E-03
DAV:   3    -0.132234463625E+03    0.33142E-05   -0.50325E-06  1624   0.147E-02    0.633E-03
DAV:   4    -0.132234458575E+03    0.50492E-05   -0.36140E-06  1782   0.220E-02    0.318E-03
DAV:   5    -0.132234456574E+03    0.20018E-05   -0.28093E-06  1596   0.168E-02    0.241E-03
DAV:   6    -0.132234452896E+03    0.36778E-05   -0.36631E-06  1816   0.417E-02
  42 F= -.13223445E+03 E0= -.13223319E+03  d E =-.312752E-03
       N       E                     dE             d eps       ncg     rms          rms(c)
DAV:   1    -0.132234529342E+03   -0.72768E-04   -0.21500E-02  2668   0.638E-01    0.230E-02
DAV:   2    -0.132234566802E+03   -0.37460E-04   -0.49433E-04  2946   0.946E-02    0.132E-02
DAV:   3    -0.132234562863E+03    0.39392E-05   -0.14473E-05  1900   0.198E-02    0.967E-03
DAV:   4    -0.132234559543E+03    0.33197E-05   -0.85021E-06  1680   0.161E-02    0.433E-03
DAV:   5    -0.132234558436E+03    0.11066E-05   -0.36952E-06  1666   0.130E-02    0.283E-03
DAV:   6    -0.132234557774E+03    0.66194E-06   -0.14648E-06  1622   0.118E-02
  43 F= -.13223456E+03 E0= -.13223333E+03  d E =-.104879E-03
       N       E                     dE             d eps       ncg     rms          rms(c)
DAV:   1    -0.132234567593E+03   -0.91562E-05   -0.10021E-02  2656   0.435E-01    0.151E-02
DAV:   2    -0.132234585837E+03   -0.18244E-04   -0.23445E-04  2940   0.645E-02    0.960E-03
DAV:   3    -0.132234583713E+03    0.21232E-05   -0.52806E-06  1610   0.127E-02    0.713E-03
DAV:   4    -0.132234581498E+03    0.22151E-05   -0.72080E-06  1772   0.153E-02    0.288E-03
DAV:   5    -0.132234581173E+03    0.32583E-06   -0.28353E-06  1542   0.941E-03    0.288E-03
DAV:   6    -0.132234581045E+03    0.12762E-06   -0.82549E-07  1506   0.457E-03
  44 F= -.13223458E+03 E0= -.13223337E+03  d E =-.128149E-03
       N       E                     dE             d eps       ncg     rms          rms(c)
DAV:   1    -0.132234622992E+03   -0.41820E-04   -0.71609E-03  2768   0.354E-01    0.116E-02
DAV:   2    -0.132234633841E+03   -0.10849E-04   -0.16177E-04  2860   0.534E-02    0.750E-03
DAV:   3    -0.132234631673E+03    0.21681E-05   -0.51254E-06  1642   0.135E-02    0.557E-03
DAV:   4    -0.132234629359E+03    0.23141E-05   -0.18606E-06  1636   0.112E-02    0.305E-03
DAV:   5    -0.132234627141E+03    0.22181E-05   -0.22142E-06  1722   0.170E-02    0.191E-03
DAV:   6    -0.132234625512E+03    0.16286E-05   -0.31608E-06  1756   0.251E-02
  45 F= -.13223463E+03 E0= -.13223342E+03  d E =-.444670E-04
