 vasp.5.3.5 31Mar14 (build Apr 08 2024 10:12:10) complex                        
  
 executed on             LinuxIFC date 2024.07.29  20:14:52
 running on    8 total cores
 distrk:  each k-point on    8 cores,    1 groups
 distr:  one band on NCORES_PER_BAND=   4 cores,    2 groups


--------------------------------------------------------------------------------------------------------


 INCAR:
 POTCAR:    PAW_PBE O 08Apr2002                   
 POTCAR:    PAW_PBE Mg 13Apr2007                  
 POTCAR:    PAW_PBE Al 04Jan2001                  
 POTCAR:    PAW_PBE O 08Apr2002                   
   VRHFIN =O: s2p4                                                              
   LEXCH  = PE                                                                  
   EATOM  =   432.3788 eV,   31.7789 Ry                                         
                                                                                
   TITEL  = PAW_PBE O 08Apr2002                                                 
   LULTRA =        F    use ultrasoft PP ?                                      
   IUNSCR =        1    unscreen: 0-lin 1-nonlin 2-no                           
   RPACOR =    1.200    partial core radius                                     
   POMASS =   16.000; ZVAL   =    6.000    mass and valenz                      
   RCORE  =    1.520    outmost cutoff radius                                   
   RWIGS  =    1.550; RWIGS  =    0.820    wigner-seitz radius (au A)           
   ENMAX  =  400.000; ENMIN  =  300.000 eV                                      
   ICORE  =        2    local potential                                         
   LCOR   =        T    correct aug charges                                     
   LPAW   =        T    paw PP                                                  
   EAUG   =  605.392                                                            
   DEXC   =    0.000                                                            
   RMAX   =    1.553    core radius for proj-oper                               
   RAUG   =    1.300    factor for augmentation sphere                          
   RDEP   =    1.550    radius for radial grids                                 
   RDEPT  =    1.329    core radius for aug-charge                              
                                                                                
   Atomic configuration                                                         
    4 entries                                                                   
     n  l   j            E        occ.                                          
     1  0  0.50      -514.6923   2.0000                                         
     2  0  0.50       -23.9615   2.0000                                         
     2  1  0.50        -9.0305   4.0000                                         
     3  2  1.50        -9.5241   0.0000                                         
   Description                                                                  
     l       E           TYP  RCUT    TYP  RCUT                                 
     0    -23.9615318     23  1.200                                             
     0     -9.5240782     23  1.200                                             
     1     -9.0304911     23  1.520                                             
     1      8.1634956     23  1.520                                             
     2     -9.5240782      7  1.500                                             
  local pseudopotential read in
  partial core-charges read in
  partial kinetic energy density read in
  kinetic energy density of atom read in
  atomic valenz-charges read in
  non local Contribution for L=           0  read in
    real space projection operators read in
  non local Contribution for L=           0  read in
    real space projection operators read in
  non local Contribution for L=           1  read in
    real space projection operators read in
  non local Contribution for L=           1  read in
    real space projection operators read in
    PAW grid and wavefunctions read in
 
   number of l-projection  operators is LMAX  =           4
   number of lm-projection operators is LMMAX =           8
 
 POTCAR:    PAW_PBE Mg 13Apr2007                  
   VRHFIN =Mg: s2p0                                                             
   LEXCH  = PE                                                                  
   EATOM  =    23.0369 eV,    1.6932 Ry                                         
                                                                                
   TITEL  = PAW_PBE Mg 13Apr2007                                                
   LULTRA =        F    use ultrasoft PP ?                                      
   IUNSCR =        1    unscreen: 0-lin 1-nonlin 2-no                           
   RPACOR =    1.500    partial core radius                                     
   POMASS =   24.305; ZVAL   =    2.000    mass and valenz                      
   RCORE  =    2.000    outmost cutoff radius                                   
   RWIGS  =    2.880; RWIGS  =    1.524    wigner-seitz radius (au A)           
   ENMAX  =  200.000; ENMIN  =  100.000 eV                                      
   RCLOC  =    1.506    cutoff for local pot                                    
   LCOR   =        T    correct aug charges                                     
   LPAW   =        T    paw PP                                                  
   EAUG   =  454.734                                                            
   DEXC   =    0.000                                                            
   RMAX   =    2.045    core radius for proj-oper                               
   RAUG   =    1.300    factor for augmentation sphere                          
   RDEP   =    2.025    radius for radial grids                                 
   RDEPT  =    1.942    core radius for aug-charge                              
                                                                                
   Atomic configuration                                                         
    6 entries                                                                   
     n  l   j            E        occ.                                          
     1  0  0.50     -1259.6230   2.0000                                         
     2  0  0.50       -79.8442   2.0000                                         
     2  1  1.50       -46.6121   6.0000                                         
     3  0  0.50        -4.7055   2.0000                                         
     3  1  0.50        -1.3660   0.0000                                         
     3  2  1.50        -1.3606   0.0000                                         
   Description                                                                  
     l       E           TYP  RCUT    TYP  RCUT                                 
     0     -4.7054661     23  2.000                                             
     0     27.2116520     23  2.000                                             
     1      1.3605826     23  2.000                                             
     1     27.2116520     23  2.000                                             
     2     -1.3605826     23  2.000                                             
  local pseudopotential read in
  partial core-charges read in
  partial kinetic energy density read in
  atomic valenz-charges read in
  non local Contribution for L=           0  read in
    real space projection operators read in
  non local Contribution for L=           0  read in
    real space projection operators read in
  non local Contribution for L=           1  read in
    real space projection operators read in
  non local Contribution for L=           1  read in
    real space projection operators read in
  non local Contribution for L=           2  read in
    real space projection operators read in
    PAW grid and wavefunctions read in
 
   number of l-projection  operators is LMAX  =           5
   number of lm-projection operators is LMMAX =          13
 
 POTCAR:    PAW_PBE Al 04Jan2001                  
   VRHFIN =Al: s2p1                                                             
   LEXCH  = PE                                                                  
   EATOM  =    53.5387 eV,    3.9350 Ry                                         
                                                                                
   TITEL  = PAW_PBE Al 04Jan2001                                                
   LULTRA =        F    use ultrasoft PP ?                                      
   IUNSCR =        1    unscreen: 0-lin 1-nonlin 2-no                           
   RPACOR =    1.500    partial core radius                                     
   POMASS =   26.981; ZVAL   =    3.000    mass and valenz                      
   RCORE  =    1.900    outmost cutoff radius                                   
   RWIGS  =    2.650; RWIGS  =    1.402    wigner-seitz radius (au A)           
   ENMAX  =  240.300; ENMIN  =  180.225 eV                                      
   ICORE  =        2    local potential                                         
   LCOR   =        T    correct aug charges                                     
   LPAW   =        T    paw PP                                                  
   EAUG   =  291.052                                                            
   DEXC   =    0.000                                                            
   RMAX   =    1.939    core radius for proj-oper                               
   RAUG   =    1.300    factor for augmentation sphere                          
   RDEP   =    1.966    radius for radial grids                                 
   RDEPT  =    1.856    core radius for aug-charge                              
                                                                                
   Atomic configuration                                                         
    6 entries                                                                   
     n  l   j            E        occ.                                          
     1  0  0.50     -1511.1048   2.0000                                         
     2  0  0.50      -108.1629   2.0000                                         
     2  1  1.50       -69.6402   6.0000                                         
     3  0  0.50        -7.7528   2.0000                                         
     3  1  1.50        -2.7121   1.0000                                         
     3  2  2.50        -2.7212   0.0000                                         
   Description                                                                  
     l       E           TYP  RCUT    TYP  RCUT                                 
     0     -7.7528455     23  1.900                                             
     0     -3.3096929     23  1.900                                             
     1     -2.7120682     23  1.900                                             
     1     13.6058260     23  1.900                                             
     2     -2.7211652      7  1.900                                             
  local pseudopotential read in
  partial core-charges read in
  partial kinetic energy density read in
  atomic valenz-charges read in
  non local Contribution for L=           0  read in
    real space projection operators read in
  non local Contribution for L=           0  read in
    real space projection operators read in
  non local Contribution for L=           1  read in
    real space projection operators read in
  non local Contribution for L=           1  read in
    real space projection operators read in
    PAW grid and wavefunctions read in
 
   number of l-projection  operators is LMAX  =           4
   number of lm-projection operators is LMMAX =           8
 

 ----------------------------------------------------------------------------- 
|                                                                             |
|  ADVICE TO THIS USER RUNNING 'VASP/VAMP'   (HEAR YOUR MASTER'S VOICE ...):  |
|                                                                             |
|      You have a (more or less) 'large supercell' and for larger cells       |
|      it might be more efficient to use real space projection opertators     |
|      So try LREAL= Auto  in the INCAR   file.                               |
|      Mind: At the moment your POTCAR file does not contain real space       |
|       projectors, and has to be modified,  BUT if you                       |
|      want to do an extremely  accurate calculation you might also keep the  |
|      reciprocal projection scheme          (i.e. LREAL=.FALSE.)             |
|                                                                             |
 ----------------------------------------------------------------------------- 

  PAW_PBE O 08Apr2002                   :
 energy of atom  1       EATOM= -432.3788
 kinetic energy error for atom=    0.0208 (will be added to EATOM!!)
  PAW_PBE Mg 13Apr2007                  :
 energy of atom  2       EATOM=  -23.0369
 kinetic energy error for atom=    0.0000 (will be added to EATOM!!)
  PAW_PBE Al 04Jan2001                  :
 energy of atom  3       EATOM=  -53.5387
 kinetic energy error for atom=    0.0002 (will be added to EATOM!!)
 
 
 POSCAR: Layer                                   
  positions in direct lattice
  velocities in cartesian coordinates
 exchange correlation table for  LEXCH =        8
   RHO(1)=    0.500       N(1)  =     2000
   RHO(2)=  100.500       N(2)  =     4000
 


--------------------------------------------------------------------------------------------------------


 ion  position               nearest neighbor table
   1  0.000  0.000  0.363-  14 2.13  14 2.13  14 2.13  17 2.13  17 2.13  17 2.13
   2  0.333  0.667  0.417-  14 2.13  14 2.13  14 2.13  11 2.13  11 2.13  11 2.13
   3  0.000  0.000  0.526-  15 2.13  15 2.13  15 2.13  18 2.13  18 2.13  18 2.13
   4  0.333  0.667  0.580-  12 2.13  12 2.13  12 2.13  15 2.13  15 2.13  15 2.13
   5  0.000  0.000  0.688-  16 2.13  16 2.13  16 2.13  19 2.13  19 2.13  19 2.13
   6  0.333  0.667  0.742-  16 2.13  16 2.13  16 2.13  13 2.16  13 2.16  13 2.16
   7  0.667  0.333  0.309-  17 2.13  17 2.13  17 2.13  10 2.16  10 2.16  10 2.16
   8  0.667  0.333  0.472-  11 2.13  11 2.13  11 2.13  18 2.13  18 2.13  18 2.13
   9  0.667  0.333  0.634-  19 2.13  19 2.13  19 2.13  12 2.13  12 2.13  12 2.13
  10  0.000  0.000  0.281-   7 2.16   7 2.16   7 2.16  17 3.07  17 3.07  17 3.07
  11  0.000  0.000  0.445-   2 2.13   2 2.13   2 2.13   8 2.13   8 2.13   8 2.13  14 3.03  14 3.03
                            14 3.03  18 3.03  18 3.03  18 3.03
  12  0.000  0.000  0.607-   4 2.13   4 2.13   4 2.13   9 2.13   9 2.13   9 2.13  19 3.03  19 3.03
                            19 3.03  15 3.03  15 3.03  15 3.03
  13  0.000  0.000  0.771-   6 2.16   6 2.16   6 2.16  16 3.07  16 3.07  16 3.07
  14  0.667  0.333  0.390-   2 2.13   2 2.13   2 2.13   1 2.13   1 2.13   1 2.13  11 3.03  11 3.03
                            11 3.03  17 3.03  17 3.03  17 3.03
  15  0.667  0.333  0.553-   3 2.13   3 2.13   3 2.13   4 2.13   4 2.13   4 2.13  12 3.03  12 3.03
                            12 3.03  18 3.03  18 3.03  18 3.03
  16  0.667  0.333  0.715-   6 2.13   6 2.13   6 2.13   5 2.13   5 2.13   5 2.13  19 3.03  19 3.03
                            19 3.03  13 3.07  13 3.07  13 3.07
  17  0.333  0.667  0.336-   7 2.13   7 2.13   7 2.13   1 2.13   1 2.13   1 2.13  14 3.03  14 3.03
                            14 3.03  10 3.07  10 3.07  10 3.07
  18  0.333  0.667  0.499-   8 2.13   8 2.13   8 2.13   3 2.13   3 2.13   3 2.13  11 3.03  11 3.03
                            11 3.03  15 3.03  15 3.03  15 3.03
  19  0.333  0.667  0.661-   9 2.13   9 2.13   9 2.13   5 2.13   5 2.13   5 2.13  12 3.03  12 3.03
                            12 3.03  16 3.03  16 3.03  16 3.03
  20  0.000  0.000  0.026-  23 2.86  23 2.86  23 2.86  25 2.86  25 2.86  25 2.86
  21  0.000  0.000  0.175-  22 2.87  22 2.87  22 2.87
  22  0.667  0.333  0.125-  23 2.86  23 2.86  23 2.86  21 2.87  21 2.87  21 2.87
  23  0.333  0.667  0.075-  20 2.86  20 2.86  20 2.86  22 2.86  22 2.86  22 2.86
  24  0.000  0.000  0.877-  26 2.87  26 2.87  26 2.87
  25  0.667  0.333  0.976-  20 2.86  20 2.86  20 2.86  26 2.86  26 2.86  26 2.86
  26  0.333  0.667  0.927-  25 2.86  25 2.86  25 2.86  24 2.87  24 2.87  24 2.87
 
  LATTYP: Found a hexagonal cell.
 ALAT       =     2.9929628358
 C/A-ratio  =    15.3445278253
  
  Lattice vectors:
  
 A1 = (   2.5919820457,  -1.4964810762,   0.0000000000)
 A2 = (   0.0000000000,   2.9929621524,   0.0000000000)
 A3 = (   0.0000000000,  -0.0000000000,  45.9256015140)


Analysis of symmetry for initial positions (statically):
=====================================================================
 Subroutine PRICEL returns:
 Original cell was already a primitive cell.
 

 Routine SETGRP: Setting up the symmetry group for a 
 hexagonal supercell.


 Subroutine GETGRP returns: Found  6 space group operations
 (whereof  6 operations were pure point group operations)
 out of a pool of 24 trial point group operations.


The static configuration has the point symmetry C_3v.


Analysis of symmetry for dynamics (positions and initial velocities):
=====================================================================
 Subroutine PRICEL returns:
 Original cell was already a primitive cell.
 

 Routine SETGRP: Setting up the symmetry group for a 
 hexagonal supercell.


 Subroutine GETGRP returns: Found  6 space group operations
 (whereof  6 operations were pure point group operations)
 out of a pool of 24 trial point group operations.


The dynamic configuration has the point symmetry C_3v.


Analysis of constrained symmetry for selective dynamics:
=====================================================================
 Subroutine PRICEL returns:
 Original cell was already a primitive cell.
 

 Routine SETGRP: Setting up the symmetry group for a 
 hexagonal supercell.


 Subroutine GETGRP returns: Found  6 space group operations
 (whereof  6 operations were pure point group operations)
 out of a pool of 24 trial point group operations.


The constrained configuration has the point symmetry C_3v.
 
 
 KPOINTS: K-Spacing Value to Generate K-Mesh: 0.02

Automatic generation of k-mesh.
Space group operators:
 irot       det(A)        alpha          n_x          n_y          n_z        tau_x        tau_y        tau_z
    1     1.000000     0.000000     1.000000     0.000000     0.000000     0.000000     0.000000     0.000000
    2     1.000000   120.000000    -0.000000     0.000000    -1.000000     0.000000     0.000000     0.000000
    3     1.000000   120.000000    -0.000000    -0.000000     1.000000     0.000000     0.000000     0.000000
    4    -1.000000   180.000000    -0.866025     0.500000     0.000000     0.000000     0.000000     0.000000
    5    -1.000000   180.000000     0.000000     1.000000     0.000000     0.000000     0.000000     0.000000
    6    -1.000000   180.000000    -0.866025    -0.500000    -0.000000     0.000000     0.000000     0.000000
 
 Subroutine IBZKPT returns following result:
 ===========================================
 
 Found     21 irreducible k-points:
 
 Following reciprocal coordinates:
            Coordinates               Weight
  0.000000  0.000000  0.000000      1.000000
  0.076923  0.000000  0.000000      6.000000
  0.153846  0.000000 -0.000000      6.000000
  0.230769  0.000000 -0.000000      6.000000
  0.307692 -0.000000  0.000000      6.000000
  0.384615  0.000000 -0.000000      6.000000
  0.461538  0.000000 -0.000000      6.000000
  0.076923  0.076923  0.000000      6.000000
  0.153846  0.076923  0.000000     12.000000
  0.230769  0.076923 -0.000000     12.000000
  0.307692  0.076923 -0.000000     12.000000
  0.384615  0.076923 -0.000000     12.000000
  0.461538  0.076923 -0.000000      6.000000
  0.153846  0.153846 -0.000000      6.000000
  0.230769  0.153846 -0.000000     12.000000
  0.307692  0.153846  0.000000     12.000000
  0.384615  0.153846  0.000000     12.000000
  0.230769  0.230769  0.000000      6.000000
  0.307692  0.230769  0.000000     12.000000
  0.384615  0.230769  0.000000      6.000000
  0.307692  0.307692 -0.000000      6.000000
 
 Following cartesian coordinates:
            Coordinates               Weight
  0.000000  0.000000  0.000000      1.000000
  0.029677 -0.000000 -0.000000      6.000000
  0.059355 -0.000000 -0.000000      6.000000
  0.089032 -0.000000 -0.000000      6.000000
  0.118709 -0.000000 -0.000000      6.000000
  0.148387 -0.000000 -0.000000      6.000000
  0.178064 -0.000000 -0.000000      6.000000
  0.044516  0.025701  0.000000      6.000000
  0.074193  0.025701  0.000000     12.000000
  0.103871  0.025701  0.000000     12.000000
  0.133548  0.025701  0.000000     12.000000
  0.163225  0.025701  0.000000     12.000000
  0.192903  0.025701  0.000000      6.000000
  0.089032  0.051403  0.000000      6.000000
  0.118709  0.051403  0.000000     12.000000
  0.148387  0.051403  0.000000     12.000000
  0.178064  0.051403  0.000000     12.000000
  0.133548  0.077104  0.000000      6.000000
  0.163225  0.077104  0.000000     12.000000
  0.192903  0.077104  0.000000      6.000000
  0.178064  0.102805  0.000000      6.000000
 


--------------------------------------------------------------------------------------------------------




 Dimension of arrays:
   k-points           NKPTS =     21   k-points in BZ     NKDIM =     21   number of bands    NBANDS=     62
   number of dos      NEDOS =    301   number of ions     NIONS =     26
   non local maximal  LDIM  =      5   non local SUM 2l+1 LMDIM =     13
   total plane-waves  NPLWV = 201600
   max r-space proj   IRMAX =      1   max aug-charges    IRDMAX= 192475
   dimension x,y,z NGX =    24 NGY =   24 NGZ =  350
   dimension x,y,z NGXF=    48 NGYF=   48 NGZF=  700
   support grid    NGXF=    96 NGYF=   96 NGZF= 1400
   ions per type =               9  10   7
 NGX,Y,Z   is equivalent  to a cutoff of  13.33, 13.33, 12.67 a.u.
 NGXF,Y,Z  is equivalent  to a cutoff of  26.66, 26.66, 25.34 a.u.


 I would recommend the setting:
   dimension x,y,z NGX =    22 NGY =   22 NGZ =  342
 SYSTEM =  unknown system                          
 POSCAR =  Layer                                   

 Startparameter for this run:
   NWRITE =      2    write-flag & timer
   PREC   = accura    normal or accurate (medium, high low for compatibility)
   ISTART =      0    job   : 0-new  1-cont  2-samecut
   ICHARG =      2    charge: 1-file 2-atom 10-const
   ISPIN  =      1    spin polarized calculation?
   LNONCOLLINEAR =      F non collinear calculations
   LSORBIT =      F    spin-orbit coupling
   INIWAV =      1    electr: 0-lowe 1-rand  2-diag
   LASPH  =      F    aspherical Exc in radial PAW
   METAGGA=      F    non-selfconsistent MetaGGA calc.

 Electronic Relaxation 1
   ENCUT  =  520.0 eV  38.22 Ry    6.18 a.u.   5.56  5.56 85.39*2*pi/ulx,y,z
   ENINI  =  520.0     initial cutoff
   ENAUG  =  605.4 eV  augmentation charge cutoff
   NELM   =    100;   NELMIN=  6; NELMDL=  0     # of ELM steps 
   EDIFF  = 0.1E-04   stopping-criterion for ELM
   LREAL  =      F    real-space projection
   NLSPLINE    = F    spline interpolate recip. space projectors
   LCOMPAT=      F    compatible to vasp.4.4
   GGA_COMPAT  = T    GGA compatible to vasp.4.4-vasp.4.6
   LMAXPAW     = -100 max onsite density
   LMAXMIX     =    2 max onsite mixed and CHGCAR
   VOSKOWN=      0    Vosko Wilk Nusair interpolation
   ROPT   =    0.00000   0.00000   0.00000
 Ionic relaxation
   EDIFFG = -.2E-01   stopping-criterion for IOM
   NSW    =    500    number of steps for IOM
   NBLOCK =      1;   KBLOCK =    500    inner block; outer block 
   IBRION =      2    ionic relax: 0-MD 1-quasi-New 2-CG
   NFREE  =      1    steps in history (QN), initial steepest desc. (CG)
   ISIF   =      2    stress and relaxation
   IWAVPR =     11    prediction:  0-non 1-charg 2-wave 3-comb
   ISYM   =      2    0-nonsym 1-usesym 2-fastsym
   LCORR  =      T    Harris-Foulkes like correction to forces

   POTIM  = 0.5000    time-step for ionic-motion
   TEIN   =    0.0    initial temperature
   TEBEG  =    0.0;   TEEND  =   0.0 temperature during run
   SMASS  =  -3.00    Nose mass-parameter (am)
   estimated Nose-frequenzy (Omega)   =  0.10E-29 period in steps =****** mass=  -0.205E-27a.u.
   SCALEE = 1.0000    scale energy and forces
   NPACO  =    256;   APACO  = 16.0  distance and # of slots for P.C.
   PSTRESS=    0.0 pullay stress

  Mass of Ions in am
   POMASS =  16.00 24.30 26.98
  Ionic Valenz
   ZVAL   =   6.00  2.00  3.00
  Atomic Wigner-Seitz radii
   RWIGS  =  -1.00 -1.00 -1.00
  virtual crystal weights 
   VCA    =   1.00  1.00  1.00
   NELECT =      95.0000    total number of electrons
   NUPDOWN=      -1.0000    fix difference up-down

 DOS related values:
   EMIN   =  10.00;   EMAX   =-10.00  energy-range for DOS
   EFERMI =   0.00
   ISMEAR =     0;   SIGMA  =   0.05  broadening in eV -4-tet -1-fermi 0-gaus

 Electronic relaxation 2 (details)
   IALGO  =     38    algorithm
   LDIAG  =      T    sub-space diagonalisation (order eigenvalues)
   LSUBROT=      F    optimize rotation matrix (better conditioning)
   TURBO    =      0    0=normal 1=particle mesh
   IRESTART =      0    0=no restart 2=restart with 2 vectors
   NREBOOT  =      0    no. of reboots
   NMIN     =      0    reboot dimension
   EREF     =   0.00    reference energy to select bands
   IMIX   =      4    mixing-type and parameters
     AMIX     =   0.40;   BMIX     =  1.00
     AMIX_MAG =   1.60;   BMIX_MAG =  1.00
     AMIN     =   0.01
     WC   =   100.;   INIMIX=   1;  MIXPRE=   1;  MAXMIX= -45

 Intra band minimization:
   WEIMIN = 0.0010     energy-eigenvalue tresh-hold
   EBREAK =  0.40E-07  absolut break condition
   DEPER  =   0.30     relativ break condition  

   TIME   =   0.40     timestep for ELM

  volume/ion in A,a.u.               =      13.70        92.47
  Fermi-wavevector in a.u.,A,eV,Ry     =   1.053707  1.991218 15.106538  1.110299
  Thomas-Fermi vector in A             =   2.188839
 
 Write flags
   LWAVE  =      F    write WAVECAR
   LCHARG =      T    write CHGCAR
   LVTOT  =      F    write LOCPOT, total local potential
   LVHAR  =      F    write LOCPOT, Hartree potential only
   LELF   =      F    write electronic localiz. function (ELF)
   LORBIT =      0    0 simple, 1 ext, 2 COOP (PROOUT)


 Dipole corrections
   LMONO  =      F    monopole corrections only (constant potential shift)
   LDIPOL =      F    correct potential (dipole corrections)
   IDIPOL =      0    1-x, 2-y, 3-z, 4-all directions 
   EPSILON=  1.0000000 bulk dielectric constant

 Exchange correlation treatment:
   GGA     =    --    GGA type
   LEXCH   =     8    internal setting for exchange type
   VOSKOWN=      0    Vosko Wilk Nusair interpolation
   LHFCALC =     F    Hartree Fock is set to
   LHFONE  =     F    Hartree Fock one center treatment
   AEXX    =    0.0000 exact exchange contribution

 Linear response parameters
   LEPSILON=     F    determine dielectric tensor
   LRPA    =     F    only Hartree local field effects (RPA)
   LNABLA  =     F    use nabla operator in PAW spheres
   LVEL    =     F    velocity operator in full k-point grid
   LINTERFAST=   F  fast interpolation
   KINTER  =     0    interpolate to denser k-point grid
   CSHIFT  =0.1000    complex shift for real part using Kramers Kronig
   OMEGAMAX=  -1.0    maximum frequency
   DEG_THRESHOLD= 0.2000000E-02 threshold for treating states as degnerate
   RTIME   =    0.100 relaxation time in fs

 Orbital magnetization related:
   ORBITALMAG=     F  switch on orbital magnetization
   LCHIMAG   =     F  perturbation theory with respect to B field
   DQ        =  0.001000  dq finite difference perturbation B field



--------------------------------------------------------------------------------------------------------


 conjugate gradient relaxation of ions
   using selective dynamics as specified on POSCAR
 charge density and potential will be updated during run
 non-spin polarized calculation
 Variant of blocked Davidson
 Davidson routine will perform the subspace rotation
 perform sub-space diagonalisation
    after iterative eigenvector-optimisation
 modified Broyden-mixing scheme, WC =      100.0
 initial mixing is a Kerker type mixing with AMIX =  0.4000 and BMIX =      1.0000
 Hartree-type preconditioning will be used
 using additional bands           14
 reciprocal scheme for non local part
 use partial core corrections
 calculate Harris-corrections to forces 
   (improved forces if not selfconsistent)
 use gradient corrections 
 use of overlap-Matrix (Vanderbilt PP)
 Gauss-broadening in eV      SIGMA  =   0.05


--------------------------------------------------------------------------------------------------------


  energy-cutoff  :      520.00
  volume of cell :      356.28
      direct lattice vectors                 reciprocal lattice vectors
     2.591982046 -1.496481076  0.000000000     0.385805142 -0.000000000 -0.000000000
     0.000000000  2.992962152  0.000000000     0.192902571  0.334117155  0.000000000
     0.000000000 -0.000000000 45.925601514     0.000000000  0.000000000  0.021774347

  length of vectors
     2.992962836  2.992962152 45.925601514     0.385805142  0.385805230  0.021774347


 
 k-points in units of 2pi/SCALE and weight: K-Spacing Value to Generate K-Mesh: 0.02
   0.00000000  0.00000000  0.00000000       0.006
   0.02967732 -0.00000000 -0.00000000       0.036
   0.05935464 -0.00000000 -0.00000000       0.036
   0.08903196 -0.00000000 -0.00000000       0.036
   0.11870927 -0.00000000 -0.00000000       0.036
   0.14838659 -0.00000000 -0.00000000       0.036
   0.17806391 -0.00000000 -0.00000000       0.036
   0.04451598  0.02570132  0.00000000       0.036
   0.07419330  0.02570132  0.00000000       0.071
   0.10387062  0.02570132  0.00000000       0.071
   0.13354793  0.02570132  0.00000000       0.071
   0.16322525  0.02570132  0.00000000       0.071
   0.19290257  0.02570132  0.00000000       0.036
   0.08903196  0.05140264  0.00000000       0.036
   0.11870927  0.05140264  0.00000000       0.071
   0.14838659  0.05140264  0.00000000       0.071
   0.17806391  0.05140264  0.00000000       0.071
   0.13354793  0.07710396  0.00000000       0.036
   0.16322525  0.07710396  0.00000000       0.071
   0.19290257  0.07710396  0.00000000       0.036
   0.17806391  0.10280528  0.00000000       0.036
 
 k-points in reciprocal lattice and weights: K-Spacing Value to Generate K-Mesh: 0.02
   0.00000000  0.00000000  0.00000000       0.006
   0.07692308  0.00000000  0.00000000       0.036
   0.15384615  0.00000000 -0.00000000       0.036
   0.23076923  0.00000000 -0.00000000       0.036
   0.30769231 -0.00000000  0.00000000       0.036
   0.38461538  0.00000000 -0.00000000       0.036
   0.46153846  0.00000000 -0.00000000       0.036
   0.07692308  0.07692308  0.00000000       0.036
   0.15384615  0.07692308  0.00000000       0.071
   0.23076923  0.07692308 -0.00000000       0.071
   0.30769231  0.07692308 -0.00000000       0.071
   0.38461538  0.07692308 -0.00000000       0.071
   0.46153846  0.07692308 -0.00000000       0.036
   0.15384615  0.15384615 -0.00000000       0.036
   0.23076923  0.15384615 -0.00000000       0.071
   0.30769231  0.15384615  0.00000000       0.071
   0.38461538  0.15384615  0.00000000       0.071
   0.23076923  0.23076923  0.00000000       0.036
   0.30769231  0.23076923  0.00000000       0.071
   0.38461538  0.23076923  0.00000000       0.036
   0.30769231  0.30769231 -0.00000000       0.036
 
 position of ions in fractional coordinates (direct lattice) 
   0.00000000  0.00000000  0.36336503
   0.33333300  0.66666700  0.41748761
   0.00000000  0.00000000  0.52579090
   0.33333300  0.66666700  0.57996970
   0.00000000  0.00000000  0.68823528
   0.33333300  0.66666700  0.74233863
   0.66666700  0.33333300  0.30923877
   0.66666700  0.33333300  0.47161935
   0.66666700  0.33333300  0.63409307
   0.00000000  0.00000000  0.28104907
   0.00000000  0.00000000  0.44455324
   0.00000000  0.00000000  0.60702501
   0.00000000  0.00000000  0.77055508
   0.66666700  0.33333300  0.39043297
   0.66666700  0.33333300  0.55287555
   0.66666700  0.33333300  0.71530969
   0.33333300  0.66666700  0.33627031
   0.33333300  0.66666700  0.49870002
   0.33333300  0.66666700  0.66115639
   0.00000000  0.00000000  0.02577905
   0.00000000  0.00000000  0.17495752
   0.66666700  0.33333300  0.12493839
   0.33333300  0.66666700  0.07529629
   0.00000000  0.00000000  0.87659804
   0.66666700  0.33333300  0.97626159
   0.33333300  0.66666700  0.92661845
 
 position of ions in cartesian coordinates  (Angst):
   0.00000000 -0.00000000 16.68775774
   0.86399315  1.49648257 19.17336962
   0.00000000 -0.00000000 24.14726347
   0.86399315  1.49648257 26.63545715
   0.00000000 -0.00000000 31.60761933
   0.86399315  1.49648257 34.09234816
   1.72798889 -0.00000150 14.20197661
   1.72798889 -0.00000150 21.65940235
   1.72798889 -0.00000150 29.12110570
   0.00000000 -0.00000000 12.90734780
   0.00000000 -0.00000000 20.41637476
   0.00000000 -0.00000000 27.87798879
   0.00000000 -0.00000000 35.38820544
   1.72798889 -0.00000150 17.93086886
   1.72798889 -0.00000150 25.39114220
   1.72798889 -0.00000150 32.85102759
   0.86399315  1.49648257 15.44341624
   0.86399315  1.49648257 22.90309844
   0.86399315  1.49648257 30.36400480
   0.00000000 -0.00000000  1.18391856
   0.00000000 -0.00000000  8.03502947
   1.72798889 -0.00000150  5.73787072
   0.86399315  1.49648257  3.45802728
   0.00000000 -0.00000000 40.25829232
   1.72798889 -0.00000150 44.83540061
   0.86399315  1.49648257 42.55550961
 


--------------------------------------------------------------------------------------------------------


 k-point  1 :   0.0000 0.0000 0.0000  plane waves:    9723
 k-point  2 :   0.0769 0.0000 0.0000  plane waves:    9725
 k-point  3 :   0.1538 0.0000-0.0000  plane waves:    9679
 k-point  4 :   0.2308 0.0000-0.0000  plane waves:    9646
 k-point  5 :   0.3077-0.0000 0.0000  plane waves:    9590
 k-point  6 :   0.3846 0.0000-0.0000  plane waves:    9536
 k-point  7 :   0.4615 0.0000-0.0000  plane waves:    9542
 k-point  8 :   0.0769 0.0769 0.0000  plane waves:    9701
 k-point  9 :   0.1538 0.0769 0.0000  plane waves:    9672
 k-point 10 :   0.2308 0.0769-0.0000  plane waves:    9615
 k-point 11 :   0.3077 0.0769-0.0000  plane waves:    9590
 k-point 12 :   0.3846 0.0769-0.0000  plane waves:    9542
 k-point 13 :   0.4615 0.0769-0.0000  plane waves:    9498
 k-point 14 :   0.1538 0.1538-0.0000  plane waves:    9637
 k-point 15 :   0.2308 0.1538-0.0000  plane waves:    9592
 k-point 16 :   0.3077 0.1538 0.0000  plane waves:    9570
 k-point 17 :   0.3846 0.1538 0.0000  plane waves:    9526
 k-point 18 :   0.2308 0.2308 0.0000  plane waves:    9586
 k-point 19 :   0.3077 0.2308 0.0000  plane waves:    9537
 k-point 20 :   0.3846 0.2308 0.0000  plane waves:    9574
 k-point 21 :   0.3077 0.3077-0.0000  plane waves:    9580

 maximum and minimum number of plane-waves per node :      2455     2363

 maximum number of plane-waves:      9725
 maximum index in each direction: 
   IXMAX=    5   IYMAX=    5   IZMAX=   85
   IXMIN=   -6   IYMIN=   -5   IZMIN=  -85

 NGX is ok and might be reduce to  24
 NGY is ok and might be reduce to  22
 NGZ is ok and might be reduce to 342

 parallel 3D FFT for wavefunctions:
    minimum data exchange during FFTs selected (reduces bandwidth)
 parallel 3D FFT for charge:
    minimum data exchange during FFTs selected (reduces bandwidth)


 total amount of memory used by VASP on root node   157623. kBytes
========================================================================

   base      :      30000. kBytes
   nonl-proj :      16946. kBytes
   fftplans  :      60348. kBytes
   grid      :      24192. kBytes
   one-center:         56. kBytes
   wavefun   :      26081. kBytes
 
     INWAV:  cpu time    0.00: real time    0.00
 Broyden mixing: mesh for mixing (old mesh)
   NGX = 11   NGY = 11   NGZ =171
  (NGX  = 48   NGY  = 48   NGZ  =700)
  gives a total of  20691 points

 initial charge density was supplied:
 charge density of overlapping atoms calculated
 number of electron      95.0000000 magnetization 
 keeping initial charge density in first step


--------------------------------------------------------------------------------------------------------


 Maximum index for augmentation-charges        23161 (set IRDMAX)


--------------------------------------------------------------------------------------------------------


 First call to EWALD:  gamma=   0.250
 Maximum number of real-space cells 7x 7x 1
 Maximum number of reciprocal cells 1x 1x15

 FEWALD executed in parallel
    FEWALD:  cpu time    0.00: real time    0.00


----------------------------------------- Iteration    1(   1)  ---------------------------------------


    POTLOK:  cpu time    0.11: real time    0.11
    SETDIJ:  cpu time    0.11: real time    0.11
     EDDAV:  cpu time    4.78: real time    4.81
       DOS:  cpu time    0.00: real time    0.00
    --------------------------------------------
      LOOP:  cpu time    5.00: real time    5.04

 eigenvalue-minimisations  :  2628
 total energy-change (2. order) : 0.5015186E+03  (-0.4096153E+04)
 number of electron      95.0000000 magnetization 
 augmentation part       95.0000000 magnetization 

 Free energy of the ion-electron system (eV)
  ---------------------------------------------------
  alpha Z        PSCENC =       113.49079489
  Ewald energy   TEWEN  =     22049.76727708
  -Hartree energ DENC   =    -26697.82648425
  -exchange      EXHF   =         0.00000000
  -V(xc)+E(xc)   XCENC  =      -419.51774061
  PAW double counting   =      4235.41334458    -3509.29226066
  entropy T*S    EENTRO =        -0.00710287
  eigenvalues    EBANDS =       233.13110546
  atomic energy  EATOM  =      4496.35971583
  ---------------------------------------------------
  free energy    TOTEN  =       501.51864943 eV

  energy without entropy =      501.52575230  energy(sigma->0) =      501.52220086


--------------------------------------------------------------------------------------------------------




----------------------------------------- Iteration    1(   2)  ---------------------------------------


     EDDAV:  cpu time    5.59: real time    5.60
       DOS:  cpu time    0.00: real time    0.00
    --------------------------------------------
      LOOP:  cpu time    5.59: real time    5.60

 eigenvalue-minimisations  :  3382
 total energy-change (2. order) :-0.5855101E+03  (-0.5536376E+03)
 number of electron      95.0000000 magnetization 
 augmentation part       95.0000000 magnetization 

 Free energy of the ion-electron system (eV)
  ---------------------------------------------------
  alpha Z        PSCENC =       113.49079489
  Ewald energy   TEWEN  =     22049.76727708
  -Hartree energ DENC   =    -26697.82648425
  -exchange      EXHF   =         0.00000000
  -V(xc)+E(xc)   XCENC  =      -419.51774061
  PAW double counting   =      4235.41334458    -3509.29226066
  entropy T*S    EENTRO =        -0.00601320
  eigenvalues    EBANDS =      -352.38010473
  atomic energy  EATOM  =      4496.35971583
  ---------------------------------------------------
  free energy    TOTEN  =       -83.99147109 eV

  energy without entropy =      -83.98545789  energy(sigma->0) =      -83.98846449


--------------------------------------------------------------------------------------------------------




----------------------------------------- Iteration    1(   3)  ---------------------------------------


     EDDAV:  cpu time    5.22: real time    5.23
       DOS:  cpu time    0.00: real time    0.00
    --------------------------------------------
      LOOP:  cpu time    5.23: real time    5.23

 eigenvalue-minimisations  :  3058
 total energy-change (2. order) :-0.6309145E+02  (-0.6266879E+02)
 number of electron      95.0000000 magnetization 
 augmentation part       95.0000000 magnetization 

 Free energy of the ion-electron system (eV)
  ---------------------------------------------------
  alpha Z        PSCENC =       113.49079489
  Ewald energy   TEWEN  =     22049.76727708
  -Hartree energ DENC   =    -26697.82648425
  -exchange      EXHF   =         0.00000000
  -V(xc)+E(xc)   XCENC  =      -419.51774061
  PAW double counting   =      4235.41334458    -3509.29226066
  entropy T*S    EENTRO =        -0.00708416
  eigenvalues    EBANDS =      -415.47048164
  atomic energy  EATOM  =      4496.35971583
  ---------------------------------------------------
  free energy    TOTEN  =      -147.08291896 eV

  energy without entropy =     -147.07583480  energy(sigma->0) =     -147.07937688


--------------------------------------------------------------------------------------------------------




----------------------------------------- Iteration    1(   4)  ---------------------------------------


     EDDAV:  cpu time    5.19: real time    5.20
       DOS:  cpu time    0.00: real time    0.00
    --------------------------------------------
      LOOP:  cpu time    5.19: real time    5.20

 eigenvalue-minimisations  :  3074
 total energy-change (2. order) :-0.1167768E+01  (-0.1164911E+01)
 number of electron      95.0000000 magnetization 
 augmentation part       95.0000000 magnetization 

 Free energy of the ion-electron system (eV)
  ---------------------------------------------------
  alpha Z        PSCENC =       113.49079489
  Ewald energy   TEWEN  =     22049.76727708
  -Hartree energ DENC   =    -26697.82648425
  -exchange      EXHF   =         0.00000000
  -V(xc)+E(xc)   XCENC  =      -419.51774061
  PAW double counting   =      4235.41334458    -3509.29226066
  entropy T*S    EENTRO =        -0.00682847
  eigenvalues    EBANDS =      -416.63850520
  atomic energy  EATOM  =      4496.35971583
  ---------------------------------------------------
  free energy    TOTEN  =      -148.25068683 eV

  energy without entropy =     -148.24385836  energy(sigma->0) =     -148.24727260


--------------------------------------------------------------------------------------------------------




----------------------------------------- Iteration    1(   5)  ---------------------------------------


     EDDAV:  cpu time    5.37: real time    5.37
       DOS:  cpu time    0.00: real time    0.00
    CHARGE:  cpu time    0.42: real time    0.42
    MIXING:  cpu time    0.00: real time    0.00
    --------------------------------------------
      LOOP:  cpu time    5.79: real time    5.80

 eigenvalue-minimisations  :  3194
 total energy-change (2. order) :-0.2710969E-01  (-0.2709133E-01)
 number of electron      95.0000001 magnetization 
 augmentation part        6.9243249 magnetization 

 Broyden mixing:
  rms(total) = 0.22121E+01    rms(broyden)= 0.22116E+01
  rms(prec ) = 0.22908E+01
  weight for this iteration     100.00

 Free energy of the ion-electron system (eV)
  ---------------------------------------------------
  alpha Z        PSCENC =       113.49079489
  Ewald energy   TEWEN  =     22049.76727708
  -Hartree energ DENC   =    -26697.82648425
  -exchange      EXHF   =         0.00000000
  -V(xc)+E(xc)   XCENC  =      -419.51774061
  PAW double counting   =      4235.41334458    -3509.29226066
  entropy T*S    EENTRO =        -0.00683153
  eigenvalues    EBANDS =      -416.66561184
  atomic energy  EATOM  =      4496.35971583
  ---------------------------------------------------
  free energy    TOTEN  =      -148.27779652 eV

  energy without entropy =     -148.27096499  energy(sigma->0) =     -148.27438076


--------------------------------------------------------------------------------------------------------




----------------------------------------- Iteration    1(   6)  ---------------------------------------


    POTLOK:  cpu time    0.11: real time    0.11
    SETDIJ:  cpu time    0.11: real time    0.11
     EDDAV:  cpu time    5.01: real time    5.01
       DOS:  cpu time    0.00: real time    0.00
    CHARGE:  cpu time    0.41: real time    0.41
    MIXING:  cpu time    0.00: real time    0.00
    --------------------------------------------
      LOOP:  cpu time    5.65: real time    5.65

 eigenvalue-minimisations  :  2910
 total energy-change (2. order) : 0.1585484E+02  (-0.8729257E+01)
 number of electron      95.0000001 magnetization 
 augmentation part        5.6173971 magnetization 

 Broyden mixing:
  rms(total) = 0.73339E+00    rms(broyden)= 0.73242E+00
  rms(prec ) = 0.74016E+00
  weight for this iteration     100.00

 eigenvalues of (default mixing * dielectric matrix)
  average eigenvalue GAMMA=   0.8486
  0.8486

 Free energy of the ion-electron system (eV)
  ---------------------------------------------------
  alpha Z        PSCENC =       113.49079489
  Ewald energy   TEWEN  =     22049.76727708
  -Hartree energ DENC   =    -26874.49693923
  -exchange      EXHF   =         0.00000000
  -V(xc)+E(xc)   XCENC  =      -407.31599437
  PAW double counting   =      5042.80286443    -4319.83910487
  entropy T*S    EENTRO =        -0.00265809
  eigenvalues    EBANDS =      -233.18891581
  atomic energy  EATOM  =      4496.35971583
  ---------------------------------------------------
  free energy    TOTEN  =      -132.42296014 eV

  energy without entropy =     -132.42030205  energy(sigma->0) =     -132.42163110


--------------------------------------------------------------------------------------------------------




----------------------------------------- Iteration    1(   7)  ---------------------------------------


    POTLOK:  cpu time    0.11: real time    0.11
    SETDIJ:  cpu time    0.11: real time    0.11
     EDDAV:  cpu time    5.03: real time    5.04
       DOS:  cpu time    0.00: real time    0.00
    CHARGE:  cpu time    0.41: real time    0.41
    MIXING:  cpu time    0.00: real time    0.00
    --------------------------------------------
      LOOP:  cpu time    5.66: real time    5.67

 eigenvalue-minimisations  :  2928
 total energy-change (2. order) : 0.9195152E-01  (-0.1900166E+00)
 number of electron      95.0000001 magnetization 
 augmentation part        5.6530465 magnetization 

 Broyden mixing:
  rms(total) = 0.44967E+00    rms(broyden)= 0.44966E+00
  rms(prec ) = 0.45412E+00
  weight for this iteration     100.00

 eigenvalues of (default mixing * dielectric matrix)
  average eigenvalue GAMMA=   1.6443
  0.9816  2.3069

 Free energy of the ion-electron system (eV)
  ---------------------------------------------------
  alpha Z        PSCENC =       113.49079489
  Ewald energy   TEWEN  =     22049.76727708
  -Hartree energ DENC   =    -26875.65161178
  -exchange      EXHF   =         0.00000000
  -V(xc)+E(xc)   XCENC  =      -406.86520879
  PAW double counting   =      5329.63969660    -4606.25608389
  entropy T*S    EENTRO =        -0.00483106
  eigenvalues    EBANDS =      -232.81075750
  atomic energy  EATOM  =      4496.35971583
  ---------------------------------------------------
  free energy    TOTEN  =      -132.33100862 eV

  energy without entropy =     -132.32617756  energy(sigma->0) =     -132.32859309


--------------------------------------------------------------------------------------------------------




----------------------------------------- Iteration    1(   8)  ---------------------------------------


    POTLOK:  cpu time    0.11: real time    0.11
    SETDIJ:  cpu time    0.11: real time    0.11
     EDDAV:  cpu time    5.02: real time    5.03
       DOS:  cpu time    0.00: real time    0.00
    CHARGE:  cpu time    0.41: real time    0.41
    MIXING:  cpu time    0.00: real time    0.00
    --------------------------------------------
      LOOP:  cpu time    5.65: real time    5.66

 eigenvalue-minimisations  :  2994
 total energy-change (2. order) : 0.9405986E-01  (-0.4363802E-01)
 number of electron      95.0000001 magnetization 
 augmentation part        5.6902957 magnetization 

 Broyden mixing:
  rms(total) = 0.78316E-01    rms(broyden)= 0.78286E-01
  rms(prec ) = 0.10129E+00
  weight for this iteration     100.00

 eigenvalues of (default mixing * dielectric matrix)
  average eigenvalue GAMMA=   1.3613
  2.4218  0.9468  0.7153

 Free energy of the ion-electron system (eV)
  ---------------------------------------------------
  alpha Z        PSCENC =       113.49079489
  Ewald energy   TEWEN  =     22049.76727708
  -Hartree energ DENC   =    -26885.60463600
  -exchange      EXHF   =         0.00000000
  -V(xc)+E(xc)   XCENC  =      -405.45577305
  PAW double counting   =      5819.75755521    -5096.08962278
  entropy T*S    EENTRO =        -0.00383201
  eigenvalues    EBANDS =      -224.45842792
  atomic energy  EATOM  =      4496.35971583
  ---------------------------------------------------
  free energy    TOTEN  =      -132.23694876 eV

  energy without entropy =     -132.23311675  energy(sigma->0) =     -132.23503275


--------------------------------------------------------------------------------------------------------




----------------------------------------- Iteration    1(   9)  ---------------------------------------


    POTLOK:  cpu time    0.11: real time    0.11
    SETDIJ:  cpu time    0.10: real time    0.10
     EDDAV:  cpu time    5.09: real time    5.09
       DOS:  cpu time    0.00: real time    0.00
    CHARGE:  cpu time    0.43: real time    0.43
    MIXING:  cpu time    0.01: real time    0.01
    --------------------------------------------
      LOOP:  cpu time    5.74: real time    5.75

 eigenvalue-minimisations  :  2936
 total energy-change (2. order) : 0.2322966E-01  (-0.5909479E-02)
 number of electron      95.0000001 magnetization 
 augmentation part        5.6743207 magnetization 

 Broyden mixing:
  rms(total) = 0.39596E-01    rms(broyden)= 0.39594E-01
  rms(prec ) = 0.41830E-01
  weight for this iteration     100.00

 eigenvalues of (default mixing * dielectric matrix)
  average eigenvalue GAMMA=   1.4175
  2.5179  1.4584  0.9796  0.7142

 Free energy of the ion-electron system (eV)
  ---------------------------------------------------
  alpha Z        PSCENC =       113.49079489
  Ewald energy   TEWEN  =     22049.76727708
  -Hartree energ DENC   =    -26889.58434247
  -exchange      EXHF   =         0.00000000
  -V(xc)+E(xc)   XCENC  =      -405.12249869
  PAW double counting   =      5846.59936214    -5122.96095785
  entropy T*S    EENTRO =        -0.00481666
  eigenvalues    EBANDS =      -220.75825337
  atomic energy  EATOM  =      4496.35971583
  ---------------------------------------------------
  free energy    TOTEN  =      -132.21371910 eV

  energy without entropy =     -132.20890243  energy(sigma->0) =     -132.21131076


--------------------------------------------------------------------------------------------------------




----------------------------------------- Iteration    1(  10)  ---------------------------------------


    POTLOK:  cpu time    0.12: real time    0.12
    SETDIJ:  cpu time    0.11: real time    0.11
     EDDAV:  cpu time    5.25: real time    5.26
       DOS:  cpu time    0.00: real time    0.00
    CHARGE:  cpu time    0.41: real time    0.41
    MIXING:  cpu time    0.01: real time    0.01
    --------------------------------------------
      LOOP:  cpu time    5.90: real time    5.90

 eigenvalue-minimisations  :  3038
 total energy-change (2. order) :-0.9032973E-03  (-0.3032194E-02)
 number of electron      95.0000001 magnetization 
 augmentation part        5.6561448 magnetization 

 Broyden mixing:
  rms(total) = 0.27412E-01    rms(broyden)= 0.27403E-01
  rms(prec ) = 0.29140E-01
  weight for this iteration     100.00

 eigenvalues of (default mixing * dielectric matrix)
  average eigenvalue GAMMA=   1.3518
  2.5193  1.9186  0.9392  0.6909  0.6909

 Free energy of the ion-electron system (eV)
  ---------------------------------------------------
  alpha Z        PSCENC =       113.49079489
  Ewald energy   TEWEN  =     22049.76727708
  -Hartree energ DENC   =    -26893.22919692
  -exchange      EXHF   =         0.00000000
  -V(xc)+E(xc)   XCENC  =      -404.87196905
  PAW double counting   =      5825.34579967    -5101.74997041
  entropy T*S    EENTRO =        -0.00474542
  eigenvalues    EBANDS =      -217.32232805
  atomic energy  EATOM  =      4496.35971583
  ---------------------------------------------------
  free energy    TOTEN  =      -132.21462239 eV

  energy without entropy =     -132.20987698  energy(sigma->0) =     -132.21224968


--------------------------------------------------------------------------------------------------------




----------------------------------------- Iteration    1(  11)  ---------------------------------------


    POTLOK:  cpu time    0.11: real time    0.11
    SETDIJ:  cpu time    0.11: real time    0.11
     EDDAV:  cpu time    5.53: real time    5.54
       DOS:  cpu time    0.00: real time    0.00
    CHARGE:  cpu time    0.41: real time    0.41
    MIXING:  cpu time    0.01: real time    0.01
    --------------------------------------------
      LOOP:  cpu time    6.16: real time    6.17

 eigenvalue-minimisations  :  3346
 total energy-change (2. order) : 0.5511485E-03  (-0.2074686E-03)
 number of electron      95.0000001 magnetization 
 augmentation part        5.6588635 magnetization 

 Broyden mixing:
  rms(total) = 0.16009E-01    rms(broyden)= 0.16009E-01
  rms(prec ) = 0.18183E-01
  weight for this iteration     100.00

 eigenvalues of (default mixing * dielectric matrix)
  average eigenvalue GAMMA=   1.4737
  2.9537  2.4566  0.9490  0.7430  0.8701  0.8701

 Free energy of the ion-electron system (eV)
  ---------------------------------------------------
  alpha Z        PSCENC =       113.49079489
  Ewald energy   TEWEN  =     22049.76727708
  -Hartree energ DENC   =    -26893.46722180
  -exchange      EXHF   =         0.00000000
  -V(xc)+E(xc)   XCENC  =      -404.87683760
  PAW double counting   =      5801.58654621    -5077.99210745
  entropy T*S    EENTRO =        -0.00475649
  eigenvalues    EBANDS =      -217.07748191
  atomic energy  EATOM  =      4496.35971583
  ---------------------------------------------------
  free energy    TOTEN  =      -132.21407124 eV

  energy without entropy =     -132.20931476  energy(sigma->0) =     -132.21169300


--------------------------------------------------------------------------------------------------------




----------------------------------------- Iteration    1(  12)  ---------------------------------------


    POTLOK:  cpu time    0.11: real time    0.11
    SETDIJ:  cpu time    0.10: real time    0.10
     EDDAV:  cpu time    6.01: real time    6.02
       DOS:  cpu time    0.00: real time    0.00
    CHARGE:  cpu time    0.41: real time    0.41
    MIXING:  cpu time    0.01: real time    0.01
    --------------------------------------------
      LOOP:  cpu time    6.65: real time    6.66

 eigenvalue-minimisations  :  3648
 total energy-change (2. order) : 0.6424623E-03  (-0.1771106E-03)
 number of electron      95.0000001 magnetization 
 augmentation part        5.6609031 magnetization 

 Broyden mixing:
  rms(total) = 0.48094E-02    rms(broyden)= 0.48065E-02
  rms(prec ) = 0.91306E-02
  weight for this iteration     100.00

 eigenvalues of (default mixing * dielectric matrix)
  average eigenvalue GAMMA=   1.4193
  2.8233  2.5302  1.0442  1.0442  0.9087  0.9087  0.6758

 Free energy of the ion-electron system (eV)
  ---------------------------------------------------
  alpha Z        PSCENC =       113.49079489
  Ewald energy   TEWEN  =     22049.76727708
  -Hartree energ DENC   =    -26894.43062558
  -exchange      EXHF   =         0.00000000
  -V(xc)+E(xc)   XCENC  =      -404.86001283
  PAW double counting   =      5774.93155145    -5051.34397791
  entropy T*S    EENTRO =        -0.00466751
  eigenvalues    EBANDS =      -216.12348420
  atomic energy  EATOM  =      4496.35971583
  ---------------------------------------------------
  free energy    TOTEN  =      -132.21342878 eV

  energy without entropy =     -132.20876127  energy(sigma->0) =     -132.21109503


--------------------------------------------------------------------------------------------------------




----------------------------------------- Iteration    1(  13)  ---------------------------------------


    POTLOK:  cpu time    0.11: real time    0.11
    SETDIJ:  cpu time    0.11: real time    0.11
     EDDAV:  cpu time    5.18: real time    5.18
       DOS:  cpu time    0.00: real time    0.00
    CHARGE:  cpu time    0.42: real time    0.42
    MIXING:  cpu time    0.01: real time    0.01
    --------------------------------------------
      LOOP:  cpu time    5.82: real time    5.83

 eigenvalue-minimisations  :  3044
 total energy-change (2. order) : 0.3522067E-03  (-0.5270415E-04)
 number of electron      95.0000001 magnetization 
 augmentation part        5.6613661 magnetization 

 Broyden mixing:
  rms(total) = 0.29266E-02    rms(broyden)= 0.29261E-02
  rms(prec ) = 0.77194E-02
  weight for this iteration     100.00

 eigenvalues of (default mixing * dielectric matrix)
  average eigenvalue GAMMA=   1.4554
  2.9473  2.6269  1.5464  0.9816  0.9816  1.0173  0.8531  0.6889

 Free energy of the ion-electron system (eV)
  ---------------------------------------------------
  alpha Z        PSCENC =       113.49079489
  Ewald energy   TEWEN  =     22049.76727708
  -Hartree energ DENC   =    -26894.84139327
  -exchange      EXHF   =         0.00000000
  -V(xc)+E(xc)   XCENC  =      -404.86794220
  PAW double counting   =      5772.04706616    -5048.45927062
  entropy T*S    EENTRO =        -0.00469834
  eigenvalues    EBANDS =      -215.70462610
  atomic energy  EATOM  =      4496.35971583
  ---------------------------------------------------
  free energy    TOTEN  =      -132.21307657 eV

  energy without entropy =     -132.20837823  energy(sigma->0) =     -132.21072740


--------------------------------------------------------------------------------------------------------




----------------------------------------- Iteration    1(  14)  ---------------------------------------


    POTLOK:  cpu time    0.11: real time    0.11
    SETDIJ:  cpu time    0.11: real time    0.11
     EDDAV:  cpu time    5.56: real time    5.57
       DOS:  cpu time    0.00: real time    0.00
    CHARGE:  cpu time    0.41: real time    0.41
    MIXING:  cpu time    0.01: real time    0.01
    --------------------------------------------
      LOOP:  cpu time    6.20: real time    6.21

 eigenvalue-minimisations  :  3338
 total energy-change (2. order) : 0.6639987E-03  (-0.2072263E-04)
 number of electron      95.0000001 magnetization 
 augmentation part        5.6612940 magnetization 

 Broyden mixing:
  rms(total) = 0.32952E-02    rms(broyden)= 0.32950E-02
  rms(prec ) = 0.70792E-02
  weight for this iteration     100.00

 eigenvalues of (default mixing * dielectric matrix)
  average eigenvalue GAMMA=   1.4177
  2.9459  2.5514  1.9822  0.9400  0.9400  0.9371  0.9371  0.6895  0.8359

 Free energy of the ion-electron system (eV)
  ---------------------------------------------------
  alpha Z        PSCENC =       113.49079489
  Ewald energy   TEWEN  =     22049.76727708
  -Hartree energ DENC   =    -26895.81220199
  -exchange      EXHF   =         0.00000000
  -V(xc)+E(xc)   XCENC  =      -404.87108415
  PAW double counting   =      5768.92391102    -5045.33581217
  entropy T*S    EENTRO =        -0.00470770
  eigenvalues    EBANDS =      -214.73030539
  atomic energy  EATOM  =      4496.35971583
  ---------------------------------------------------
  free energy    TOTEN  =      -132.21241258 eV

  energy without entropy =     -132.20770488  energy(sigma->0) =     -132.21005873


--------------------------------------------------------------------------------------------------------




----------------------------------------- Iteration    1(  15)  ---------------------------------------


    POTLOK:  cpu time    0.11: real time    0.11
    SETDIJ:  cpu time    0.11: real time    0.11
     EDDAV:  cpu time    5.83: real time    5.84
       DOS:  cpu time    0.00: real time    0.00
    CHARGE:  cpu time    0.42: real time    0.42
    MIXING:  cpu time    0.01: real time    0.01
    --------------------------------------------
      LOOP:  cpu time    6.48: real time    6.49

 eigenvalue-minimisations  :  3540
 total energy-change (2. order) : 0.5580229E-03  (-0.2266172E-04)
 number of electron      95.0000001 magnetization 
 augmentation part        5.6611415 magnetization 

 Broyden mixing:
  rms(total) = 0.29672E-02    rms(broyden)= 0.29670E-02
  rms(prec ) = 0.61521E-02
  weight for this iteration     100.00

 eigenvalues of (default mixing * dielectric matrix)
  average eigenvalue GAMMA=   1.5996
  4.0578  2.7413  2.2839  1.1734  1.1734  0.6869  0.9773  0.9773  0.9023  1.0227

 Free energy of the ion-electron system (eV)
  ---------------------------------------------------
  alpha Z        PSCENC =       113.49079489
  Ewald energy   TEWEN  =     22049.76727708
  -Hartree energ DENC   =    -26896.75104419
  -exchange      EXHF   =         0.00000000
  -V(xc)+E(xc)   XCENC  =      -404.87008874
  PAW double counting   =      5770.66233803    -5047.07370100
  entropy T*S    EENTRO =        -0.00472296
  eigenvalues    EBANDS =      -213.79242349
  atomic energy  EATOM  =      4496.35971583
  ---------------------------------------------------
  free energy    TOTEN  =      -132.21185455 eV

  energy without entropy =     -132.20713159  energy(sigma->0) =     -132.20949307


--------------------------------------------------------------------------------------------------------




----------------------------------------- Iteration    1(  16)  ---------------------------------------


    POTLOK:  cpu time    0.11: real time    0.11
    SETDIJ:  cpu time    0.11: real time    0.11
     EDDAV:  cpu time    6.89: real time    6.90
       DOS:  cpu time    0.00: real time    0.00
    CHARGE:  cpu time    0.41: real time    0.41
    MIXING:  cpu time    0.01: real time    0.01
    --------------------------------------------
      LOOP:  cpu time    7.53: real time    7.54

 eigenvalue-minimisations  :  4388
 total energy-change (2. order) : 0.1613328E-02  (-0.2919013E-03)
 number of electron      95.0000001 magnetization 
 augmentation part        5.6609772 magnetization 

 Broyden mixing:
  rms(total) = 0.36024E-02    rms(broyden)= 0.36000E-02
  rms(prec ) = 0.40982E-02
  weight for this iteration     100.00

 eigenvalues of (default mixing * dielectric matrix)
  average eigenvalue GAMMA=   1.6680
  4.3397  2.9071  2.1759  2.1759  1.0395  1.0395  1.1027  1.1027  0.6882  0.9106
  0.8666

 Free energy of the ion-electron system (eV)
  ---------------------------------------------------
  alpha Z        PSCENC =       113.49079489
  Ewald energy   TEWEN  =     22049.76727708
  -Hartree energ DENC   =    -26900.92139393
  -exchange      EXHF   =         0.00000000
  -V(xc)+E(xc)   XCENC  =      -404.88303873
  PAW double counting   =      5765.94523390    -5042.35614212
  entropy T*S    EENTRO =        -0.00481466
  eigenvalues    EBANDS =      -209.60787348
  atomic energy  EATOM  =      4496.35971583
  ---------------------------------------------------
  free energy    TOTEN  =      -132.21024123 eV

  energy without entropy =     -132.20542656  energy(sigma->0) =     -132.20783389


--------------------------------------------------------------------------------------------------------




----------------------------------------- Iteration    1(  17)  ---------------------------------------


    POTLOK:  cpu time    0.11: real time    0.11
    SETDIJ:  cpu time    0.11: real time    0.11
     EDDAV:  cpu time    5.06: real time    5.06
       DOS:  cpu time    0.00: real time    0.00
    CHARGE:  cpu time    0.41: real time    0.41
    MIXING:  cpu time    0.01: real time    0.01
    --------------------------------------------
      LOOP:  cpu time    5.69: real time    5.70

 eigenvalue-minimisations  :  2998
 total energy-change (2. order) :-0.1544317E-03  (-0.2944502E-03)
 number of electron      95.0000001 magnetization 
 augmentation part        5.6622616 magnetization 

 Broyden mixing:
  rms(total) = 0.45850E-02    rms(broyden)= 0.45836E-02
  rms(prec ) = 0.47489E-02
  weight for this iteration     100.00

 eigenvalues of (default mixing * dielectric matrix)
  average eigenvalue GAMMA=   1.6915
  5.5468  3.0194  2.3036  2.3036  1.0820  1.0820  1.0696  1.0696  0.9744  0.8821
  0.6880  0.2771

 Free energy of the ion-electron system (eV)
  ---------------------------------------------------
  alpha Z        PSCENC =       113.49079489
  Ewald energy   TEWEN  =     22049.76727708
  -Hartree energ DENC   =    -26901.57065347
  -exchange      EXHF   =         0.00000000
  -V(xc)+E(xc)   XCENC  =      -404.89009364
  PAW double counting   =      5767.56175218    -5043.97040642
  entropy T*S    EENTRO =        -0.00484572
  eigenvalues    EBANDS =      -208.95393639
  atomic energy  EATOM  =      4496.35971583
  ---------------------------------------------------
  free energy    TOTEN  =      -132.21039566 eV

  energy without entropy =     -132.20554993  energy(sigma->0) =     -132.20797279


--------------------------------------------------------------------------------------------------------




----------------------------------------- Iteration    1(  18)  ---------------------------------------


    POTLOK:  cpu time    0.11: real time    0.11
    SETDIJ:  cpu time    0.10: real time    0.10
     EDDAV:  cpu time    5.37: real time    5.37
       DOS:  cpu time    0.00: real time    0.00
    CHARGE:  cpu time    0.41: real time    0.41
    MIXING:  cpu time    0.01: real time    0.01
    --------------------------------------------
      LOOP:  cpu time    6.00: real time    6.01

 eigenvalue-minimisations  :  3116
 total energy-change (2. order) : 0.3195410E-04  (-0.4182610E-04)
 number of electron      95.0000001 magnetization 
 augmentation part        5.6624097 magnetization 

 Broyden mixing:
  rms(total) = 0.35939E-02    rms(broyden)= 0.35936E-02
  rms(prec ) = 0.37103E-02
  weight for this iteration     100.00

 eigenvalues of (default mixing * dielectric matrix)
  average eigenvalue GAMMA=   1.5775
  5.5021  3.0180  2.3317  2.3317  1.0793  1.0793  1.0720  1.0720  0.9203  0.9112
  0.6878  0.2507  0.2507

 Free energy of the ion-electron system (eV)
  ---------------------------------------------------
  alpha Z        PSCENC =       113.49079489
  Ewald energy   TEWEN  =     22049.76727708
  -Hartree energ DENC   =    -26901.67789882
  -exchange      EXHF   =         0.00000000
  -V(xc)+E(xc)   XCENC  =      -404.89093632
  PAW double counting   =      5769.13231832    -5045.54076608
  entropy T*S    EENTRO =        -0.00486550
  eigenvalues    EBANDS =      -208.84600310
  atomic energy  EATOM  =      4496.35971583
  ---------------------------------------------------
  free energy    TOTEN  =      -132.21036370 eV

  energy without entropy =     -132.20549820  energy(sigma->0) =     -132.20793095


--------------------------------------------------------------------------------------------------------




----------------------------------------- Iteration    1(  19)  ---------------------------------------


    POTLOK:  cpu time    0.11: real time    0.11
    SETDIJ:  cpu time    0.11: real time    0.11
     EDDAV:  cpu time    4.75: real time    4.75
       DOS:  cpu time    0.00: real time    0.00
    --------------------------------------------
      LOOP:  cpu time    4.97: real time    4.97

 eigenvalue-minimisations  :  2722
 total energy-change (2. order) :-0.1081060E-05  (-0.7400079E-05)
 number of electron      95.0000001 magnetization 
 augmentation part        5.6624097 magnetization 

 Free energy of the ion-electron system (eV)
  ---------------------------------------------------
  alpha Z        PSCENC =       113.49079489
  Ewald energy   TEWEN  =     22049.76727708
  -Hartree energ DENC   =    -26901.68708049
  -exchange      EXHF   =         0.00000000
  -V(xc)+E(xc)   XCENC  =      -404.89038105
  PAW double counting   =      5769.11036593    -5045.51900760
  entropy T*S    EENTRO =        -0.00486523
  eigenvalues    EBANDS =      -208.83718414
  atomic energy  EATOM  =      4496.35971583
  ---------------------------------------------------
  free energy    TOTEN  =      -132.21036478 eV

  energy without entropy =     -132.20549955  energy(sigma->0) =     -132.20793217


--------------------------------------------------------------------------------------------------------




 average (electrostatic) potential at core
  the test charge radii are     0.7215  1.0714  1.0406
  (the norm of the test charge is              1.0000)
       1 -70.7074       2 -70.7146       3 -70.7376       4 -70.7256       5 -70.7010
       6 -70.8152       7 -70.8256       8 -70.7310       9 -70.7064      10 -36.7754
      11 -36.2979      12 -36.2898      13 -36.7718      14 -36.2766      15 -36.3165
      16 -36.2885      17 -36.3005      18 -36.3185      19 -36.2710      20 -75.2550
      21 -75.3273      22 -75.2392      23 -75.2447      24 -75.3268      25 -75.2444
      26 -75.2387
 
 
 
 E-fermi :   5.4272     XC(G=0):  -9.7630     alpha+bet :-11.5136


 k-point     1 :       0.0000    0.0000    0.0000
  band No.  band energies     occupation 
      1     -15.0533      2.00000
      2     -14.9738      2.00000
      3     -14.8694      2.00000
      4     -14.7249      2.00000
      5     -14.5512      2.00000
      6     -14.3657      2.00000
      7     -14.1878      2.00000
      8     -14.0328      2.00000
      9     -13.9455      2.00000
     10      -5.0751      2.00000
     11      -4.6539      2.00000
     12      -4.0104      2.00000
     13      -3.1378      2.00000
     14      -2.4556      2.00000
     15      -2.2617      2.00000
     16      -2.0414      2.00000
     17      -1.9535      2.00000
     18      -1.5044      2.00000
     19      -0.9439      2.00000
     20      -0.7201      2.00000
     21      -0.2944      2.00000
     22       0.4023      2.00000
     23       0.8630      2.00000
     24       1.1037      2.00000
     25       1.4936      2.00000
     26       1.4936      2.00000
     27       1.5424      2.00000
     28       1.5424      2.00000
     29       1.5962      2.00000
     30       1.5962      2.00000
     31       1.6694      2.00000
     32       1.6704      2.00000
     33       1.6704      2.00000
     34       1.7598      2.00000
     35       1.7598      2.00000
     36       1.8536      2.00000
     37       1.8536      2.00000
     38       1.9414      2.00000
     39       1.9414      2.00000
     40       2.0196      2.00000
     41       2.0196      2.00000
     42       2.0559      2.00000
     43       2.0559      2.00000
     44       2.2105      2.00000
     45       3.0835      2.00000
     46       3.1870      2.00000
     47       4.2925      2.00000
     48       6.0766      0.00000
     49       6.6071      0.00000
     50       7.0970      0.00000
     51       7.3667      0.00000
     52       8.0676      0.00000
     53       8.0833      0.00000
     54       8.8372      0.00000
     55       8.9968      0.00000
     56       9.4924      0.00000
     57       9.6626      0.00000
     58       9.8034      0.00000
     59      10.0620      0.00000
     60      11.1162      0.00000
     61      12.2107      0.00000
     62      13.5643      0.00000

 k-point     2 :       0.0769    0.0000    0.0000
  band No.  band energies     occupation 
      1     -15.0000      2.00000
      2     -14.9221      2.00000
      3     -14.8203      2.00000
      4     -14.6793      2.00000
      5     -14.5101      2.00000
      6     -14.3295      2.00000
      7     -14.1565      2.00000
      8     -14.0058      2.00000
      9     -13.9215      2.00000
     10      -4.9449      2.00000
     11      -4.5240      2.00000
     12      -3.8810      2.00000
     13      -3.0090      2.00000
     14      -2.3752      2.00000
     15      -2.1869      2.00000
     16      -1.9136      2.00000
     17      -1.8902      2.00000
     18      -1.4605      2.00000
     19      -0.9272      2.00000
     20      -0.5939      2.00000
     21      -0.3167      2.00000
     22       0.3277      2.00000
     23       0.9257      2.00000
     24       1.0171      2.00000
     25       1.2652      2.00000
     26       1.3215      2.00000
     27       1.3758      2.00000
     28       1.4349      2.00000
     29       1.4495      2.00000
     30       1.4881      2.00000
     31       1.4987      2.00000
     32       1.5529      2.00000
     33       1.5923      2.00000
     34       1.6278      2.00000
     35       1.6749      2.00000
     36       1.7179      2.00000
     37       1.7293      2.00000
     38       1.8125      2.00000
     39       1.8187      2.00000
     40       1.8863      2.00000
     41       1.9012      2.00000
     42       1.9801      2.00000
     43       2.0167      2.00000
     44       2.3296      2.00000
     45       3.2141      2.00000
     46       3.3145      2.00000
     47       4.4173      2.00000
     48       6.2082      0.00000
     49       6.9403      0.00000
     50       7.3788      0.00000
     51       7.5805      0.00000
     52       8.2441      0.00000
     53       8.3067      0.00000
     54       9.0471      0.00000
     55       9.2048      0.00000
     56       9.7381      0.00000
     57       9.9089      0.00000
     58      10.0833      0.00000
     59      10.2380      0.00000
     60      11.2262      0.00000
     61      12.2435      0.00000
     62      12.6900      0.00000

 k-point     3 :       0.1538    0.0000   -0.0000
  band No.  band energies     occupation 
      1     -14.8469      2.00000
      2     -14.7738      2.00000
      3     -14.6801      2.00000
      4     -14.5499      2.00000
      5     -14.3937      2.00000
      6     -14.2274      2.00000
      7     -14.0688      2.00000
      8     -13.9307      2.00000
      9     -13.8551      2.00000
     10      -4.5551      2.00000
     11      -4.1351      2.00000
     12      -3.4935      2.00000
     13      -2.6234      2.00000
     14      -2.1432      2.00000
     15      -1.9743      2.00000
     16      -1.7176      2.00000
     17      -1.5308      2.00000
     18      -1.3543      2.00000
     19      -0.9179      2.00000
     20      -0.4417      2.00000
     21      -0.2152      2.00000
     22       0.0263      2.00000
     23       0.4237      2.00000
     24       0.6811      2.00000
     25       0.7174      2.00000
     26       0.7785      2.00000
     27       0.8696      2.00000
     28       0.9218      2.00000
     29       1.0797      2.00000
     30       1.2683      2.00000
     31       1.3308      2.00000
     32       1.3784      2.00000
     33       1.3806      2.00000
     34       1.4360      2.00000
     35       1.4567      2.00000
     36       1.5124      2.00000
     37       1.6044      2.00000
     38       1.6182      2.00000
     39       1.7010      2.00000
     40       1.7543      2.00000
     41       1.7916      2.00000
     42       1.8721      2.00000
     43       1.9098      2.00000
     44       2.6857      2.00000
     45       3.5233      2.00000
     46       3.6244      2.00000
     47       4.7785      2.00000
     48       6.5713      0.00000
     49       7.7116      0.00000
     50       8.0469      0.00000
     51       8.0958      0.00000
     52       8.7171      0.00000
     53       8.8514      0.00000
     54       9.5447      0.00000
     55       9.6640      0.00000
     56      10.0956      0.00000
     57      10.3223      0.00000
     58      10.3605      0.00000
     59      10.5623      0.00000
     60      10.7884      0.00000
     61      10.8677      0.00000
     62      10.9825      0.00000

 k-point     4 :       0.2308    0.0000   -0.0000
  band No.  band energies     occupation 
      1     -14.6159      2.00000
      2     -14.5509      2.00000
      3     -14.4703      2.00000
      4     -14.3579      2.00000
      5     -14.2229      2.00000
      6     -14.0800      2.00000
      7     -13.9444      2.00000
      8     -13.8261      2.00000
      9     -13.7638      2.00000
     10      -3.9076      2.00000
     11      -3.4891      2.00000
     12      -2.8499      2.00000
     13      -1.9831      2.00000
     14      -1.7972      2.00000
     15      -1.6723      2.00000
     16      -1.5023      2.00000
     17      -1.2851      2.00000
     18      -1.0446      2.00000
     19      -0.8945      2.00000
     20      -0.7911      2.00000
     21      -0.5390      2.00000
     22      -0.3113      2.00000
     23      -0.1253      2.00000
     24      -0.0216      2.00000
     25       0.0121      2.00000
     26       0.1895      2.00000
     27       0.4138      2.00000
     28       0.4439      2.00000
     29       0.7341      2.00000
     30       1.0263      2.00000
     31       1.1711      2.00000
     32       1.2216      2.00000
     33       1.2689      2.00000
     34       1.2782      2.00000
     35       1.3563      2.00000
     36       1.4503      2.00000
     37       1.4612      2.00000
     38       1.5491      2.00000
     39       1.6205      2.00000
     40       1.6418      2.00000
     41       1.7241      2.00000
     42       1.7630      2.00000
     43       2.0067      2.00000
     44       3.2760      2.00000
     45       3.9971      2.00000
     46       4.0996      2.00000
     47       5.3490      1.97310
     48       6.9717      0.00000
     49       7.5893      0.00000
     50       7.9819      0.00000
     51       8.4626      0.00000
     52       8.6202      0.00000
     53       8.7719      0.00000
     54       8.9961      0.00000
     55       9.3036      0.00000
     56       9.3326      0.00000
     57       9.6484      0.00000
     58      10.1216      0.00000
     59      10.3151      0.00000
     60      10.4040      0.00000
     61      10.9221      0.00000
     62      11.1611      0.00000

 k-point     5 :       0.3077   -0.0000    0.0000
  band No.  band energies     occupation 
      1     -14.3432      2.00000
      2     -14.2894      2.00000
      3     -14.2270      2.00000
      4     -14.1386      2.00000
      5     -14.0321      2.00000
      6     -13.9198      2.00000
      7     -13.8143      2.00000
      8     -13.7214      2.00000
      9     -13.6757      2.00000
     10      -3.0056      2.00000
     11      -2.5892      2.00000
     12      -1.9536      2.00000
     13      -1.5755      2.00000
     14      -1.5430      2.00000
     15      -1.4539      2.00000
     16      -1.4287      2.00000
     17      -1.3239      2.00000
     18      -1.2336      2.00000
     19      -1.0918      2.00000
     20      -1.0688      2.00000
     21      -0.9640      2.00000
     22      -0.8384      2.00000
     23      -0.7789      2.00000
     24      -0.5049      2.00000
     25      -0.1351      2.00000
     26      -0.0083      2.00000
     27       0.2572      2.00000
     28       0.6289      2.00000
     29       0.9255      2.00000
     30       1.0101      2.00000
     31       1.0613      2.00000
     32       1.1065      2.00000
     33       1.1187      2.00000
     34       1.1980      2.00000
     35       1.2858      2.00000
     36       1.2935      2.00000
     37       1.2973      2.00000
     38       1.3940      2.00000
     39       1.4673      2.00000
     40       1.4884      2.00000
     41       1.5721      2.00000
[...]
     58       9.0570      0.00000
     59       9.2872      0.00000
     60       9.6982      0.00000
     61      10.2982      0.00000
     62      10.4427      0.00000

 k-point    19 :       0.3077    0.2308    0.0000
  band No.  band energies     occupation 
      1     -13.8993      2.00000
      2     -13.8877      2.00000
      3     -13.8643      2.00000
      4     -13.8302      2.00000
      5     -13.7877      2.00000
      6     -13.7438      2.00000
      7     -13.7021      2.00000
      8     -13.6686      2.00000
      9     -13.6450      2.00000
     10      -1.8736      2.00000
     11      -1.7767      2.00000
     12      -1.6372      2.00000
     13      -1.6222      2.00000
     14      -1.5665      2.00000
     15      -1.5022      2.00000
     16      -1.4546      2.00000
     17      -1.3031      2.00000
     18      -1.1457      2.00000
     19      -0.7349      2.00000
     20      -0.5854      2.00000
     21      -0.4479      2.00000
     22      -0.4412      2.00000
     23      -0.2625      2.00000
     24      -0.1358      2.00000
     25      -0.0645      2.00000
     26      -0.0270      2.00000
     27      -0.0251      2.00000
     28       0.0712      2.00000
     29       0.2131      2.00000
     30       0.3267      2.00000
     31       0.3924      2.00000
     32       0.5498      2.00000
     33       0.6187      2.00000
     34       0.7214      2.00000
     35       0.8398      2.00000
     36       0.9062      2.00000
     37       1.0138      2.00000
     38       1.1041      2.00000
     39       1.2145      2.00000
     40       1.4854      2.00000
     41       2.5580      2.00000
     42       2.7961      2.00000
     43       3.1962      2.00000
     44       3.6390      2.00000
     45       4.0120      2.00000
     46       4.3815      2.00000
     47       4.6999      2.00000
     48       4.8302      2.00000
     49       5.3031      1.99620
     50       5.6312      0.00000
     51       5.9837      0.00000
     52       6.4496      0.00000
     53       6.6696      0.00000
     54       6.7693      0.00000
     55       6.9925      0.00000
     56       7.2490      0.00000
     57       7.6452      0.00000
     58       8.7571      0.00000
     59       8.8265      0.00000
     60       9.1458      0.00000
     61       9.5169      0.00000
     62       9.5592      0.00000

 k-point    20 :       0.3846    0.2308    0.0000
  band No.  band energies     occupation 
      1     -13.8126      2.00000
      2     -13.8028      2.00000
      3     -13.7890      2.00000
      4     -13.7719      2.00000
      5     -13.7488      2.00000
      6     -13.7243      2.00000
      7     -13.6998      2.00000
      8     -13.6798      2.00000
      9     -13.6645      2.00000
     10      -1.9576      2.00000
     11      -1.8525      2.00000
     12      -1.6884      2.00000
     13      -1.5073      2.00000
     14      -1.4970      2.00000
     15      -1.4727      2.00000
     16      -1.4274      2.00000
     17      -1.3792      2.00000
     18      -1.3719      2.00000
     19      -0.5526      2.00000
     20      -0.5341      2.00000
     21      -0.4767      2.00000
     22      -0.4241      2.00000
     23      -0.4206      2.00000
     24      -0.3603      2.00000
     25      -0.2230      2.00000
     26      -0.0420      2.00000
     27       0.1396      2.00000
     28       0.4377      2.00000
     29       0.4610      2.00000
     30       0.6447      2.00000
     31       0.6879      2.00000
     32       0.7670      2.00000
     33       0.8622      2.00000
     34       1.0007      2.00000
     35       1.0579      2.00000
     36       1.0579      2.00000
     37       1.0861      2.00000
     38       1.0899      2.00000
     39       1.4693      2.00000
     40       1.4764      2.00000
     41       2.0765      2.00000
     42       2.1350      2.00000
     43       2.8818      2.00000
     44       2.9903      2.00000
     45       3.8607      2.00000
     46       4.2545      2.00000
     47       4.3373      2.00000
     48       4.6513      2.00000
     49       5.1153      2.00000
     50       5.2807      1.99958
     51       5.7662      0.00000
     52       6.3731      0.00000
     53       7.0205      0.00000
     54       7.3573      0.00000
     55       7.4557      0.00000
     56       7.4836      0.00000
     57       7.5086      0.00000
     58       8.1047      0.00000
     59       8.5345      0.00000
     60       8.7323      0.00000
     61       8.8000      0.00000
     62       8.8371      0.00000

 k-point    21 :       0.3077    0.3077   -0.0000
  band No.  band energies     occupation 
      1     -13.7852      2.00000
      2     -13.7746      2.00000
      3     -13.7568      2.00000
      4     -13.7442      2.00000
      5     -13.7272      2.00000
      6     -13.7101      2.00000
      7     -13.6935      2.00000
      8     -13.6803      2.00000
      9     -13.6697      2.00000
     10      -1.6019      2.00000
     11      -1.6010      2.00000
     12      -1.5102      2.00000
     13      -1.5054      2.00000
     14      -1.3966      2.00000
     15      -1.3497      2.00000
     16      -1.2058      2.00000
     17      -1.1808      2.00000
     18      -1.0915      2.00000
     19      -0.9703      2.00000
     20      -0.9220      2.00000
     21      -0.7615      2.00000
     22      -0.7155      2.00000
     23      -0.6236      2.00000
     24      -0.4897      2.00000
     25      -0.4663      2.00000
     26      -0.3075      2.00000
     27      -0.3045      2.00000
     28       0.4459      2.00000
     29       0.4664      2.00000
     30       0.6685      2.00000
     31       0.7986      2.00000
     32       0.8537      2.00000
     33       0.9054      2.00000
     34       0.9118      2.00000
     35       0.9336      2.00000
     36       0.9400      2.00000
     37       1.0487      2.00000
     38       1.3509      2.00000
     39       1.9825      2.00000
     40       2.5457      2.00000
     41       2.5477      2.00000
     42       2.8196      2.00000
     43       2.9571      2.00000
     44       2.9576      2.00000
     45       3.5444      2.00000
     46       3.5699      2.00000
     47       3.7842      2.00000
     48       4.2926      2.00000
     49       4.6460      2.00000
     50       5.1667      2.00000
     51       5.7513      0.00000
     52       5.9490      0.00000
     53       6.9442      0.00000
     54       7.0544      0.00000
     55       7.1438      0.00000
     56       7.6106      0.00000
     57       7.6385      0.00000
     58       8.2304      0.00000
     59       8.5012      0.00000
     60       8.7971      0.00000
     61       9.3028      0.00000
     62       9.3450      0.00000


--------------------------------------------------------------------------------------------------------


 soft charge-density along one line, spin component           1
         0         1         2         3         4         5         6         7         8         9
 total charge-density along one line
 
 pseudopotential strength for first ion, spin component:           1
 12.281   0.000 -14.951   0.000  -0.000   0.000  -0.000   0.000   0.000   0.000   0.000   0.000   0.000   0.000  -0.000   0.000
-14.951   0.000  18.221   0.000   0.000   0.000   0.000   0.000  -0.000   0.000  -0.000   0.000  -0.000   0.000   0.000   0.000
 -0.000   0.000   0.000   0.000  -8.446   0.000  -0.000   0.000   0.000   0.000  10.138   0.000   0.000   0.000  -0.000   0.000
 -0.000   0.000   0.000   0.000  -0.000   0.000  -8.448   0.000   0.000   0.000   0.000   0.000  10.141   0.000  -0.000   0.000
  0.000   0.000  -0.000   0.000   0.000   0.000   0.000   0.000  -8.446   0.000  -0.000   0.000  -0.000   0.000  10.138   0.000
  0.000   0.000  -0.000   0.000  10.138   0.000   0.000   0.000  -0.000   0.000 -12.015   0.000  -0.000   0.000   0.000   0.000
  0.000   0.000  -0.000   0.000   0.000   0.000  10.141   0.000  -0.000   0.000  -0.000   0.000 -12.018   0.000   0.000   0.000
 -0.000   0.000   0.000   0.000  -0.000   0.000  -0.000   0.000  10.138   0.000   0.000   0.000   0.000   0.000 -12.015   0.000
 total augmentation occupancy for first ion, spin component:           1
  2.607   0.366   0.000   0.000  -0.000   0.000  -0.000   0.000
  0.366   0.069   0.000   0.000  -0.000  -0.000  -0.000   0.000
  0.000   0.000   2.165  -0.000   0.000   0.261  -0.000   0.000
  0.000   0.000  -0.000   2.164   0.000  -0.000   0.263   0.000
 -0.000  -0.000   0.000   0.000   2.165   0.000   0.000   0.261
  0.000  -0.000   0.261  -0.000   0.000   0.034  -0.000   0.000
 -0.000  -0.000  -0.000   0.263   0.000  -0.000   0.034  -0.000
  0.000   0.000   0.000   0.000   0.261   0.000  -0.000   0.034


------------------------ aborting loop because EDIFF is reached ----------------------------------------


    CHARGE:  cpu time    0.41: real time    0.41
    FORLOC:  cpu time    0.04: real time    0.04
    FORNL :  cpu time    3.26: real time    3.27
    STRESS:  cpu time    4.40: real time    4.41
    FORCOR:  cpu time    0.15: real time    0.15
    FORHAR:  cpu time    0.06: real time    0.06
    MIXING:  cpu time    0.00: real time    0.00
    OFIELD:  cpu time    0.00: real time    0.00

  FORCE on cell =-STRESS in cart. coord.  units (eV):
  Direction    XX          YY          ZZ          XY          YZ          ZX
  --------------------------------------------------------------------------------------
  Alpha Z   113.49079   113.49079   113.49079
  Ewald   25224.17116 25224.17145-27701.02938    -0.00002    -0.00003    -0.00013
  Hartree 26738.61839 26738.61831-25882.93481    -0.00000    -0.00000     0.00004
  E(xc)    -389.24985  -389.24987  -389.67328    -0.00000     0.00000    -0.00000
  Local  -53091.76755-53091.76708 52453.18666    -0.00016     0.00003     0.00004
  n-local   -24.76884   -35.09937   -27.18800     2.64719    -1.66012     5.32209
  augment    53.67062    53.67040    53.34626     0.00016    -0.00000     0.00000
  Kinetic  1400.50810  1356.56689  1378.40468     0.20203    -0.31970     1.01683
  Fock        0.00000     0.00000     0.00000     0.00000     0.00000     0.00000
  -------------------------------------------------------------------------------------
  Total      -2.46284    -2.46284    -2.39709    -0.00000     0.00000     0.00000
  in kB     -11.07537   -11.07536   -10.77969    -0.00000     0.00000     0.00000
  external pressure =      -10.98 kB  Pullay stress =        0.00 kB


 VOLUME and BASIS-vectors are now :
 -----------------------------------------------------------------------------
  energy-cutoff  :      520.00
  volume of cell :      356.28
      direct lattice vectors                 reciprocal lattice vectors
     2.591982046 -1.496481076  0.000000000     0.385805142 -0.000000000 -0.000000000
     0.000000000  2.992962152  0.000000000     0.192902571  0.334117155  0.000000000
     0.000000000 -0.000000000 45.925601514     0.000000000  0.000000000  0.021774347

  length of vectors
     2.992962836  2.992962152 45.925601514     0.385805142  0.385805230  0.021774347


 FORCES acting on ions
    electron-ion (+dipol)            ewald-force                    non-local-force                 convergence-correction
 -----------------------------------------------------------------------------------------------
   -.210E-07 -.240E-08 0.122E+04   0.101E-06 -.100E-06 -.122E+04   -.462E-19 0.417E-18 0.464E-01   0.847E-10 -.187E-09 -.922E-02
   0.106E-02 -.184E-02 0.813E+03   0.587E-04 -.102E-03 -.813E+03   0.818E-20 -.297E-19 0.709E-02   0.151E-08 -.269E-08 0.116E-01
   -.159E-08 0.379E-09 -.226E-01   0.130E-08 -.864E-09 -.769E-02   -.597E-21 0.602E-20 -.258E-02   0.452E-10 -.492E-10 0.305E-01
   0.106E-02 -.184E-02 -.406E+03   0.586E-04 -.102E-03 0.406E+03   -.278E-20 -.219E-19 -.143E-01   -.344E-08 0.601E-08 0.240E-01
   0.286E-07 0.961E-09 -.122E+04   -.464E-07 0.357E-07 0.122E+04   0.182E-18 -.413E-18 -.569E-01   -.456E-10 0.898E-10 0.754E-02
   0.107E-02 -.185E-02 -.162E+04   0.529E-04 -.881E-04 0.162E+04   -.366E-18 0.232E-17 -.162E+01   0.665E-09 -.113E-08 0.315E-02
   -.107E-02 0.185E-02 0.162E+04   -.529E-04 0.881E-04 -.162E+04   0.362E-18 -.597E-18 0.165E+01   -.141E-08 0.237E-08 -.178E-01
   -.106E-02 0.184E-02 0.406E+03   -.587E-04 0.102E-03 -.406E+03   0.436E-19 0.259E-19 0.319E-02   0.380E-09 -.642E-09 0.285E-01
   -.106E-02 0.184E-02 -.813E+03   -.587E-04 0.102E-03 0.813E+03   -.857E-20 -.245E-19 -.727E-02   0.202E-09 -.288E-09 0.150E-01
   -.980E-05 0.264E-05 0.590E+03   0.237E-04 -.251E-04 -.589E+03   -.209E-16 0.260E-18 -.717E+00   -.253E-10 0.505E-10 -.763E-02
   0.327E-07 -.387E-07 0.203E+03   -.830E-08 0.948E-08 -.203E+03   0.324E-21 -.489E-21 0.135E-02   -.698E-10 0.125E-09 0.714E-02
   -.177E-07 0.245E-07 -.203E+03   -.152E-07 0.169E-07 0.203E+03   -.129E-19 -.204E-21 0.562E-03   0.836E-10 -.173E-09 0.675E-02
   0.980E-05 -.265E-05 -.590E+03   -.236E-04 0.250E-04 0.589E+03   0.355E-17 -.260E-18 0.716E+00   -.201E-10 0.408E-10 0.576E-03
   0.444E-04 -.768E-04 0.339E+03   -.500E-04 0.867E-04 -.339E+03   0.636E-20 0.277E-19 -.160E-02   -.106E-09 0.239E-09 0.401E-03
   0.443E-04 -.768E-04 -.677E+02   -.500E-04 0.865E-04 0.677E+02   0.161E-19 -.129E-19 -.182E-02   -.646E-10 0.106E-09 0.959E-02
   0.444E-04 -.770E-04 -.474E+03   -.501E-04 0.869E-04 0.474E+03   -.334E-18 -.227E-19 0.624E-01   0.470E-10 -.839E-10 0.170E-02
   -.444E-04 0.769E-04 0.475E+03   0.500E-04 -.868E-04 -.474E+03   -.119E-17 0.349E-17 -.555E-01   0.251E-09 -.479E-09 -.498E-02
   -.443E-04 0.768E-04 0.677E+02   0.500E-04 -.866E-04 -.677E+02   0.112E-19 -.556E-21 0.153E-02   -.111E-09 0.197E-09 0.103E-01
   -.443E-04 0.768E-04 -.339E+03   0.500E-04 -.866E-04 0.339E+03   -.126E-19 -.110E-18 0.455E-02   -.123E-10 0.198E-10 0.358E-02
   0.167E-09 -.258E-09 -.833E-01   -.160E-10 0.163E-10 0.877E-01   0.344E-22 0.146E-20 0.478E-04   -.123E-11 0.900E-12 -.441E-02
   -.398E-06 -.358E-07 0.345E+03   0.239E-05 -.223E-05 -.346E+03   0.973E-17 -.598E-18 0.165E+01   -.186E-11 0.116E-11 -.745E-02
   0.150E-04 -.259E-04 0.227E+03   -.398E-05 0.697E-05 -.227E+03   -.998E-18 -.416E-16 -.538E-01   -.662E-11 0.969E-11 -.472E-02
   -.150E-04 0.259E-04 0.113E+03   0.416E-05 -.717E-05 -.113E+03   -.314E-17 -.171E-17 -.804E-01   -.850E-12 0.210E-11 -.385E-02
   0.398E-06 0.358E-07 -.345E+03   -.239E-05 0.223E-05 0.346E+03   0.597E-16 0.561E-16 -.165E+01   0.259E-11 -.207E-11 -.215E-02
   0.150E-04 -.259E-04 -.113E+03   -.416E-05 0.717E-05 0.113E+03   0.141E-17 0.691E-17 0.803E-01   0.472E-12 -.108E-11 -.495E-02
   -.150E-04 0.259E-04 -.228E+03   0.398E-05 -.697E-05 0.227E+03   -.247E-17 -.139E-16 0.539E-01   0.505E-11 -.797E-11 -.424E-02
 -----------------------------------------------------------------------------------------------
   0.567E-07 -.593E-07 -.104E+00   0.955E-13 0.422E-13 0.426E-12   0.455E-16 0.103E-16 0.105E-01   -.204E-08 0.352E-08 0.889E-01
 
 
 POSITION                                       TOTAL-FORCE (eV/Angst)
 -----------------------------------------------------------------------------------
      0.00000     -0.00000     16.75813         0.000000      0.000000     -0.010907
      0.86399      1.49648     19.22062         0.000000      0.000000     -0.001838
      0.00000     -0.00000     24.14724         0.000000     -0.000000     -0.002159
      0.86399      1.49648     26.61148         0.000000     -0.000000     -0.010058
      0.00000     -0.00000     31.53729         0.000000     -0.000000      0.002538
      0.86399      1.49648     33.99747        -0.000000     -0.000000      0.003088
      1.72799     -0.00000     14.29706        -0.000000      0.000000      0.008466
      1.72799     -0.00000     21.68328        -0.000000      0.000000      0.001998
      1.72799     -0.00000     29.07422        -0.000000     -0.000000     -0.000167
      0.00000     -0.00000     13.01500         0.000000     -0.000000     -0.001427
      0.00000     -0.00000     20.45185         0.000000     -0.000000      0.004542
      0.00000     -0.00000     27.84270         0.000000     -0.000000      0.000883
      0.00000     -0.00000     35.28022         0.000000      0.000000     -0.008192
      1.72799     -0.00000     17.98936         0.000000     -0.000000     -0.001349
      1.72799     -0.00000     25.37941         0.000000     -0.000000     -0.002094
      1.72799     -0.00000     32.76879         0.000000     -0.000000      0.000735
      0.86399      1.49648     15.52567         0.000000     -0.000000      0.006223
      0.86399      1.49648     22.91512         0.000000     -0.000000      0.006068
      0.86399      1.49648     30.30547         0.000000     -0.000000      0.002535
      0.00000     -0.00000      1.18382         0.000000     -0.000000      0.000192
      0.00000     -0.00000      7.91817         0.000000      0.000000     -0.006812
      1.72799     -0.00000      5.65487         0.000000     -0.000000      0.001839
      0.86399      1.49648      3.41394         0.000000     -0.000000      0.004647
      0.00000     -0.00000     40.37499         0.000000     -0.000000      0.007098
      1.72799     -0.00000     44.87930         0.000000     -0.000000     -0.004359
      0.86399      1.49648     42.63833         0.000000     -0.000000     -0.001492
 -----------------------------------------------------------------------------------
    total drift:                                0.000000     -0.000000     -0.004658


--------------------------------------------------------------------------------------------------------



  FREE ENERGIE OF THE ION-ELECTRON SYSTEM (eV)
  ---------------------------------------------------
  free  energy   TOTEN  =      -132.23462551 eV

  energy  without entropy=     -132.23221573  energy(sigma->0) =     -132.23342062
 
 d Force = 0.4789360E-04[ 0.284E-04, 0.674E-04]  d Energy = 0.4446698E-04 0.343E-05
 d Force =-0.1027504E+01[-0.103E+01,-0.103E+01]  d Ewald  =-0.1027504E+01 0.112E-07


--------------------------------------------------------------------------------------------------------


    POTLOK:  cpu time    0.22: real time    0.22


--------------------------------------------------------------------------------------------------------


 Conjugate gradient step on ions:
 trial-energy change:   -0.000044  1 .order   -0.000048   -0.000067   -0.000028
  (g-gl).g = 0.384E-04      g.g   = 0.882E-04  gl.gl    = 0.238E-03
 g(Force)  = 0.882E-04   g(Stress)= 0.000E+00 ortho     = 0.516E-05
 gamma     =   0.16102
 trial     =   0.75693
 opt step  =   1.30895  (harmonic =   1.30895) maximal distance =0.00158809
 next E    =  -132.234639   (d E  =  -0.00006)


--------------------------------------------------------------------------------------------------------


  
 reached required accuracy - stopping structural energy minimisation
     LOOP+:  cpu time   35.89: real time   35.94
    4ORBIT:  cpu time    0.00: real time    0.00

 total amount of memory used by VASP on root node   157623. kBytes
========================================================================

   base      :      30000. kBytes
   nonl-proj :      16946. kBytes
   fftplans  :      60348. kBytes
   grid      :      24192. kBytes
   one-center:         56. kBytes
   wavefun   :      26081. kBytes
 
  
  
 General timing and accounting informations for this job:
 ========================================================
  
                  Total CPU time used (sec):     2107.084
                            User time (sec):     2081.636
                          System time (sec):       25.448
                         Elapsed time (sec):     2110.301
  
                   Maximum memory used (kb):      269460.
                   Average memory used (kb):           0.
  
                          Minor page faults:       446296
                          Major page faults:            0
                 Voluntary context switches:          150
