       N       E                     dE             d eps       ncg     rms          rms(c)
DAV:   1     0.548179906457E+03    0.54818E+03   -0.49181E+04  2872   0.139E+03
DAV:   2    -0.114054121148E+03   -0.66223E+03   -0.63171E+03  3660   0.269E+02
DAV:   3    -0.168825744631E+03   -0.54772E+02   -0.54480E+02  3328   0.844E+01
DAV:   4    -0.169492153523E+03   -0.66641E+00   -0.66518E+00  3344   0.102E+01
DAV:   5    -0.169502139757E+03   -0.99862E-02   -0.99808E-02  3488   0.121E+00    0.239E+01
DAV:   6    -0.152909188628E+03    0.16593E+02   -0.94416E+01  3272   0.324E+01    0.815E+00
DAV:   7    -0.152724237534E+03    0.18495E+00   -0.19690E+00  3124   0.622E+00    0.492E+00
DAV:   8    -0.152616646000E+03    0.10759E+00   -0.66373E-01  3312   0.455E+00    0.112E+00
DAV:   9    -0.152594434871E+03    0.22211E-01   -0.15958E-01  3344   0.185E+00    0.439E-01
DAV:  10    -0.152594845557E+03   -0.41069E-03   -0.47126E-02  3248   0.861E-01    0.316E-01
DAV:  11    -0.152592823934E+03    0.20216E-02   -0.70870E-03  3484   0.395E-01    0.182E-01
DAV:  12    -0.152591058466E+03    0.17655E-02   -0.46817E-03  3384   0.361E-01    0.998E-02
DAV:  13    -0.152589980131E+03    0.10783E-02   -0.12809E-03  4272   0.304E-01    0.519E-02
DAV:  14    -0.152589054994E+03    0.92514E-03   -0.13024E-03  4128   0.302E-01    0.407E-02
DAV:  15    -0.152587889402E+03    0.11656E-02   -0.70271E-04  3664   0.324E-01    0.386E-02
DAV:  16    -0.152586715023E+03    0.11744E-02   -0.13156E-03  4016   0.532E-01    0.585E-02
DAV:  17    -0.152586218068E+03    0.49695E-03   -0.19162E-03  4320   0.441E-01    0.225E-02
DAV:  18    -0.152586018957E+03    0.19911E-03   -0.11480E-03  3376   0.276E-01    0.328E-02
DAV:  19    -0.152585636931E+03    0.38203E-03   -0.36892E-04  4684   0.373E-01    0.153E-02
DAV:  20    -0.152585441471E+03    0.19546E-03   -0.35992E-04  3928   0.338E-01    0.140E-02
DAV:  21    -0.152585396769E+03    0.44702E-04   -0.46752E-04  3800   0.248E-01    0.111E-02
DAV:  22    -0.152585394529E+03    0.22404E-05   -0.35070E-04  3284   0.162E-01    0.100E-02
DAV:  23    -0.152585408160E+03   -0.13631E-04   -0.19338E-04  3100   0.583E-02    0.142E-02
DAV:  24    -0.152585405995E+03    0.21643E-05   -0.76450E-06  1812   0.120E-02
   1 F= -.15258541E+03 E0= -.15258239E+03  d E =-.152585E+03
       N       E                     dE             d eps       ncg     rms          rms(c)
DAV:   1    -0.152586615210E+03   -0.12070E-02   -0.51606E-02  3016   0.985E-01    0.539E-02
DAV:   2    -0.152586663022E+03   -0.47812E-04   -0.25630E-03  3280   0.226E-01    0.444E-02
DAV:   3    -0.152586634697E+03    0.28325E-04   -0.23790E-04  3264   0.675E-02    0.349E-02
DAV:   4    -0.152586610023E+03    0.24674E-04   -0.69448E-05  3088   0.390E-02    0.173E-02
DAV:   5    -0.152586581401E+03    0.28622E-04   -0.49632E-05  3216   0.580E-02    0.111E-02
DAV:   6    -0.152586571218E+03    0.10183E-04   -0.21692E-05  2432   0.448E-02    0.103E-02
DAV:   7    -0.152586564150E+03    0.70680E-05   -0.35753E-05  2804   0.431E-02
   2 F= -.15258656E+03 E0= -.15258357E+03  d E =-.115815E-02
       N       E                     dE             d eps       ncg     rms          rms(c)
DAV:   1    -0.152586601924E+03   -0.30707E-04   -0.33690E-03  3056   0.256E-01    0.114E-02
DAV:   2    -0.152586602403E+03   -0.47895E-06   -0.16623E-04  3328   0.588E-02    0.124E-02
DAV:   3    -0.152586597342E+03    0.50616E-05   -0.12518E-05  2112   0.195E-02    0.956E-03
DAV:   4    -0.152586588469E+03    0.88725E-05   -0.87795E-06  2028   0.255E-02    0.409E-03
DAV:   5    -0.152586579929E+03    0.85402E-05   -0.61861E-06  2072   0.339E-02    0.536E-03
DAV:   6    -0.152586571066E+03    0.88628E-05   -0.52980E-06  2184   0.457E-02
   3 F= -.15258657E+03 E0= -.15258358E+03  d E =-.116507E-02
       N       E                     dE             d eps       ncg     rms          rms(c)
DAV:   1    -0.152586881991E+03   -0.30206E-03   -0.70293E-02  2936   0.116E+00    0.374E-02
DAV:   2    -0.152587026604E+03   -0.14461E-03   -0.18618E-03  3312   0.170E-01    0.253E-02
DAV:   3    -0.152587011672E+03    0.14932E-04   -0.41399E-05  3120   0.354E-02    0.177E-02
DAV:   4    -0.152587001675E+03    0.99974E-05   -0.20095E-05  2072   0.260E-02    0.907E-03
DAV:   5    -0.152586993740E+03    0.79346E-05   -0.76171E-06  2052   0.247E-02    0.451E-03
DAV:   6    -0.152586988377E+03    0.53632E-05   -0.80578E-06  2060   0.248E-02
   4 F= -.15258699E+03 E0= -.15258401E+03  d E =-.417310E-03
       N       E                     dE             d eps       ncg     rms          rms(c)
DAV:   1    -0.152586990969E+03    0.27708E-05   -0.10590E-01  2928   0.142E+00    0.471E-02
DAV:   2    -0.152587210132E+03   -0.21916E-03   -0.28216E-03  3304   0.206E-01    0.296E-02
DAV:   3    -0.152587186283E+03    0.23849E-04   -0.45104E-05  3104   0.401E-02    0.211E-02
DAV:   4    -0.152587165021E+03    0.21262E-04   -0.41793E-05  2896   0.420E-02    0.918E-03
DAV:   5    -0.152587154657E+03    0.10365E-04   -0.16650E-05  2152   0.311E-02    0.618E-03
DAV:   6    -0.152587144080E+03    0.10576E-04   -0.11924E-05  2168   0.325E-02    0.373E-03
DAV:   7    -0.152587137699E+03    0.63812E-05   -0.10204E-05  2024   0.251E-02
   5 F= -.15258714E+03 E0= -.15258417E+03  d E =-.566633E-03
       N       E                     dE             d eps       ncg     rms          rms(c)
DAV:   1    -0.152587124697E+03    0.19383E-04   -0.20010E-01  2952   0.192E+00    0.619E-02
DAV:   2    -0.152587576185E+03   -0.45149E-03   -0.50909E-03  3192   0.270E-01    0.341E-02
DAV:   3    -0.152587544914E+03    0.31271E-04   -0.66018E-05  3280   0.463E-02    0.239E-02
DAV:   4    -0.152587519530E+03    0.25384E-04   -0.38997E-05  2984   0.471E-02    0.102E-02
DAV:   5    -0.152587508668E+03    0.10862E-04   -0.28740E-05  2736   0.439E-02    0.596E-03
DAV:   6    -0.152587505133E+03    0.35351E-05   -0.19888E-05  2240   0.310E-02
   6 F= -.15258751E+03 E0= -.15258454E+03  d E =-.367434E-03
       N       E                     dE             d eps       ncg     rms          rms(c)
DAV:   1    -0.152586945579E+03    0.56309E-03   -0.34633E-01  2928   0.253E+00    0.800E-02
DAV:   2    -0.152587707580E+03   -0.76200E-03   -0.87188E-03  3228   0.354E-01    0.457E-02
DAV:   3    -0.152587640951E+03    0.66629E-04   -0.99615E-05  3320   0.598E-02    0.317E-02
DAV:   4    -0.152587576157E+03    0.64793E-04   -0.78089E-05  3304   0.706E-02    0.130E-02
DAV:   5    -0.152587545727E+03    0.30431E-04   -0.67756E-05  3320   0.635E-02    0.844E-03
DAV:   6    -0.152587529949E+03    0.15778E-04   -0.32395E-05  2680   0.459E-02    0.572E-03
DAV:   7    -0.152587507609E+03    0.22340E-04   -0.10383E-05  2176   0.556E-02    0.536E-03
DAV:   8    -0.152587492151E+03    0.15457E-04   -0.24636E-05  2680   0.539E-02    0.475E-03
DAV:   9    -0.152587484702E+03    0.74492E-05   -0.17852E-05  2296   0.391E-02
   7 F= -.15258748E+03 E0= -.15258453E+03  d E =-.347003E-03
       N       E                     dE             d eps       ncg     rms          rms(c)
DAV:   1    -0.152587446968E+03    0.45183E-04   -0.52747E-02  3024   0.992E-01    0.339E-02
DAV:   2    -0.152587575882E+03   -0.12891E-03   -0.14790E-03  3248   0.147E-01    0.211E-02
DAV:   3    -0.152587564214E+03    0.11668E-04   -0.18758E-05  2308   0.295E-02    0.145E-02
DAV:   4    -0.152587553565E+03    0.10649E-04   -0.27559E-05  2692   0.396E-02    0.503E-03
DAV:   5    -0.152587552124E+03    0.14414E-05   -0.15974E-05  1948   0.223E-02    0.461E-03
DAV:   6    -0.152587550946E+03    0.11779E-05   -0.44994E-06  1716   0.108E-02
   8 F= -.15258755E+03 E0= -.15258460E+03  d E =-.413247E-03
       N       E                     dE             d eps       ncg     rms          rms(c)
DAV:   1    -0.152587504925E+03    0.47199E-04   -0.32161E-02  2928   0.775E-01    0.244E-02
DAV:   2    -0.152587572156E+03   -0.67231E-04   -0.79049E-04  3256   0.109E-01    0.137E-02
DAV:   3    -0.152587565897E+03    0.62594E-05   -0.11956E-05  2176   0.207E-02    0.960E-03
DAV:   4    -0.152587559694E+03    0.62025E-05   -0.59085E-06  2016   0.201E-02    0.441E-03
DAV:   5    -0.152587555430E+03    0.42645E-05   -0.75052E-06  2156   0.251E-02    0.270E-03
DAV:   6    -0.152587554245E+03    0.11849E-05   -0.69846E-06  1752   0.173E-02
   9 F= -.15258755E+03 E0= -.15258460E+03  d E =-.416546E-03
       N       E                     dE             d eps       ncg     rms          rms(c)
DAV:   1    -0.152587594793E+03   -0.39363E-04   -0.96234E-02  2952   0.136E+00    0.419E-02
DAV:   2    -0.152587795277E+03   -0.20048E-03   -0.23142E-03  3260   0.196E-01    0.252E-02
DAV:   3    -0.152587777057E+03    0.18220E-04   -0.35469E-05  2968   0.361E-02    0.181E-02
DAV:   4    -0.152587756191E+03    0.20866E-04   -0.24522E-05  2592   0.438E-02    0.773E-03
DAV:   5    -0.152587746421E+03    0.97700E-05   -0.19505E-05  2108   0.429E-02    0.658E-03
DAV:   6    -0.152587740309E+03    0.61116E-05   -0.16049E-05  2244   0.370E-02
  10 F= -.15258774E+03 E0= -.15258478E+03  d E =-.186064E-03
