 vasp.5.3.5 31Mar14 (build Apr 08 2024 10:12:10) complex                        
  
 executed on             LinuxIFC date 2024.07.29  10:13:03
 running on    8 total cores
 distrk:  each k-point on    8 cores,    1 groups
 distr:  one band on NCORES_PER_BAND=   4 cores,    2 groups


--------------------------------------------------------------------------------------------------------


 INCAR:
 POTCAR:    PAW_PBE O 08Apr2002                   
 POTCAR:    PAW_PBE Mg 13Apr2007                  
 POTCAR:    PAW_PBE Al 04Jan2001                  
 POTCAR:    PAW_PBE O 08Apr2002                   
   VRHFIN =O: s2p4                                                              
   LEXCH  = PE                                                                  
   EATOM  =   432.3788 eV,   31.7789 Ry                                         
                                                                                
   TITEL  = PAW_PBE O 08Apr2002                                                 
   LULTRA =        F    use ultrasoft PP ?                                      
   IUNSCR =        1    unscreen: 0-lin 1-nonlin 2-no                           
   RPACOR =    1.200    partial core radius                                     
   POMASS =   16.000; ZVAL   =    6.000    mass and valenz                      
   RCORE  =    1.520    outmost cutoff radius                                   
   RWIGS  =    1.550; RWIGS  =    0.820    wigner-seitz radius (au A)           
   ENMAX  =  400.000; ENMIN  =  300.000 eV                                      
   ICORE  =        2    local potential                                         
   LCOR   =        T    correct aug charges                                     
   LPAW   =        T    paw PP                                                  
   EAUG   =  605.392                                                            
   DEXC   =    0.000                                                            
   RMAX   =    1.553    core radius for proj-oper                               
   RAUG   =    1.300    factor for augmentation sphere                          
   RDEP   =    1.550    radius for radial grids                                 
   RDEPT  =    1.329    core radius for aug-charge                              
                                                                                
   Atomic configuration                                                         
    4 entries                                                                   
     n  l   j            E        occ.                                          
     1  0  0.50      -514.6923   2.0000                                         
     2  0  0.50       -23.9615   2.0000                                         
     2  1  0.50        -9.0305   4.0000                                         
     3  2  1.50        -9.5241   0.0000                                         
   Description                                                                  
     l       E           TYP  RCUT    TYP  RCUT                                 
     0    -23.9615318     23  1.200                                             
     0     -9.5240782     23  1.200                                             
     1     -9.0304911     23  1.520                                             
     1      8.1634956     23  1.520                                             
     2     -9.5240782      7  1.500                                             
  local pseudopotential read in
  partial core-charges read in
  partial kinetic energy density read in
  kinetic energy density of atom read in
  atomic valenz-charges read in
  non local Contribution for L=           0  read in
    real space projection operators read in
  non local Contribution for L=           0  read in
    real space projection operators read in
  non local Contribution for L=           1  read in
    real space projection operators read in
  non local Contribution for L=           1  read in
    real space projection operators read in
    PAW grid and wavefunctions read in
 
   number of l-projection  operators is LMAX  =           4
   number of lm-projection operators is LMMAX =           8
 
 POTCAR:    PAW_PBE Mg 13Apr2007                  
   VRHFIN =Mg: s2p0                                                             
   LEXCH  = PE                                                                  
   EATOM  =    23.0369 eV,    1.6932 Ry                                         
                                                                                
   TITEL  = PAW_PBE Mg 13Apr2007                                                
   LULTRA =        F    use ultrasoft PP ?                                      
   IUNSCR =        1    unscreen: 0-lin 1-nonlin 2-no                           
   RPACOR =    1.500    partial core radius                                     
   POMASS =   24.305; ZVAL   =    2.000    mass and valenz                      
   RCORE  =    2.000    outmost cutoff radius                                   
   RWIGS  =    2.880; RWIGS  =    1.524    wigner-seitz radius (au A)           
   ENMAX  =  200.000; ENMIN  =  100.000 eV                                      
   RCLOC  =    1.506    cutoff for local pot                                    
   LCOR   =        T    correct aug charges                                     
   LPAW   =        T    paw PP                                                  
   EAUG   =  454.734                                                            
   DEXC   =    0.000                                                            
   RMAX   =    2.045    core radius for proj-oper                               
   RAUG   =    1.300    factor for augmentation sphere                          
   RDEP   =    2.025    radius for radial grids                                 
   RDEPT  =    1.942    core radius for aug-charge                              
                                                                                
   Atomic configuration                                                         
    6 entries                                                                   
     n  l   j            E        occ.                                          
     1  0  0.50     -1259.6230   2.0000                                         
     2  0  0.50       -79.8442   2.0000                                         
     2  1  1.50       -46.6121   6.0000                                         
     3  0  0.50        -4.7055   2.0000                                         
     3  1  0.50        -1.3660   0.0000                                         
     3  2  1.50        -1.3606   0.0000                                         
   Description                                                                  
     l       E           TYP  RCUT    TYP  RCUT                                 
     0     -4.7054661     23  2.000                                             
     0     27.2116520     23  2.000                                             
     1      1.3605826     23  2.000                                             
     1     27.2116520     23  2.000                                             
     2     -1.3605826     23  2.000                                             
  local pseudopotential read in
  partial core-charges read in
  partial kinetic energy density read in
  atomic valenz-charges read in
  non local Contribution for L=           0  read in
    real space projection operators read in
  non local Contribution for L=           0  read in
    real space projection operators read in
  non local Contribution for L=           1  read in
    real space projection operators read in
  non local Contribution for L=           1  read in
    real space projection operators read in
  non local Contribution for L=           2  read in
    real space projection operators read in
    PAW grid and wavefunctions read in
 
   number of l-projection  operators is LMAX  =           5
   number of lm-projection operators is LMMAX =          13
 
 POTCAR:    PAW_PBE Al 04Jan2001                  
   VRHFIN =Al: s2p1                                                             
   LEXCH  = PE                                                                  
   EATOM  =    53.5387 eV,    3.9350 Ry                                         
                                                                                
   TITEL  = PAW_PBE Al 04Jan2001                                                
   LULTRA =        F    use ultrasoft PP ?                                      
   IUNSCR =        1    unscreen: 0-lin 1-nonlin 2-no                           
   RPACOR =    1.500    partial core radius                                     
   POMASS =   26.981; ZVAL   =    3.000    mass and valenz                      
   RCORE  =    1.900    outmost cutoff radius                                   
   RWIGS  =    2.650; RWIGS  =    1.402    wigner-seitz radius (au A)           
   ENMAX  =  240.300; ENMIN  =  180.225 eV                                      
   ICORE  =        2    local potential                                         
   LCOR   =        T    correct aug charges                                     
   LPAW   =        T    paw PP                                                  
   EAUG   =  291.052                                                            
   DEXC   =    0.000                                                            
   RMAX   =    1.939    core radius for proj-oper                               
   RAUG   =    1.300    factor for augmentation sphere                          
   RDEP   =    1.966    radius for radial grids                                 
   RDEPT  =    1.856    core radius for aug-charge                              
                                                                                
   Atomic configuration                                                         
    6 entries                                                                   
     n  l   j            E        occ.                                          
     1  0  0.50     -1511.1048   2.0000                                         
     2  0  0.50      -108.1629   2.0000                                         
     2  1  1.50       -69.6402   6.0000                                         
     3  0  0.50        -7.7528   2.0000                                         
     3  1  1.50        -2.7121   1.0000                                         
     3  2  2.50        -2.7212   0.0000                                         
   Description                                                                  
     l       E           TYP  RCUT    TYP  RCUT                                 
     0     -7.7528455     23  1.900                                             
     0     -3.3096929     23  1.900                                             
     1     -2.7120682     23  1.900                                             
     1     13.6058260     23  1.900                                             
     2     -2.7211652      7  1.900                                             
  local pseudopotential read in
  partial core-charges read in
  partial kinetic energy density read in
  atomic valenz-charges read in
  non local Contribution for L=           0  read in
    real space projection operators read in
  non local Contribution for L=           0  read in
    real space projection operators read in
  non local Contribution for L=           1  read in
    real space projection operators read in
  non local Contribution for L=           1  read in
    real space projection operators read in
    PAW grid and wavefunctions read in
 
   number of l-projection  operators is LMAX  =           4
   number of lm-projection operators is LMMAX =           8
 

 ----------------------------------------------------------------------------- 
|                                                                             |
|  ADVICE TO THIS USER RUNNING 'VASP/VAMP'   (HEAR YOUR MASTER'S VOICE ...):  |
|                                                                             |
|      You have a (more or less) 'large supercell' and for larger cells       |
|      it might be more efficient to use real space projection opertators     |
|      So try LREAL= Auto  in the INCAR   file.                               |
|      Mind: At the moment your POTCAR file does not contain real space       |
|       projectors, and has to be modified,  BUT if you                       |
|      want to do an extremely  accurate calculation you might also keep the  |
|      reciprocal projection scheme          (i.e. LREAL=.FALSE.)             |
|                                                                             |
 ----------------------------------------------------------------------------- 

  PAW_PBE O 08Apr2002                   :
 energy of atom  1       EATOM= -432.3788
 kinetic energy error for atom=    0.0208 (will be added to EATOM!!)
  PAW_PBE Mg 13Apr2007                  :
 energy of atom  2       EATOM=  -23.0369
 kinetic energy error for atom=    0.0000 (will be added to EATOM!!)
  PAW_PBE Al 04Jan2001                  :
 energy of atom  3       EATOM=  -53.5387
 kinetic energy error for atom=    0.0002 (will be added to EATOM!!)
 
 
 POSCAR: Layer                                   
  positions in direct lattice
  velocities in cartesian coordinates
 exchange correlation table for  LEXCH =        8
   RHO(1)=    0.500       N(1)  =     2000
   RHO(2)=  100.500       N(2)  =     4000
 


--------------------------------------------------------------------------------------------------------


 ion  position               nearest neighbor table
   1  0.333  0.667  0.222-  12 2.14  12 2.14  12 2.14  23 2.26  23 2.26  23 2.26
   2  0.000  0.000  0.344-  16 2.12  16 2.12  16 2.12  19 2.12  19 2.12  19 2.12
   3  0.333  0.667  0.404-  13 2.12  13 2.12  13 2.12  16 2.12  16 2.12  16 2.12
   4  0.000  0.000  0.525-  20 2.12  20 2.12  20 2.12  17 2.12  17 2.12  17 2.12
   5  0.333  0.667  0.585-  17 2.12  17 2.12  17 2.12  14 2.12  14 2.12  14 2.12
   6  0.000  0.000  0.705-  21 2.12  21 2.12  21 2.12  18 2.12  18 2.12  18 2.12
   7  0.333  0.667  0.765-  15 2.12  15 2.12  15 2.12  18 2.12  18 2.12  18 2.12
   8  0.667  0.333  0.284-  19 2.12  19 2.12  19 2.12  12 2.12  12 2.12  12 2.12
   9  0.667  0.333  0.464-  20 2.12  20 2.12  20 2.12  13 2.12  13 2.12  13 2.12
  10  0.667  0.333  0.645-  14 2.12  14 2.12  14 2.12  21 2.12  21 2.12  21 2.12
  11  0.667  0.333  0.827-  15 2.14  15 2.14  15 2.14  26 2.26  26 2.26  26 2.26
  12  0.000  0.000  0.254-   8 2.12   8 2.12   8 2.12   1 2.14   1 2.14   1 2.14  23 2.76  19 3.02
                            19 3.02  19 3.02
  13  0.000  0.000  0.434-   3 2.12   3 2.12   3 2.12   9 2.12   9 2.12   9 2.12  20 3.02  20 3.02
                            20 3.02  16 3.02  16 3.02  16 3.02
  14  0.000  0.000  0.615-  10 2.12  10 2.12  10 2.12   5 2.12   5 2.12   5 2.12  17 3.02  17 3.02
                            17 3.02  21 3.02  21 3.02  21 3.02
  15  0.000  0.000  0.796-   7 2.12   7 2.12   7 2.12  11 2.14  11 2.14  11 2.14  26 2.76  18 3.02
                            18 3.02  18 3.02
  16  0.667  0.333  0.374-   2 2.12   2 2.12   2 2.12   3 2.12   3 2.12   3 2.12  13 3.02  13 3.02
                            13 3.02  19 3.02  19 3.02  19 3.02
  17  0.667  0.333  0.555-   5 2.12   5 2.12   5 2.12   4 2.12   4 2.12   4 2.12  20 3.02  20 3.02
                            20 3.02  14 3.02  14 3.02  14 3.02
  18  0.667  0.333  0.735-   6 2.12   6 2.12   6 2.12   7 2.12   7 2.12   7 2.12  15 3.02  15 3.02
                            15 3.02  21 3.02  21 3.02  21 3.02
  19  0.333  0.667  0.314-   8 2.12   8 2.12   8 2.12   2 2.12   2 2.12   2 2.12  16 3.02  16 3.02
                            16 3.02  12 3.02  12 3.02  12 3.02
  20  0.333  0.667  0.494-   4 2.12   4 2.12   4 2.12   9 2.12   9 2.12   9 2.12  17 3.02  17 3.02
                            17 3.02  13 3.02  13 3.02  13 3.02
  21  0.333  0.667  0.675-   6 2.12   6 2.12   6 2.12  10 2.12  10 2.12  10 2.12  14 3.02  14 3.02
                            14 3.02  18 3.02  18 3.02  18 3.02
  22  0.000  0.000  0.025-  25 2.83  25 2.83  25 2.83  27 2.83  27 2.83  27 2.83
  23  0.000  0.000  0.187-   1 2.26   1 2.26   1 2.26  12 2.76  24 2.76  24 2.76  24 2.76
  24  0.667  0.333  0.134-  23 2.76  23 2.76  23 2.76  25 2.84  25 2.84  25 2.84
  25  0.333  0.667  0.079-  22 2.83  22 2.83  22 2.83  24 2.84  24 2.84  24 2.84
  26  0.000  0.000  0.862-  11 2.26  11 2.26  11 2.26  15 2.76  28 2.76  28 2.76  28 2.76
  27  0.667  0.333  0.970-  22 2.83  22 2.83  22 2.83  28 2.84  28 2.84  28 2.84
  28  0.333  0.667  0.915-  26 2.76  26 2.76  26 2.76  27 2.84  27 2.84  27 2.84
 
  LATTYP: Found a hexagonal cell.
 ALAT       =     2.9737040142
 C/A-ratio  =    13.8613626310
  
  Lattice vectors:
  
 A1 = (   2.5753034102,  -1.4868516771,   0.0000000000)
 A2 = (   0.0000000000,   2.9737033542,   0.0000000000)
 A3 = (  -0.0000000000,   0.0000000000,  41.2195896982)


Analysis of symmetry for initial positions (statically):
=====================================================================
 Subroutine PRICEL returns:
 Original cell was already a primitive cell.
 

 Routine SETGRP: Setting up the symmetry group for a 
 hexagonal supercell.


 Subroutine GETGRP returns: Found  6 space group operations
 (whereof  6 operations were pure point group operations)
 out of a pool of 24 trial point group operations.


The static configuration has the point symmetry C_3v.


Analysis of symmetry for dynamics (positions and initial velocities):
=====================================================================
 Subroutine PRICEL returns:
 Original cell was already a primitive cell.
 

 Routine SETGRP: Setting up the symmetry group for a 
 hexagonal supercell.


 Subroutine GETGRP returns: Found  6 space group operations
 (whereof  6 operations were pure point group operations)
 out of a pool of 24 trial point group operations.


The dynamic configuration has the point symmetry C_3v.


Analysis of constrained symmetry for selective dynamics:
=====================================================================
 Subroutine PRICEL returns:
 Original cell was already a primitive cell.
 

 Routine SETGRP: Setting up the symmetry group for a 
 hexagonal supercell.


 Subroutine GETGRP returns: Found  6 space group operations
 (whereof  6 operations were pure point group operations)
 out of a pool of 24 trial point group operations.


The constrained configuration has the point symmetry C_3v.
 
 
 KPOINTS: K-Spacing Value to Generate K-Mesh: 0.02

Automatic generation of k-mesh.
Space group operators:
 irot       det(A)        alpha          n_x          n_y          n_z        tau_x        tau_y        tau_z
    1     1.000000     0.000001     1.000000     0.000000     0.000000     0.000000     0.000000     0.000000
    2     1.000000   120.000000     0.000000     0.000000    -1.000000     0.000000     0.000000     0.000000
    3     1.000000   120.000000    -0.000000     0.000000     1.000000     0.000000     0.000000     0.000000
    4    -1.000000   180.000000    -0.866025     0.500000    -0.000000     0.000000     0.000000     0.000000
    5    -1.000000   180.000000     0.000000     1.000000     0.000000     0.000000     0.000000     0.000000
    6    -1.000000   180.000000    -0.866025    -0.500000    -0.000000     0.000000     0.000000     0.000000
 
 Subroutine IBZKPT returns following result:
 ===========================================
 
 Found     21 irreducible k-points:
 
 Following reciprocal coordinates:
            Coordinates               Weight
  0.000000  0.000000  0.000000      1.000000
  0.076923  0.000000  0.000000      6.000000
  0.153846  0.000000  0.000000      6.000000
  0.230769  0.000000  0.000000      6.000000
  0.307692  0.000000  0.000000      6.000000
  0.384615  0.000000  0.000000      6.000000
  0.461538  0.000000  0.000000      6.000000
  0.076923  0.076923  0.000000      6.000000
  0.153846  0.076923  0.000000     12.000000
  0.230769  0.076923  0.000000     12.000000
  0.307692  0.076923  0.000000     12.000000
  0.384615  0.076923  0.000000     12.000000
  0.461538  0.076923  0.000000      6.000000
  0.153846  0.153846  0.000000      6.000000
  0.230769  0.153846  0.000000     12.000000
  0.307692  0.153846  0.000000     12.000000
  0.384615  0.153846  0.000000     12.000000
  0.230769  0.230769  0.000000      6.000000
  0.307692  0.230769  0.000000     12.000000
  0.384615  0.230769  0.000000      6.000000
  0.307692  0.307692  0.000000      6.000000
 
 Following cartesian coordinates:
            Coordinates               Weight
  0.000000  0.000000  0.000000      1.000000
  0.029870  0.000000  0.000000      6.000000
  0.059739  0.000000  0.000000      6.000000
  0.089609  0.000000  0.000000      6.000000
  0.119478  0.000000  0.000000      6.000000
  0.149348  0.000000  0.000000      6.000000
  0.179217  0.000000  0.000000      6.000000
  0.044804  0.025868  0.000000      6.000000
  0.074674  0.025868  0.000000     12.000000
  0.104543  0.025868  0.000000     12.000000
  0.134413  0.025868  0.000000     12.000000
  0.164282  0.025868  0.000000     12.000000
  0.194152  0.025868  0.000000      6.000000
  0.089609  0.051736  0.000000      6.000000
  0.119478  0.051736  0.000000     12.000000
  0.149348  0.051736  0.000000     12.000000
  0.179217  0.051736  0.000000     12.000000
  0.134413  0.077603  0.000000      6.000000
  0.164282  0.077603  0.000000     12.000000
  0.194152  0.077603  0.000000      6.000000
  0.179217  0.103471  0.000000      6.000000
 


--------------------------------------------------------------------------------------------------------




 Dimension of arrays:
   k-points           NKPTS =     21   k-points in BZ     NKDIM =     21   number of bands    NBANDS=     68
   number of dos      NEDOS =    301   number of ions     NIONS =     28
   non local maximal  LDIM  =      5   non local SUM 2l+1 LMDIM =     13
   total plane-waves  NPLWV = 184320
   max r-space proj   IRMAX =      1   max aug-charges    IRDMAX= 198610
   dimension x,y,z NGX =    24 NGY =   24 NGZ =  320
   dimension x,y,z NGXF=    48 NGYF=   48 NGZF=  640
   support grid    NGXF=    96 NGYF=   96 NGZF= 1280
   ions per type =              11  10   7
 NGX,Y,Z   is equivalent  to a cutoff of  13.42, 13.42, 12.91 a.u.
 NGXF,Y,Z  is equivalent  to a cutoff of  26.83, 26.83, 25.81 a.u.


 I would recommend the setting:
   dimension x,y,z NGX =    22 NGY =   22 NGZ =  307
 SYSTEM =  unknown system                          
 POSCAR =  Layer                                   

 Startparameter for this run:
   NWRITE =      2    write-flag & timer
   PREC   = accura    normal or accurate (medium, high low for compatibility)
   ISTART =      0    job   : 0-new  1-cont  2-samecut
   ICHARG =      2    charge: 1-file 2-atom 10-const
   ISPIN  =      1    spin polarized calculation?
   LNONCOLLINEAR =      F non collinear calculations
   LSORBIT =      F    spin-orbit coupling
   INIWAV =      1    electr: 0-lowe 1-rand  2-diag
   LASPH  =      F    aspherical Exc in radial PAW
   METAGGA=      F    non-selfconsistent MetaGGA calc.

 Electronic Relaxation 1
   ENCUT  =  520.0 eV  38.22 Ry    6.18 a.u.   5.53  5.53 76.64*2*pi/ulx,y,z
   ENINI  =  520.0     initial cutoff
   ENAUG  =  605.4 eV  augmentation charge cutoff
   NELM   =    100;   NELMIN=  6; NELMDL=  0     # of ELM steps 
   EDIFF  = 0.1E-04   stopping-criterion for ELM
   LREAL  =      F    real-space projection
   NLSPLINE    = F    spline interpolate recip. space projectors
   LCOMPAT=      F    compatible to vasp.4.4
   GGA_COMPAT  = T    GGA compatible to vasp.4.4-vasp.4.6
   LMAXPAW     = -100 max onsite density
   LMAXMIX     =    2 max onsite mixed and CHGCAR
   VOSKOWN=      0    Vosko Wilk Nusair interpolation
   ROPT   =    0.00000   0.00000   0.00000
 Ionic relaxation
   EDIFFG = -.2E-01   stopping-criterion for IOM
   NSW    =    500    number of steps for IOM
   NBLOCK =      1;   KBLOCK =    500    inner block; outer block 
   IBRION =      2    ionic relax: 0-MD 1-quasi-New 2-CG
   NFREE  =      1    steps in history (QN), initial steepest desc. (CG)
   ISIF   =      2    stress and relaxation
   IWAVPR =     11    prediction:  0-non 1-charg 2-wave 3-comb
   ISYM   =      2    0-nonsym 1-usesym 2-fastsym
   LCORR  =      T    Harris-Foulkes like correction to forces

   POTIM  = 0.5000    time-step for ionic-motion
   TEIN   =    0.0    initial temperature
   TEBEG  =    0.0;   TEEND  =   0.0 temperature during run
   SMASS  =  -3.00    Nose mass-parameter (am)
   estimated Nose-frequenzy (Omega)   =  0.10E-29 period in steps =****** mass=  -0.202E-27a.u.
   SCALEE = 1.0000    scale energy and forces
   NPACO  =    256;   APACO  = 16.0  distance and # of slots for P.C.
   PSTRESS=    0.0 pullay stress

  Mass of Ions in am
   POMASS =  16.00 24.30 26.98
  Ionic Valenz
   ZVAL   =   6.00  2.00  3.00
  Atomic Wigner-Seitz radii
   RWIGS  =  -1.00 -1.00 -1.00
  virtual crystal weights 
   VCA    =   1.00  1.00  1.00
   NELECT =     107.0000    total number of electrons
   NUPDOWN=      -1.0000    fix difference up-down

 DOS related values:
   EMIN   =  10.00;   EMAX   =-10.00  energy-range for DOS
   EFERMI =   0.00
   ISMEAR =     0;   SIGMA  =   0.05  broadening in eV -4-tet -1-fermi 0-gaus

 Electronic relaxation 2 (details)
   IALGO  =     38    algorithm
   LDIAG  =      T    sub-space diagonalisation (order eigenvalues)
   LSUBROT=      F    optimize rotation matrix (better conditioning)
   TURBO    =      0    0=normal 1=particle mesh
   IRESTART =      0    0=no restart 2=restart with 2 vectors
   NREBOOT  =      0    no. of reboots
   NMIN     =      0    reboot dimension
   EREF     =   0.00    reference energy to select bands
   IMIX   =      4    mixing-type and parameters
     AMIX     =   0.40;   BMIX     =  1.00
     AMIX_MAG =   1.60;   BMIX_MAG =  1.00
     AMIN     =   0.01
     WC   =   100.;   INIMIX=   1;  MIXPRE=   1;  MAXMIX= -45

 Intra band minimization:
   WEIMIN = 0.0010     energy-eigenvalue tresh-hold
   EBREAK =  0.37E-07  absolut break condition
   DEPER  =   0.30     relativ break condition  

   TIME   =   0.40     timestep for ELM

  volume/ion in A,a.u.               =      11.27        76.08
  Fermi-wavevector in a.u.,A,eV,Ry     =   1.141457  2.157041 17.727355  1.302924
  Thomas-Fermi vector in A             =   2.278157
 
 Write flags
   LWAVE  =      F    write WAVECAR
   LCHARG =      T    write CHGCAR
   LVTOT  =      F    write LOCPOT, total local potential
   LVHAR  =      F    write LOCPOT, Hartree potential only
   LELF   =      F    write electronic localiz. function (ELF)
   LORBIT =      0    0 simple, 1 ext, 2 COOP (PROOUT)


 Dipole corrections
   LMONO  =      F    monopole corrections only (constant potential shift)
   LDIPOL =      F    correct potential (dipole corrections)
   IDIPOL =      0    1-x, 2-y, 3-z, 4-all directions 
   EPSILON=  1.0000000 bulk dielectric constant

 Exchange correlation treatment:
   GGA     =    --    GGA type
   LEXCH   =     8    internal setting for exchange type
   VOSKOWN=      0    Vosko Wilk Nusair interpolation
   LHFCALC =     F    Hartree Fock is set to
   LHFONE  =     F    Hartree Fock one center treatment
   AEXX    =    0.0000 exact exchange contribution

 Linear response parameters
   LEPSILON=     F    determine dielectric tensor
   LRPA    =     F    only Hartree local field effects (RPA)
   LNABLA  =     F    use nabla operator in PAW spheres
   LVEL    =     F    velocity operator in full k-point grid
   LINTERFAST=   F  fast interpolation
   KINTER  =     0    interpolate to denser k-point grid
   CSHIFT  =0.1000    complex shift for real part using Kramers Kronig
   OMEGAMAX=  -1.0    maximum frequency
   DEG_THRESHOLD= 0.2000000E-02 threshold for treating states as degnerate
   RTIME   =    0.100 relaxation time in fs

 Orbital magnetization related:
   ORBITALMAG=     F  switch on orbital magnetization
   LCHIMAG   =     F  perturbation theory with respect to B field
   DQ        =  0.001000  dq finite difference perturbation B field



--------------------------------------------------------------------------------------------------------


 conjugate gradient relaxation of ions
   using selective dynamics as specified on POSCAR
 charge density and potential will be updated during run
 non-spin polarized calculation
 Variant of blocked Davidson
 Davidson routine will perform the subspace rotation
 perform sub-space diagonalisation
    after iterative eigenvector-optimisation
 modified Broyden-mixing scheme, WC =      100.0
 initial mixing is a Kerker type mixing with AMIX =  0.4000 and BMIX =      1.0000
 Hartree-type preconditioning will be used
 using additional bands           14
 reciprocal scheme for non local part
 use partial core corrections
 calculate Harris-corrections to forces 
   (improved forces if not selfconsistent)
 use gradient corrections 
 use of overlap-Matrix (Vanderbilt PP)
 Gauss-broadening in eV      SIGMA  =   0.05


--------------------------------------------------------------------------------------------------------


  energy-cutoff  :      520.00
  volume of cell :      315.67
      direct lattice vectors                 reciprocal lattice vectors
     2.575303410 -1.486851677  0.000000000     0.388303761  0.000000000  0.000000000
     0.000000000  2.973703354  0.000000000     0.194151881  0.336281021  0.000000000
    -0.000000000  0.000000000 41.219589698     0.000000000  0.000000000  0.024260309

  length of vectors
     2.973704014  2.973703354 41.219589698     0.388303761  0.388303847  0.024260309


 
 k-points in units of 2pi/SCALE and weight: K-Spacing Value to Generate K-Mesh: 0.02
   0.00000000  0.00000000  0.00000000       0.006
   0.02986952  0.00000000  0.00000000       0.036
   0.05973904  0.00000000  0.00000000       0.036
   0.08960856  0.00000000  0.00000000       0.036
   0.11947808  0.00000000  0.00000000       0.036
   0.14934760  0.00000000  0.00000000       0.036
   0.17921712  0.00000000  0.00000000       0.036
   0.04480428  0.02586777  0.00000000       0.036
   0.07467380  0.02586777  0.00000000       0.071
   0.10454332  0.02586777  0.00000000       0.071
   0.13441284  0.02586777  0.00000000       0.071
   0.16428236  0.02586777  0.00000000       0.071
   0.19415188  0.02586777  0.00000000       0.036
   0.08960856  0.05173554  0.00000000       0.036
   0.11947808  0.05173554  0.00000000       0.071
   0.14934760  0.05173554  0.00000000       0.071
   0.17921712  0.05173554  0.00000000       0.071
   0.13441284  0.07760331  0.00000000       0.036
   0.16428236  0.07760331  0.00000000       0.071
   0.19415188  0.07760331  0.00000000       0.036
   0.17921712  0.10347108  0.00000000       0.036
 
 k-points in reciprocal lattice and weights: K-Spacing Value to Generate K-Mesh: 0.02
   0.00000000  0.00000000  0.00000000       0.006
   0.07692308  0.00000000  0.00000000       0.036
   0.15384615  0.00000000  0.00000000       0.036
   0.23076923  0.00000000  0.00000000       0.036
   0.30769231  0.00000000  0.00000000       0.036
   0.38461538  0.00000000  0.00000000       0.036
   0.46153846  0.00000000  0.00000000       0.036
   0.07692308  0.07692308  0.00000000       0.036
   0.15384615  0.07692308  0.00000000       0.071
   0.23076923  0.07692308  0.00000000       0.071
   0.30769231  0.07692308  0.00000000       0.071
   0.38461538  0.07692308  0.00000000       0.071
   0.46153846  0.07692308  0.00000000       0.036
   0.15384615  0.15384615  0.00000000       0.036
   0.23076923  0.15384615  0.00000000       0.071
   0.30769231  0.15384615  0.00000000       0.071
   0.38461538  0.15384615  0.00000000       0.071
   0.23076923  0.23076923  0.00000000       0.036
   0.30769231  0.23076923  0.00000000       0.071
   0.38461538  0.23076923  0.00000000       0.036
   0.30769231  0.30769231  0.00000000       0.036
 
 position of ions in fractional coordinates (direct lattice) 
   0.33333300  0.66666700  0.22239244
   0.00000000  0.00000000  0.34398692
   0.33333300  0.66666700  0.40418352
   0.00000000  0.00000000  0.52452532
   0.33333300  0.66666700  0.58469412
   0.00000000  0.00000000  0.70515397
   0.33333300  0.66666700  0.76546482
   0.66666700  0.33333300  0.28367282
   0.66666700  0.33333300  0.46436834
   0.66666700  0.33333300  0.64491330
   0.66666700  0.33333300  0.82668838
   0.00000000  0.00000000  0.25353256
   0.00000000  0.00000000  0.43427009
   0.00000000  0.00000000  0.61480543
   0.00000000  0.00000000  0.79550804
   0.66666700  0.33333300  0.37405988
   0.66666700  0.33333300  0.55461738
   0.66666700  0.33333300  0.73527535
   0.33333300  0.66666700  0.31381183
   0.33333300  0.66666700  0.49444717
   0.33333300  0.66666700  0.67503904
   0.00000000  0.00000000  0.02454249
   0.00000000  0.00000000  0.18668971
   0.66666700  0.33333300  0.13416012
   0.33333300  0.66666700  0.07923475
   0.00000000  0.00000000  0.86235685
   0.66666700  0.33333300  0.96983342
   0.33333300  0.66666700  0.91492295
 
 position of ions in cartesian coordinates  (Angst):
   0.85843361  1.48685316  9.16692496
  -0.00000000  0.00000000 14.17899965
   0.85843361  1.48685316 16.66027891
  -0.00000000  0.00000000 21.62071833
   0.85843361  1.48685316 24.10085167
  -0.00000000  0.00000000 29.06615751
   0.85843361  1.48685316 31.55214584
   1.71686980 -0.00000149 11.69287725
   1.71686980 -0.00000149 19.14107254
   1.71686980 -0.00000149 26.58306148
   1.71686980 -0.00000149 34.07575582
  -0.00000000  0.00000000 10.45050797
  -0.00000000  0.00000000 17.90043491
  -0.00000000  0.00000000 25.34202771
  -0.00000000  0.00000000 32.79051507
   1.71686980 -0.00000149 15.41859479
   1.71686980 -0.00000149 22.86110072
   1.71686980 -0.00000149 30.30774841
   0.85843361  1.48685316 12.93519483
   0.85843361  1.48685316 20.38090945
   0.85843361  1.48685316 27.82483220
  -0.00000000  0.00000000  1.01163131
  -0.00000000  0.00000000  7.69527313
   1.71686980 -0.00000149  5.53002503
   0.85843361  1.48685316  3.26602373
  -0.00000000  0.00000000 35.54599542
   1.71686980 -0.00000149 39.97613576
   0.85843361  1.48685316 37.71274877
 


--------------------------------------------------------------------------------------------------------


 k-point  1 :   0.0000 0.0000 0.0000  plane waves:    8625
 k-point  2 :   0.0769 0.0000 0.0000  plane waves:    8643
 k-point  3 :   0.1538 0.0000 0.0000  plane waves:    8609
 k-point  4 :   0.2308 0.0000 0.0000  plane waves:    8558
 k-point  5 :   0.3077 0.0000 0.0000  plane waves:    8494
 k-point  6 :   0.3846 0.0000 0.0000  plane waves:    8460
 k-point  7 :   0.4615 0.0000 0.0000  plane waves:    8402
 k-point  8 :   0.0769 0.0769 0.0000  plane waves:    8603
 k-point  9 :   0.1538 0.0769 0.0000  plane waves:    8555
 k-point 10 :   0.2308 0.0769 0.0000  plane waves:    8515
 k-point 11 :   0.3077 0.0769 0.0000  plane waves:    8494
 k-point 12 :   0.3846 0.0769 0.0000  plane waves:    8448
 k-point 13 :   0.4615 0.0769 0.0000  plane waves:    8400
 k-point 14 :   0.1538 0.1538 0.0000  plane waves:    8501
 k-point 15 :   0.2308 0.1538 0.0000  plane waves:    8501
 k-point 16 :   0.3077 0.1538 0.0000  plane waves:    8481
 k-point 17 :   0.3846 0.1538 0.0000  plane waves:    8437
 k-point 18 :   0.2308 0.2308 0.0000  plane waves:    8491
 k-point 19 :   0.3077 0.2308 0.0000  plane waves:    8470
 k-point 20 :   0.3846 0.2308 0.0000  plane waves:    8470
 k-point 21 :   0.3077 0.3077 0.0000  plane waves:    8504

 maximum and minimum number of plane-waves per node :      2166     2087

 maximum number of plane-waves:      8643
 maximum index in each direction: 
   IXMAX=    5   IYMAX=    5   IZMAX=   76
   IXMIN=   -5   IYMIN=   -5   IZMIN=  -76

 NGX is ok and might be reduce to  22
 NGY is ok and might be reduce to  22
 NGZ is ok and might be reduce to 306

 parallel 3D FFT for wavefunctions:
    minimum data exchange during FFTs selected (reduces bandwidth)
 parallel 3D FFT for charge:
    minimum data exchange during FFTs selected (reduces bandwidth)


 total amount of memory used by VASP on root node   147961. kBytes
========================================================================

   base      :      30000. kBytes
   nonl-proj :      15120. kBytes
   fftplans  :      55169. kBytes
   grid      :      22118. kBytes
   one-center:         56. kBytes
   wavefun   :      25498. kBytes
 
     INWAV:  cpu time    0.00: real time    0.00
 Broyden mixing: mesh for mixing (old mesh)
   NGX = 11   NGY = 11   NGZ =153
  (NGX  = 48   NGY  = 48   NGZ  =640)
  gives a total of  18513 points

 initial charge density was supplied:
 charge density of overlapping atoms calculated
 number of electron     107.0000000 magnetization 
 keeping initial charge density in first step


--------------------------------------------------------------------------------------------------------


 Maximum index for augmentation-charges        23842 (set IRDMAX)


--------------------------------------------------------------------------------------------------------


 First call to EWALD:  gamma=   0.260
 Maximum number of real-space cells 6x 6x 1
 Maximum number of reciprocal cells 1x 1x14

 FEWALD executed in parallel
    FEWALD:  cpu time    0.00: real time    0.00


----------------------------------------- Iteration    1(   1)  ---------------------------------------


    POTLOK:  cpu time    0.11: real time    0.11
    SETDIJ:  cpu time    0.11: real time    0.11
     EDDAV:  cpu time    4.60: real time    4.62
       DOS:  cpu time    0.00: real time    0.00
    --------------------------------------------
      LOOP:  cpu time    4.82: real time    4.85

 eigenvalue-minimisations  :  2872
 total energy-change (2. order) : 0.5481799E+03  (-0.4918082E+04)
 number of electron     107.0000000 magnetization 
 augmentation part      107.0000000 magnetization 

 Free energy of the ion-electron system (eV)
  ---------------------------------------------------
  alpha Z        PSCENC =       159.97124542
  Ewald energy   TEWEN  =      7767.05251164
  -Hartree energ DENC   =    -13487.81732739
  -exchange      EXHF   =         0.00000000
  -V(xc)+E(xc)   XCENC  =      -361.19924467
  PAW double counting   =      4928.51229836    -4205.98855578
  entropy T*S    EENTRO =        -0.00847016
  eigenvalues    EBANDS =       386.58176017
  atomic energy  EATOM  =      5361.07568887
  ---------------------------------------------------
  free energy    TOTEN  =       548.17990646 eV

  energy without entropy =      548.18837662  energy(sigma->0) =      548.18414154


--------------------------------------------------------------------------------------------------------




----------------------------------------- Iteration    1(   2)  ---------------------------------------


     EDDAV:  cpu time    5.41: real time    5.42
       DOS:  cpu time    0.00: real time    0.00
    --------------------------------------------
      LOOP:  cpu time    5.41: real time    5.42

 eigenvalue-minimisations  :  3660
 total energy-change (2. order) :-0.6622340E+03  (-0.6317139E+03)
 number of electron     107.0000000 magnetization 
 augmentation part      107.0000000 magnetization 

 Free energy of the ion-electron system (eV)
  ---------------------------------------------------
  alpha Z        PSCENC =       159.97124542
  Ewald energy   TEWEN  =      7767.05251164
  -Hartree energ DENC   =    -13487.81732739
  -exchange      EXHF   =         0.00000000
  -V(xc)+E(xc)   XCENC  =      -361.19924467
  PAW double counting   =      4928.51229836    -4205.98855578
  entropy T*S    EENTRO =        -0.00576747
  eigenvalues    EBANDS =      -275.65497013
  atomic energy  EATOM  =      5361.07568887
  ---------------------------------------------------
  free energy    TOTEN  =      -114.05412115 eV

  energy without entropy =     -114.04835368  energy(sigma->0) =     -114.05123741


--------------------------------------------------------------------------------------------------------




----------------------------------------- Iteration    1(   3)  ---------------------------------------


     EDDAV:  cpu time    5.03: real time    5.04
       DOS:  cpu time    0.00: real time    0.00
    --------------------------------------------
      LOOP:  cpu time    5.03: real time    5.04

 eigenvalue-minimisations  :  3328
 total energy-change (2. order) :-0.5477162E+02  (-0.5448004E+02)
 number of electron     107.0000000 magnetization 
 augmentation part      107.0000000 magnetization 

 Free energy of the ion-electron system (eV)
  ---------------------------------------------------
  alpha Z        PSCENC =       159.97124542
  Ewald energy   TEWEN  =      7767.05251164
  -Hartree energ DENC   =    -13487.81732739
  -exchange      EXHF   =         0.00000000
  -V(xc)+E(xc)   XCENC  =      -361.19924467
  PAW double counting   =      4928.51229836    -4205.98855578
  entropy T*S    EENTRO =        -0.00542639
  eigenvalues    EBANDS =      -330.42693469
  atomic energy  EATOM  =      5361.07568887
  ---------------------------------------------------
  free energy    TOTEN  =      -168.82574463 eV

  energy without entropy =     -168.82031824  energy(sigma->0) =     -168.82303144


--------------------------------------------------------------------------------------------------------




----------------------------------------- Iteration    1(   4)  ---------------------------------------


     EDDAV:  cpu time    5.11: real time    5.12
       DOS:  cpu time    0.00: real time    0.00
    --------------------------------------------
      LOOP:  cpu time    5.11: real time    5.12

 eigenvalue-minimisations  :  3344
 total energy-change (2. order) :-0.6664089E+00  (-0.6651814E+00)
 number of electron     107.0000000 magnetization 
 augmentation part      107.0000000 magnetization 

 Free energy of the ion-electron system (eV)
  ---------------------------------------------------
  alpha Z        PSCENC =       159.97124542
  Ewald energy   TEWEN  =      7767.05251164
  -Hartree energ DENC   =    -13487.81732739
  -exchange      EXHF   =         0.00000000
  -V(xc)+E(xc)   XCENC  =      -361.19924467
  PAW double counting   =      4928.51229836    -4205.98855578
  entropy T*S    EENTRO =        -0.00557446
  eigenvalues    EBANDS =      -331.09319551
  atomic energy  EATOM  =      5361.07568887
  ---------------------------------------------------
  free energy    TOTEN  =      -169.49215352 eV

  energy without entropy =     -169.48657906  energy(sigma->0) =     -169.48936629


--------------------------------------------------------------------------------------------------------




----------------------------------------- Iteration    1(   5)  ---------------------------------------


     EDDAV:  cpu time    5.20: real time    5.21
       DOS:  cpu time    0.00: real time    0.00
    CHARGE:  cpu time    0.41: real time    0.41
    MIXING:  cpu time    0.00: real time    0.00
    --------------------------------------------
      LOOP:  cpu time    5.62: real time    5.63

 eigenvalue-minimisations  :  3488
 total energy-change (2. order) :-0.9986234E-02  (-0.9980819E-02)
 number of electron     107.0000001 magnetization 
 augmentation part        8.5169330 magnetization 

 Broyden mixing:
  rms(total) = 0.23875E+01    rms(broyden)= 0.23870E+01
  rms(prec ) = 0.24455E+01
  weight for this iteration     100.00

 Free energy of the ion-electron system (eV)
  ---------------------------------------------------
  alpha Z        PSCENC =       159.97124542
  Ewald energy   TEWEN  =      7767.05251164
  -Hartree energ DENC   =    -13487.81732739
  -exchange      EXHF   =         0.00000000
  -V(xc)+E(xc)   XCENC  =      -361.19924467
  PAW double counting   =      4928.51229836    -4205.98855578
  entropy T*S    EENTRO =        -0.00556764
  eigenvalues    EBANDS =      -331.10318857
  atomic energy  EATOM  =      5361.07568887
  ---------------------------------------------------
  free energy    TOTEN  =      -169.50213976 eV

  energy without entropy =     -169.49657212  energy(sigma->0) =     -169.49935594


--------------------------------------------------------------------------------------------------------




----------------------------------------- Iteration    1(   6)  ---------------------------------------


    POTLOK:  cpu time    0.11: real time    0.11
    SETDIJ:  cpu time    0.12: real time    0.12
     EDDAV:  cpu time    4.97: real time    4.98
       DOS:  cpu time    0.00: real time    0.00
    CHARGE:  cpu time    0.40: real time    0.40
    MIXING:  cpu time    0.00: real time    0.00
    --------------------------------------------
      LOOP:  cpu time    5.59: real time    5.60

 eigenvalue-minimisations  :  3272
 total energy-change (2. order) : 0.1659295E+02  (-0.9441552E+01)
 number of electron     107.0000002 magnetization 
 augmentation part        6.9153082 magnetization 

 Broyden mixing:
  rms(total) = 0.81526E+00    rms(broyden)= 0.81422E+00
  rms(prec ) = 0.82624E+00
  weight for this iteration     100.00

 eigenvalues of (default mixing * dielectric matrix)
  average eigenvalue GAMMA=   0.8439
  0.8439

 Free energy of the ion-electron system (eV)
  ---------------------------------------------------
  alpha Z        PSCENC =       159.97124542
  Ewald energy   TEWEN  =      7767.05251164
  -Hartree energ DENC   =    -13689.89954899
  -exchange      EXHF   =         0.00000000
  -V(xc)+E(xc)   XCENC  =      -346.83115616
  PAW double counting   =      5876.13287355    -5157.35536259
  entropy T*S    EENTRO =        -0.00647614
  eigenvalues    EBANDS =      -123.04896423
  atomic energy  EATOM  =      5361.07568887
  ---------------------------------------------------
  free energy    TOTEN  =      -152.90918863 eV

  energy without entropy =     -152.90271248  energy(sigma->0) =     -152.90595056


--------------------------------------------------------------------------------------------------------




----------------------------------------- Iteration    1(   7)  ---------------------------------------


    POTLOK:  cpu time    0.10: real time    0.10
    SETDIJ:  cpu time    0.12: real time    0.12
     EDDAV:  cpu time    4.82: real time    4.83
       DOS:  cpu time    0.00: real time    0.00
    CHARGE:  cpu time    0.39: real time    0.39
    MIXING:  cpu time    0.00: real time    0.00
    --------------------------------------------
      LOOP:  cpu time    5.44: real time    5.45

 eigenvalue-minimisations  :  3124
 total energy-change (2. order) : 0.1849511E+00  (-0.1969020E+00)
 number of electron     107.0000002 magnetization 
 augmentation part        6.9582438 magnetization 

 Broyden mixing:
  rms(total) = 0.49217E+00    rms(broyden)= 0.49215E+00
  rms(prec ) = 0.49866E+00
  weight for this iteration     100.00

 eigenvalues of (default mixing * dielectric matrix)
  average eigenvalue GAMMA=   1.5547
  0.9827  2.1267

 Free energy of the ion-electron system (eV)
  ---------------------------------------------------
  alpha Z        PSCENC =       159.97124542
  Ewald energy   TEWEN  =      7767.05251164
  -Hartree energ DENC   =    -13684.45915627
  -exchange      EXHF   =         0.00000000
  -V(xc)+E(xc)   XCENC  =      -346.45563329
  PAW double counting   =      6249.83799728    -5530.58314088
  entropy T*S    EENTRO =        -0.00657418
  eigenvalues    EBANDS =      -129.15717613
  atomic energy  EATOM  =      5361.07568887
  ---------------------------------------------------
  free energy    TOTEN  =      -152.72423753 eV

  energy without entropy =     -152.71766336  energy(sigma->0) =     -152.72095045


--------------------------------------------------------------------------------------------------------




----------------------------------------- Iteration    1(   8)  ---------------------------------------


    POTLOK:  cpu time    0.10: real time    0.10
    SETDIJ:  cpu time    0.11: real time    0.11
     EDDAV:  cpu time    4.99: real time    5.00
       DOS:  cpu time    0.00: real time    0.00
    CHARGE:  cpu time    0.39: real time    0.40
    MIXING:  cpu time    0.00: real time    0.00
    --------------------------------------------
      LOOP:  cpu time    5.60: real time    5.61

 eigenvalue-minimisations  :  3312
 total energy-change (2. order) : 0.1075915E+00  (-0.6637298E-01)
 number of electron     107.0000002 magnetization 
 augmentation part        7.0171458 magnetization 

 Broyden mixing:
  rms(total) = 0.11218E+00    rms(broyden)= 0.11213E+00
  rms(prec ) = 0.11773E+00
  weight for this iteration     100.00

 eigenvalues of (default mixing * dielectric matrix)
  average eigenvalue GAMMA=   1.5008
  2.3642  1.0691  1.0691

 Free energy of the ion-electron system (eV)
  ---------------------------------------------------
  alpha Z        PSCENC =       159.97124542
  Ewald energy   TEWEN  =      7767.05251164
  -Hartree energ DENC   =    -13687.35789860
  -exchange      EXHF   =         0.00000000
  -V(xc)+E(xc)   XCENC  =      -344.94956887
  PAW double counting   =      6814.99946587    -6095.39587529
  entropy T*S    EENTRO =        -0.00602473
  eigenvalues    EBANDS =      -128.00619031
  atomic energy  EATOM  =      5361.07568887
  ---------------------------------------------------
  free energy    TOTEN  =      -152.61664600 eV

  energy without entropy =     -152.61062127  energy(sigma->0) =     -152.61363363


--------------------------------------------------------------------------------------------------------




----------------------------------------- Iteration    1(   9)  ---------------------------------------


    POTLOK:  cpu time    0.11: real time    0.11
    SETDIJ:  cpu time    0.11: real time    0.11
     EDDAV:  cpu time    5.13: real time    5.14
       DOS:  cpu time    0.00: real time    0.00
    CHARGE:  cpu time    0.40: real time    0.40
    MIXING:  cpu time    0.00: real time    0.00
    --------------------------------------------
      LOOP:  cpu time    5.75: real time    5.76

 eigenvalue-minimisations  :  3344
 total energy-change (2. order) : 0.2221113E-01  (-0.1595830E-01)
 number of electron     107.0000002 magnetization 
 augmentation part        6.9793019 magnetization 

 Broyden mixing:
  rms(total) = 0.43890E-01    rms(broyden)= 0.43876E-01
  rms(prec ) = 0.47582E-01
  weight for this iteration     100.00

 eigenvalues of (default mixing * dielectric matrix)
  average eigenvalue GAMMA=   1.4248
  2.4588  0.9038  0.9038  1.4326

 Free energy of the ion-electron system (eV)
  ---------------------------------------------------
  alpha Z        PSCENC =       159.97124542
  Ewald energy   TEWEN  =      7767.05251164
  -Hartree energ DENC   =    -13693.33666153
  -exchange      EXHF   =         0.00000000
  -V(xc)+E(xc)   XCENC  =      -344.30645569
  PAW double counting   =      6849.43666323    -6129.92552976
  entropy T*S    EENTRO =        -0.00635900
  eigenvalues    EBANDS =      -122.55553807
  atomic energy  EATOM  =      5361.07568887
  ---------------------------------------------------
  free energy    TOTEN  =      -152.59443487 eV

  energy without entropy =     -152.58807587  energy(sigma->0) =     -152.59125537


--------------------------------------------------------------------------------------------------------




----------------------------------------- Iteration    1(  10)  ---------------------------------------


    POTLOK:  cpu time    0.10: real time    0.10
    SETDIJ:  cpu time    0.11: real time    0.11
     EDDAV:  cpu time    4.96: real time    4.97
       DOS:  cpu time    0.00: real time    0.00
    CHARGE:  cpu time    0.39: real time    0.39
    MIXING:  cpu time    0.01: real time    0.01
    --------------------------------------------
      LOOP:  cpu time    5.58: real time    5.59

 eigenvalue-minimisations  :  3248
 total energy-change (2. order) :-0.4106867E-03  (-0.4712569E-02)
 number of electron     107.0000002 magnetization 
 augmentation part        6.9715206 magnetization 

 Broyden mixing:
  rms(total) = 0.31577E-01    rms(broyden)= 0.31564E-01
  rms(prec ) = 0.36919E-01
  weight for this iteration     100.00

 eigenvalues of (default mixing * dielectric matrix)
  average eigenvalue GAMMA=   1.3402
  2.4993  1.4193  1.0010  0.8907  0.8907

 Free energy of the ion-electron system (eV)
  ---------------------------------------------------
  alpha Z        PSCENC =       159.97124542
  Ewald energy   TEWEN  =      7767.05251164
  -Hartree energ DENC   =    -13693.49288780
  -exchange      EXHF   =         0.00000000
  -V(xc)+E(xc)   XCENC  =      -344.15476192
  PAW double counting   =      6833.29586967    -6113.79495157
  entropy T*S    EENTRO =        -0.00640030
  eigenvalues    EBANDS =      -122.54115957
  atomic energy  EATOM  =      5361.07568887
  ---------------------------------------------------
  free energy    TOTEN  =      -152.59484556 eV

  energy without entropy =     -152.58844526  energy(sigma->0) =     -152.59164541


--------------------------------------------------------------------------------------------------------




----------------------------------------- Iteration    1(  11)  ---------------------------------------


    POTLOK:  cpu time    0.10: real time    0.10
    SETDIJ:  cpu time    0.11: real time    0.11
     EDDAV:  cpu time    5.22: real time    5.23
       DOS:  cpu time    0.00: real time    0.00
    CHARGE:  cpu time    0.39: real time    0.40
    MIXING:  cpu time    0.01: real time    0.01
    --------------------------------------------
      LOOP:  cpu time    5.83: real time    5.84

 eigenvalue-minimisations  :  3484
 total energy-change (2. order) : 0.2021623E-02  (-0.7087012E-03)
 number of electron     107.0000002 magnetization 
 augmentation part        6.9786573 magnetization 

 Broyden mixing:
  rms(total) = 0.18171E-01    rms(broyden)= 0.18170E-01
  rms(prec ) = 0.22589E-01
  weight for this iteration     100.00

 eigenvalues of (default mixing * dielectric matrix)
  average eigenvalue GAMMA=   1.4161
  2.5902  2.1465  1.0004  1.0004  1.0272  0.7318

 Free energy of the ion-electron system (eV)
  ---------------------------------------------------
  alpha Z        PSCENC =       159.97124542
  Ewald energy   TEWEN  =      7767.05251164
  -Hartree energ DENC   =    -13692.47896342
  -exchange      EXHF   =         0.00000000
  -V(xc)+E(xc)   XCENC  =      -344.17669123
  PAW double counting   =      6822.30958058    -6102.79929045
  entropy T*S    EENTRO =        -0.00622110
  eigenvalues    EBANDS =      -123.54068425
  atomic energy  EATOM  =      5361.07568887
  ---------------------------------------------------
  free energy    TOTEN  =      -152.59282393 eV

  energy without entropy =     -152.58660284  energy(sigma->0) =     -152.58971339


--------------------------------------------------------------------------------------------------------




----------------------------------------- Iteration    1(  12)  ---------------------------------------


    POTLOK:  cpu time    0.10: real time    0.10
    SETDIJ:  cpu time    0.11: real time    0.11
     EDDAV:  cpu time    5.11: real time    5.12
       DOS:  cpu time    0.00: real time    0.00
    CHARGE:  cpu time    0.39: real time    0.39
    MIXING:  cpu time    0.00: real time    0.00
    --------------------------------------------
      LOOP:  cpu time    5.72: real time    5.73

 eigenvalue-minimisations  :  3384
 total energy-change (2. order) : 0.1765468E-02  (-0.4681711E-03)
 number of electron     107.0000002 magnetization 
 augmentation part        6.9780262 magnetization 

 Broyden mixing:
  rms(total) = 0.99832E-02    rms(broyden)= 0.99801E-02
  rms(prec ) = 0.15290E-01
  weight for this iteration     100.00

 eigenvalues of (default mixing * dielectric matrix)
  average eigenvalue GAMMA=   1.4188
  2.7898  2.5215  0.9867  0.9867  0.9943  0.9943  0.6582

 Free energy of the ion-electron system (eV)
  ---------------------------------------------------
  alpha Z        PSCENC =       159.97124542
  Ewald energy   TEWEN  =      7767.05251164
  -Hartree energ DENC   =    -13691.78987036
  -exchange      EXHF   =         0.00000000
  -V(xc)+E(xc)   XCENC  =      -344.11204291
  PAW double counting   =      6792.57479502    -6073.07512767
  entropy T*S    EENTRO =        -0.00613032
  eigenvalues    EBANDS =      -124.28212816
  atomic energy  EATOM  =      5361.07568887
  ---------------------------------------------------
  free energy    TOTEN  =      -152.59105847 eV

  energy without entropy =     -152.58492814  energy(sigma->0) =     -152.58799331


--------------------------------------------------------------------------------------------------------




----------------------------------------- Iteration    1(  13)  ---------------------------------------


    POTLOK:  cpu time    0.10: real time    0.10
    SETDIJ:  cpu time    0.11: real time    0.11
     EDDAV:  cpu time    6.14: real time    6.15
       DOS:  cpu time    0.00: real time    0.00
    CHARGE:  cpu time    0.39: real time    0.40
    MIXING:  cpu time    0.00: real time    0.00
    --------------------------------------------
      LOOP:  cpu time    6.75: real time    6.76

 eigenvalue-minimisations  :  4272
 total energy-change (2. order) : 0.1078335E-02  (-0.1280924E-03)
 number of electron     107.0000002 magnetization 
 augmentation part        6.9795717 magnetization 

 Broyden mixing:
  rms(total) = 0.51946E-02    rms(broyden)= 0.51939E-02
  rms(prec ) = 0.11549E-01
  weight for this iteration     100.00

 eigenvalues of (default mixing * dielectric matrix)
  average eigenvalue GAMMA=   1.4130
  2.9166  2.4768  1.0648  1.0648  1.0883  1.0159  1.0159  0.6611

 Free energy of the ion-electron system (eV)
  ---------------------------------------------------
  alpha Z        PSCENC =       159.97124542
  Ewald energy   TEWEN  =      7767.05251164
  -Hartree energ DENC   =    -13691.06531132
  -exchange      EXHF   =         0.00000000
  -V(xc)+E(xc)   XCENC  =      -344.11565698
  PAW double counting   =      6782.17073665    -6062.66851394
  entropy T*S    EENTRO =        -0.00611678
  eigenvalues    EBANDS =      -125.00456371
  atomic energy  EATOM  =      5361.07568887
  ---------------------------------------------------
  free energy    TOTEN  =      -152.58998013 eV

  energy without entropy =     -152.58386335  energy(sigma->0) =     -152.58692174


--------------------------------------------------------------------------------------------------------




----------------------------------------- Iteration    1(  14)  ---------------------------------------


    POTLOK:  cpu time    0.10: real time    0.10
    SETDIJ:  cpu time    0.11: real time    0.11
     EDDAV:  cpu time    5.89: real time    5.90
       DOS:  cpu time    0.00: real time    0.00
    CHARGE:  cpu time    0.39: real time    0.39
    MIXING:  cpu time    0.00: real time    0.00
    --------------------------------------------
      LOOP:  cpu time    6.50: real time    6.51

 eigenvalue-minimisations  :  4128
 total energy-change (2. order) : 0.9251371E-03  (-0.1302422E-03)
 number of electron     107.0000002 magnetization 
 augmentation part        6.9793790 magnetization 

 Broyden mixing:
  rms(total) = 0.40698E-02    rms(broyden)= 0.40680E-02
  rms(prec ) = 0.96648E-02
  weight for this iteration     100.00

 eigenvalues of (default mixing * dielectric matrix)
  average eigenvalue GAMMA=   1.3804
  2.9961  2.5153  1.3412  0.9492  0.9492  1.0475  0.9651  0.9651  0.6951

 Free energy of the ion-electron system (eV)
  ---------------------------------------------------
  alpha Z        PSCENC =       159.97124542
  Ewald energy   TEWEN  =      7767.05251164
  -Hartree energ DENC   =    -13690.41620651
  -exchange      EXHF   =         0.00000000
  -V(xc)+E(xc)   XCENC  =      -344.11211122
  PAW double counting   =      6781.43530750    -6061.93243224
  entropy T*S    EENTRO =        -0.00610664
  eigenvalues    EBANDS =      -125.65695181
  atomic energy  EATOM  =      5361.07568887
  ---------------------------------------------------
  free energy    TOTEN  =      -152.58905499 eV

  energy without entropy =     -152.58294835  energy(sigma->0) =     -152.58600167


--------------------------------------------------------------------------------------------------------




----------------------------------------- Iteration    1(  15)  ---------------------------------------


    POTLOK:  cpu time    0.10: real time    0.10
    SETDIJ:  cpu time    0.11: real time    0.11
     EDDAV:  cpu time    5.51: real time    5.52
       DOS:  cpu time    0.00: real time    0.00
    CHARGE:  cpu time    0.40: real time    0.40
    MIXING:  cpu time    0.01: real time    0.01
    --------------------------------------------
      LOOP:  cpu time    6.12: real time    6.13

 eigenvalue-minimisations  :  3664
 total energy-change (2. order) : 0.1165592E-02  (-0.7027100E-04)
 number of electron     107.0000002 magnetization 
 augmentation part        6.9793740 magnetization 

 Broyden mixing:
  rms(total) = 0.38613E-02    rms(broyden)= 0.38607E-02
  rms(prec ) = 0.80992E-02
  weight for this iteration     100.00

 eigenvalues of (default mixing * dielectric matrix)
  average eigenvalue GAMMA=   1.6020
  4.0874  2.7045  2.4341  1.0147  1.0147  1.1423  1.0097  0.9597  0.9597  0.6931

 Free energy of the ion-electron system (eV)
  ---------------------------------------------------
  alpha Z        PSCENC =       159.97124542
  Ewald energy   TEWEN  =      7767.05251164
  -Hartree energ DENC   =    -13689.43203564
  -exchange      EXHF   =         0.00000000
  -V(xc)+E(xc)   XCENC  =      -344.10835647
  PAW double counting   =      6782.04414287    -6062.54049696
  entropy T*S    EENTRO =        -0.00607738
  eigenvalues    EBANDS =      -126.64451176
  atomic energy  EATOM  =      5361.07568887
  ---------------------------------------------------
  free energy    TOTEN  =      -152.58788940 eV

  energy without entropy =     -152.58181202  energy(sigma->0) =     -152.58485071


--------------------------------------------------------------------------------------------------------




----------------------------------------- Iteration    1(  16)  ---------------------------------------


    POTLOK:  cpu time    0.10: real time    0.10
    SETDIJ:  cpu time    0.11: real time    0.11
     EDDAV:  cpu time    5.90: real time    5.91
       DOS:  cpu time    0.00: real time    0.00
    CHARGE:  cpu time    0.41: real time    0.41
    MIXING:  cpu time    0.00: real time    0.00
    --------------------------------------------
      LOOP:  cpu time    6.53: real time    6.54

 eigenvalue-minimisations  :  4016
 total energy-change (2. order) : 0.1174380E-02  (-0.1315551E-03)
 number of electron     107.0000002 magnetization 
 augmentation part        6.9791974 magnetization 

 Broyden mixing:
  rms(total) = 0.58522E-02    rms(broyden)= 0.58513E-02
  rms(prec ) = 0.77724E-02
  weight for this iteration     100.00

 eigenvalues of (default mixing * dielectric matrix)
  average eigenvalue GAMMA=   1.6701
  4.8262  2.9357  2.4737  1.5388  1.0281  1.0281  0.9835  0.9835  0.9417  0.9417
  0.6899

 Free energy of the ion-electron system (eV)
  ---------------------------------------------------
  alpha Z        PSCENC =       159.97124542
  Ewald energy   TEWEN  =      7767.05251164
  -Hartree energ DENC   =    -13688.00669527
  -exchange      EXHF   =         0.00000000
  -V(xc)+E(xc)   XCENC  =      -344.10283424
  PAW double counting   =      6784.14833459    -6064.64322812
  entropy T*S    EENTRO =        -0.00605285
  eigenvalues    EBANDS =      -128.07568508
  atomic energy  EATOM  =      5361.07568887
  ---------------------------------------------------
  free energy    TOTEN  =      -152.58671502 eV

  energy without entropy =     -152.58066218  energy(sigma->0) =     -152.58368860


--------------------------------------------------------------------------------------------------------




----------------------------------------- Iteration    1(  17)  ---------------------------------------


    POTLOK:  cpu time    0.10: real time    0.10
    SETDIJ:  cpu time    0.11: real time    0.11
     EDDAV:  cpu time    6.28: real time    6.29
       DOS:  cpu time    0.00: real time    0.00
    CHARGE:  cpu time    0.39: real time    0.39
    MIXING:  cpu time    0.01: real time    0.01
    --------------------------------------------
      LOOP:  cpu time    6.89: real time    6.90

 eigenvalue-minimisations  :  4320
 total energy-change (2. order) : 0.4969542E-03  (-0.1916204E-03)
 number of electron     107.0000002 magnetization 
 augmentation part        6.9790986 magnetization 

 Broyden mixing:
  rms(total) = 0.22472E-02    rms(broyden)= 0.22439E-02
  rms(prec ) = 0.44834E-02
  weight for this iteration     100.00

 eigenvalues of (default mixing * dielectric matrix)
  average eigenvalue GAMMA=   1.6171
  5.2686  2.9724  2.4779  1.5096  1.0235  1.0235  0.9483  0.9483  0.9264  0.9264
  0.6899  0.6899

 Free energy of the ion-electron system (eV)
  ---------------------------------------------------
  alpha Z        PSCENC =       159.97124542
  Ewald energy   TEWEN  =      7767.05251164
  -Hartree energ DENC   =    -13687.13451406
  -exchange      EXHF   =         0.00000000
  -V(xc)+E(xc)   XCENC  =      -344.10303497
  PAW double counting   =      6785.18285268    -6065.67719635
  entropy T*S    EENTRO =        -0.00604883
  eigenvalues    EBANDS =      -128.94772246
  atomic energy  EATOM  =      5361.07568887
  ---------------------------------------------------
  free energy    TOTEN  =      -152.58621807 eV

  energy without entropy =     -152.58016924  energy(sigma->0) =     -152.58319365


--------------------------------------------------------------------------------------------------------




----------------------------------------- Iteration    1(  18)  ---------------------------------------


    POTLOK:  cpu time    0.10: real time    0.10
    SETDIJ:  cpu time    0.11: real time    0.11
     EDDAV:  cpu time    5.11: real time    5.12
       DOS:  cpu time    0.00: real time    0.00
    CHARGE:  cpu time    0.39: real time    0.40
    MIXING:  cpu time    0.01: real time    0.01
    --------------------------------------------
      LOOP:  cpu time    5.73: real time    5.74

 eigenvalue-minimisations  :  3376
 total energy-change (2. order) : 0.1991116E-03  (-0.1147995E-03)
 number of electron     107.0000002 magnetization 
 augmentation part        6.9791397 magnetization 

 Broyden mixing:
  rms(total) = 0.32813E-02    rms(broyden)= 0.32803E-02
  rms(prec ) = 0.46161E-02
  weight for this iteration     100.00

 eigenvalues of (default mixing * dielectric matrix)
  average eigenvalue GAMMA=   1.7623
  5.8576  3.5006  2.5357  2.2275  1.0150  1.0150  1.0896  1.0896  0.6926  1.0128
  1.0128  0.9307  0.9307

 Free energy of the ion-electron system (eV)
  ---------------------------------------------------
  alpha Z        PSCENC =       159.97124542
  Ewald energy   TEWEN  =      7767.05251164
  -Hartree energ DENC   =    -13686.65895374
  -exchange      EXHF   =         0.00000000
  -V(xc)+E(xc)   XCENC  =      -344.10430428
  PAW double counting   =      6785.72340531    -6066.21831772
  entropy T*S    EENTRO =        -0.00604033
  eigenvalues    EBANDS =      -129.42125412
  atomic energy  EATOM  =      5361.07568887
  ---------------------------------------------------
  free energy    TOTEN  =      -152.58601896 eV

  energy without entropy =     -152.57997863  energy(sigma->0) =     -152.58299879


--------------------------------------------------------------------------------------------------------




----------------------------------------- Iteration    1(  19)  ---------------------------------------


    POTLOK:  cpu time    0.10: real time    0.10
    SETDIJ:  cpu time    0.11: real time    0.11
     EDDAV:  cpu time    6.62: real time    6.63
       DOS:  cpu time    0.00: real time    0.00
    CHARGE:  cpu time    0.40: real time    0.40
    MIXING:  cpu time    0.01: real time    0.01
    --------------------------------------------
      LOOP:  cpu time    7.24: real time    7.25

 eigenvalue-minimisations  :  4684
 total energy-change (2. order) : 0.3820256E-03  (-0.3689166E-04)
 number of electron     107.0000002 magnetization 
 augmentation part        6.9795142 magnetization 

 Broyden mixing:
  rms(total) = 0.15252E-02    rms(broyden)= 0.15245E-02
  rms(prec ) = 0.27077E-02
  weight for this iteration     100.00

 eigenvalues of (default mixing * dielectric matrix)
  average eigenvalue GAMMA=   1.9130
  8.2307  3.5711  2.7811  2.3893  1.4139  1.0226  1.0226  1.0885  1.0885  1.0064
  1.0064  0.8549  0.6930  0.6136

 Free energy of the ion-electron system (eV)
  ---------------------------------------------------
  alpha Z        PSCENC =       159.97124542
  Ewald energy   TEWEN  =      7767.05251164
  -Hartree energ DENC   =    -13686.03713393
  -exchange      EXHF   =         0.00000000
  -V(xc)+E(xc)   XCENC  =      -344.10541044
  PAW double counting   =      6786.19803371    -6066.69333003
  entropy T*S    EENTRO =        -0.00603047
  eigenvalues    EBANDS =      -130.04121171
  atomic energy  EATOM  =      5361.07568887
  ---------------------------------------------------
  free energy    TOTEN  =      -152.58563693 eV

  energy without entropy =     -152.57960646  energy(sigma->0) =     -152.58262170


--------------------------------------------------------------------------------------------------------




----------------------------------------- Iteration    1(  20)  ---------------------------------------


    POTLOK:  cpu time    0.10: real time    0.10
    SETDIJ:  cpu time    0.12: real time    0.12
     EDDAV:  cpu time    5.83: real time    5.84
       DOS:  cpu time    0.00: real time    0.00
    CHARGE:  cpu time    0.39: real time    0.39
    MIXING:  cpu time    0.01: real time    0.01
    --------------------------------------------
      LOOP:  cpu time    6.45: real time    6.46

 eigenvalue-minimisations  :  3928
 total energy-change (2. order) : 0.1954604E-03  (-0.3599249E-04)
 number of electron     107.0000002 magnetization 
 augmentation part        6.9793097 magnetization 

 Broyden mixing:
  rms(total) = 0.14025E-02    rms(broyden)= 0.14018E-02
  rms(prec ) = 0.19597E-02
  weight for this iteration     100.00

 eigenvalues of (default mixing * dielectric matrix)
  average eigenvalue GAMMA=   1.8977
  8.9019  3.8002  2.8572  2.4535  1.0386  1.0386  1.2922  1.1696  1.1696  1.0003
  1.0003  0.8542  0.6977  0.5961  0.5961

 Free energy of the ion-electron system (eV)
  ---------------------------------------------------
  alpha Z        PSCENC =       159.97124542
  Ewald energy   TEWEN  =      7767.05251164
  -Hartree energ DENC   =    -13685.50815042
  -exchange      EXHF   =         0.00000000
  -V(xc)+E(xc)   XCENC  =      -344.10163790
  PAW double counting   =      6785.73296096    -6066.22912184
  entropy T*S    EENTRO =        -0.00603076
  eigenvalues    EBANDS =      -130.57290745
  atomic energy  EATOM  =      5361.07568887
  ---------------------------------------------------
  free energy    TOTEN  =      -152.58544147 eV

  energy without entropy =     -152.57941071  energy(sigma->0) =     -152.58242609


--------------------------------------------------------------------------------------------------------




----------------------------------------- Iteration    1(  21)  ---------------------------------------


    POTLOK:  cpu time    0.10: real time    0.10
    SETDIJ:  cpu time    0.11: real time    0.11
     EDDAV:  cpu time    5.59: real time    5.60
       DOS:  cpu time    0.00: real time    0.00
    CHARGE:  cpu time    0.39: real time    0.39
    MIXING:  cpu time    0.01: real time    0.01
    --------------------------------------------
      LOOP:  cpu time    6.20: real time    6.21

 eigenvalue-minimisations  :  3800
 total energy-change (2. order) : 0.4470189E-04  (-0.4675192E-04)
 number of electron     107.0000002 magnetization 
 augmentation part        6.9795281 magnetization 

 Broyden mixing:
  rms(total) = 0.11096E-02    rms(broyden)= 0.11089E-02
  rms(prec ) = 0.13198E-02
  weight for this iteration     100.00

 eigenvalues of (default mixing * dielectric matrix)
  average eigenvalue GAMMA=   1.9496
  9.4029  4.6915  2.8710  2.4494  1.3938  1.0507  1.0507  1.1821  1.1821  1.0211
  1.0211  0.8636  0.8636  0.8438  0.6942  0.6117

 Free energy of the ion-electron system (eV)
  ---------------------------------------------------
  alpha Z        PSCENC =       159.97124542
  Ewald energy   TEWEN  =      7767.05251164
  -Hartree energ DENC   =    -13685.15369988
  -exchange      EXHF   =         0.00000000
  -V(xc)+E(xc)   XCENC  =      -344.10288764
  PAW double counting   =      6784.47835129    -6064.97358775
  entropy T*S    EENTRO =        -0.00603311
  eigenvalues    EBANDS =      -130.92698561
  atomic energy  EATOM  =      5361.07568887
  ---------------------------------------------------
  free energy    TOTEN  =      -152.58539677 eV

  energy without entropy =     -152.57936366  energy(sigma->0) =     -152.58238021


--------------------------------------------------------------------------------------------------------




----------------------------------------- Iteration    1(  22)  ---------------------------------------


    POTLOK:  cpu time    0.10: real time    0.10
    SETDIJ:  cpu time    0.11: real time    0.11
     EDDAV:  cpu time    4.98: real time    4.99
       DOS:  cpu time    0.00: real time    0.00
    CHARGE:  cpu time    0.39: real time    0.39
    MIXING:  cpu time    0.01: real time    0.01
    --------------------------------------------
      LOOP:  cpu time    5.59: real time    5.60

 eigenvalue-minimisations  :  3284
 total energy-change (2. order) : 0.2240371E-05  (-0.3507000E-04)
 number of electron     107.0000002 magnetization 
 augmentation part        6.9794894 magnetization 

 Broyden mixing:
  rms(total) = 0.10038E-02    rms(broyden)= 0.10033E-02
  rms(prec ) = 0.10486E-02
  weight for this iteration     100.00

 eigenvalues of (default mixing * dielectric matrix)
  average eigenvalue GAMMA=   2.1235
 11.8385  5.2083  2.8131  2.4200  1.7870  1.3565  1.3565  1.0265  1.0265  1.1103
  1.1103  0.9857  0.9857  0.9552  0.7871  0.6926  0.6397

 Free energy of the ion-electron system (eV)
  ---------------------------------------------------
  alpha Z        PSCENC =       159.97124542
  Ewald energy   TEWEN  =      7767.05251164
  -Hartree energ DENC   =    -13685.10694257
  -exchange      EXHF   =         0.00000000
  -V(xc)+E(xc)   XCENC  =      -344.10143682
  PAW double counting   =      6785.63028898    -6066.12558997
  entropy T*S    EENTRO =        -0.00603647
  eigenvalues    EBANDS =      -130.97512361
  atomic energy  EATOM  =      5361.07568887
  ---------------------------------------------------
  free energy    TOTEN  =      -152.58539453 eV

  energy without entropy =     -152.57935806  energy(sigma->0) =     -152.58237629


--------------------------------------------------------------------------------------------------------




----------------------------------------- Iteration    1(  23)  ---------------------------------------


    POTLOK:  cpu time    0.10: real time    0.10
    SETDIJ:  cpu time    0.11: real time    0.11
     EDDAV:  cpu time    4.89: real time    4.90
       DOS:  cpu time    0.00: real time    0.00
    CHARGE:  cpu time    0.40: real time    0.40
    MIXING:  cpu time    0.01: real time    0.01
    --------------------------------------------
      LOOP:  cpu time    5.50: real time    5.51

 eigenvalue-minimisations  :  3100
 total energy-change (2. order) :-0.1363102E-04  (-0.1933797E-04)
 number of electron     107.0000002 magnetization 
 augmentation part        6.9794506 magnetization 

 Broyden mixing:
  rms(total) = 0.14187E-02    rms(broyden)= 0.14183E-02
  rms(prec ) = 0.14482E-02
  weight for this iteration     100.00

 eigenvalues of (default mixing * dielectric matrix)
  average eigenvalue GAMMA=   2.0588
 12.3664  5.2943  2.8159  2.3588  1.9569  1.3765  1.3765  1.0262  1.0262  1.1025
  1.1025  0.9915  0.9915  0.9070  0.7995  0.6919  0.6457  0.2295

 Free energy of the ion-electron system (eV)
  ---------------------------------------------------
  alpha Z        PSCENC =       159.97124542
  Ewald energy   TEWEN  =      7767.05251164
  -Hartree energ DENC   =    -13685.12617847
  -exchange      EXHF   =         0.00000000
  -V(xc)+E(xc)   XCENC  =      -344.10084876
  PAW double counting   =      6786.35470136    -6066.85005950
  entropy T*S    EENTRO =        -0.00603646
  eigenvalues    EBANDS =      -130.95643227
  atomic energy  EATOM  =      5361.07568887
  ---------------------------------------------------
  free energy    TOTEN  =      -152.58540816 eV

  energy without entropy =     -152.57937170  energy(sigma->0) =     -152.58238993


--------------------------------------------------------------------------------------------------------




----------------------------------------- Iteration    1(  24)  ---------------------------------------


    POTLOK:  cpu time    0.10: real time    0.10
    SETDIJ:  cpu time    0.11: real time    0.11
     EDDAV:  cpu time    3.36: real time    3.37
       DOS:  cpu time    0.00: real time    0.00
    --------------------------------------------
      LOOP:  cpu time    3.58: real time    3.58

 eigenvalue-minimisations  :  1812
 total energy-change (2. order) : 0.2164268E-05  (-0.7644980E-06)
 number of electron     107.0000002 magnetization 
 augmentation part        6.9794506 magnetization 

 Free energy of the ion-electron system (eV)
  ---------------------------------------------------
  alpha Z        PSCENC =       159.97124542
  Ewald energy   TEWEN  =      7767.05251164
  -Hartree energ DENC   =    -13685.13270287
  -exchange      EXHF   =         0.00000000
  -V(xc)+E(xc)   XCENC  =      -344.10069873
  PAW double counting   =      6786.55675896    -6067.05222261
  entropy T*S    EENTRO =        -0.00603659
  eigenvalues    EBANDS =      -130.94995009
  atomic energy  EATOM  =      5361.07568887
  ---------------------------------------------------
  free energy    TOTEN  =      -152.58540600 eV

  energy without entropy =     -152.57936940  energy(sigma->0) =     -152.58238770


--------------------------------------------------------------------------------------------------------




 average (electrostatic) potential at core
  the test charge radii are     0.7215  1.0714  1.0406
  (the norm of the test charge is              1.0000)
       1 -69.5429       2 -69.4722       3 -69.4622       4 -69.4754       5 -69.4907
       6 -69.5172       7 -69.5232       8 -69.4944       9 -69.4664      10 -69.5024
      11 -69.5483      12 -35.0183      13 -34.9843      14 -35.0200      15 -35.0301
      16 -34.9893      17 -34.9995      18 -35.0489      19 -35.0111      20 -34.9861
      21 -35.0365      22 -73.2369      23 -74.1831      24 -73.2484      25 -73.1664
      26 -74.1845      27 -73.1664      28 -73.2489
 
 
 
 E-fermi :   7.4678     XC(G=0): -10.6760     alpha+bet :-13.4692


 k-point     1 :       0.0000    0.0000    0.0000
  band No.  band energies     occupation 
      1     -13.8938      2.00000
      2     -13.8322      2.00000
      3     -13.7373      2.00000
      4     -13.6107      2.00000
      5     -13.4657      2.00000
      6     -13.3139      2.00000
      7     -13.1634      2.00000
[...]
     23       0.4820      2.00000
     24       0.6054      2.00000
     25       0.7600      2.00000
     26       0.8978      2.00000
     27       1.0478      2.00000
     28       1.1163      2.00000
     29       1.1591      2.00000
     30       1.2277      2.00000
     31       1.2753      2.00000
     32       1.3407      2.00000
     33       1.3536      2.00000
     34       1.4475      2.00000
     35       1.5424      2.00000
     36       1.6482      2.00000
     37       1.7109      2.00000
     38       1.8354      2.00000
     39       1.9744      2.00000
     40       2.0607      2.00000
     41       2.1000      2.00000
     42       2.2055      2.00000
     43       2.2089      2.00000
     44       2.2672      2.00000
     45       2.3585      2.00000
     46       2.4439      2.00000
     47       2.8770      2.00000
     48       3.8541      2.00000
     49       4.8841      2.00000
     50       5.0264      2.00000
     51       5.2725      2.00000
     52       5.7713      2.00000
     53       6.4170      2.00000
     54       6.5615      2.00000
     55       6.7684      2.00000
     56       7.2111      2.00000
     57       7.5567      0.05499
     58       8.1383      0.00000
     59       8.7844      0.00000
     60       9.1349      0.00000
     61       9.8454      0.00000
     62       9.9019      0.00000
     63      10.4863      0.00000
     64      11.2402      0.00000
     65      11.6824      0.00000
     66      12.2968      0.00000
     67      12.5113      0.00000
     68      12.5954      0.00000

 k-point    20 :       0.3846    0.2308    0.0000
  band No.  band energies     occupation 
      1     -12.5364      2.00000
      2     -12.5252      2.00000
      3     -12.5143      2.00000
      4     -12.4980      2.00000
      5     -12.4780      2.00000
      6     -12.4565      2.00000
      7     -12.4361      2.00000
      8     -12.4191      2.00000
      9     -12.4051      2.00000
     10     -12.2670      2.00000
     11     -12.2604      2.00000
     12      -0.7065      2.00000
     13      -0.6384      2.00000
     14      -0.5365      2.00000
     15      -0.4125      2.00000
     16      -0.2887      2.00000
     17      -0.2494      2.00000
     18      -0.2265      2.00000
     19      -0.1922      2.00000
     20      -0.1891      2.00000
     21      -0.1321      2.00000
     22      -0.1262      2.00000
     23       0.6905      2.00000
     24       0.7112      2.00000
     25       0.7608      2.00000
     26       0.8012      2.00000
     27       0.8217      2.00000
     28       0.8681      2.00000
     29       0.8750      2.00000
     30       0.9767      2.00000
     31       1.1412      2.00000
     32       1.2904      2.00000
     33       1.4120      2.00000
     34       1.5096      2.00000
     35       1.5205      2.00000
     36       1.8288      2.00000
     37       1.8748      2.00000
     38       1.9215      2.00000
     39       1.9826      2.00000
     40       2.0543      2.00000
     41       2.1828      2.00000
     42       2.2622      2.00000
     43       2.3049      2.00000
     44       2.3130      2.00000
     45       3.1440      2.00000
     46       3.1739      2.00000
     47       3.5101      2.00000
     48       3.6017      2.00000
     49       4.1261      2.00000
     50       4.2895      2.00000
     51       5.0153      2.00000
     52       5.2915      2.00000
     53       6.2678      2.00000
     54       6.3646      2.00000
     55       6.7296      2.00000
     56       6.8133      2.00000
     57       7.2379      2.00000
     58       8.0718      0.00000
     59       8.4672      0.00000
     60       8.7559      0.00000
     61       9.7592      0.00000
     62      10.2125      0.00000
     63      10.3728      0.00000
     64      11.1307      0.00000
     65      11.5167      0.00000
     66      11.7420      0.00000
     67      12.5698      0.00000
     68      12.7328      0.00000

 k-point    21 :       0.3077    0.3077    0.0000
  band No.  band energies     occupation 
      1     -12.5019      2.00000
      2     -12.4920      2.00000
      3     -12.4837      2.00000
      4     -12.4718      2.00000
      5     -12.4575      2.00000
      6     -12.4428      2.00000
      7     -12.4294      2.00000
      8     -12.4188      2.00000
      9     -12.4082      2.00000
     10     -12.2502      2.00000
     11     -12.2437      2.00000
     12      -0.3511      2.00000
     13      -0.3424      2.00000
     14      -0.3013      2.00000
     15      -0.2714      2.00000
     16      -0.2246      2.00000
     17      -0.1659      2.00000
     18      -0.1382      2.00000
     19      -0.0275      2.00000
     20       0.0627      2.00000
     21       0.1332      2.00000
     22       0.1447      2.00000
     23       0.2417      2.00000
     24       0.3662      2.00000
     25       0.4432      2.00000
     26       0.5118      2.00000
     27       0.5766      2.00000
     28       0.6351      2.00000
     29       0.6747      2.00000
     30       0.8035      2.00000
     31       0.8200      2.00000
     32       0.9499      2.00000
     33       0.9560      2.00000
     34       1.5221      2.00000
     35       1.5318      2.00000
     36       1.8373      2.00000
     37       1.9489      2.00000
     38       2.0354      2.00000
     39       2.0593      2.00000
     40       2.0870      2.00000
     41       2.1313      2.00000
     42       2.1321      2.00000
     43       2.1824      2.00000
     44       2.2735      2.00000
     45       3.0385      2.00000
     46       3.4444      2.00000
     47       4.0865      2.00000
     48       4.6386      2.00000
     49       4.6531      2.00000
     50       4.9248      2.00000
     51       5.0317      2.00000
     52       5.0686      2.00000
     53       5.5530      2.00000
     54       5.6397      2.00000
     55       6.0061      2.00000
     56       6.4347      2.00000
     57       7.3283      1.99999
     58       8.0300      0.00000
     59       8.2240      0.00000
     60       8.4306      0.00000
     61       9.5715      0.00000
     62       9.6015      0.00000
     63      10.2492      0.00000
     64      11.3419      0.00000
     65      11.4546      0.00000
     66      11.8352      0.00000
     67      12.7026      0.00000
     68      12.8368      0.00000


--------------------------------------------------------------------------------------------------------


 soft charge-density along one line, spin component           1
         0         1         2         3         4         5         6         7         8         9
 total charge-density along one line
 
 pseudopotential strength for first ion, spin component:           1
 12.079   0.000 -14.689   0.000  -0.000   0.000  -0.007   0.000   0.000   0.000   0.000   0.000   0.008   0.000  -0.000   0.000
-14.689   0.000  17.882   0.000   0.000   0.000   0.008   0.000  -0.000   0.000  -0.000   0.000  -0.010   0.000   0.000   0.000
 -0.000   0.000   0.000   0.000  -8.206   0.000  -0.000   0.000   0.000   0.000   9.804   0.000   0.000   0.000  -0.000   0.000
 -0.007   0.000   0.008   0.000  -0.000   0.000  -8.215   0.000   0.000   0.000   0.000   0.000   9.815   0.000  -0.000   0.000
  0.000   0.000  -0.000   0.000   0.000   0.000   0.000   0.000  -8.206   0.000  -0.000   0.000  -0.000   0.000   9.804   0.000
  0.000   0.000  -0.000   0.000   9.804   0.000   0.000   0.000  -0.000   0.000 -11.547   0.000  -0.000   0.000   0.000   0.000
  0.008   0.000  -0.010   0.000   0.000   0.000   9.815   0.000  -0.000   0.000  -0.000   0.000 -11.562   0.000   0.000   0.000
 -0.000   0.000   0.000   0.000  -0.000   0.000  -0.000   0.000   9.804   0.000   0.000   0.000   0.000   0.000 -11.547   0.000
 total augmentation occupancy for first ion, spin component:           1
  2.527   0.328   0.000   0.036  -0.000   0.000   0.004  -0.000
  0.328   0.088   0.000   0.020  -0.000   0.000  -0.009   0.000
  0.000   0.000   2.072  -0.000   0.000   0.235   0.000   0.000
  0.036   0.020  -0.000   2.072  -0.000   0.000   0.243  -0.000
 -0.000   0.000   0.000  -0.000   2.072   0.000  -0.000   0.235
  0.000   0.000   0.235   0.000   0.000   0.031   0.000   0.000
  0.004  -0.009   0.000   0.243  -0.000   0.000   0.035  -0.000
 -0.000   0.000   0.000  -0.000   0.235   0.000  -0.000   0.031


------------------------ aborting loop because EDIFF is reached ----------------------------------------


    CHARGE:  cpu time    0.42: real time    0.42
    FORLOC:  cpu time    0.04: real time    0.04
    FORNL :  cpu time    3.34: real time    3.34
    STRESS:  cpu time    4.45: real time    4.46
    FORCOR:  cpu time    0.14: real time    0.14
    FORHAR:  cpu time    0.06: real time    0.06
    MIXING:  cpu time    0.00: real time    0.00
    OFIELD:  cpu time    0.00: real time    0.00

  FORCE on cell =-STRESS in cart. coord.  units (eV):
  Direction    XX          YY          ZZ          XY          YZ          ZX
  --------------------------------------------------------------------------------------
  Alpha Z   159.97125   159.97125   159.97125
  Ewald   10728.38685 10728.38735-13644.97370    -0.00017     0.00001    -0.00013
  Hartree 12698.27266 12698.27256-11666.77532    -0.00000     0.00000     0.00004
  E(xc)    -452.47434  -452.47435  -452.71396    -0.00000     0.00000    -0.00000
  Local  -24774.61498-24774.61441 23968.01370    -0.00019    -0.00001     0.00004
  n-local   -74.66090   -91.55570   -77.99734     3.48144    -1.68268     4.88233
  augment    67.57348    67.57321    66.80532     0.00019    -0.00000     0.00000
  Kinetic  1660.68127  1649.19290  1642.51848    -4.44203     0.08299     0.06481
  Fock        0.00000     0.00000     0.00000     0.00000     0.00000     0.00000
  -------------------------------------------------------------------------------------
  Total      -1.05597    -1.05597    -5.15158     0.00000     0.00000     0.00000
  in kB      -5.35958    -5.35958   -26.14697     0.00000     0.00000     0.00000
  external pressure =      -12.29 kB  Pullay stress =        0.00 kB


 VOLUME and BASIS-vectors are now :
 -----------------------------------------------------------------------------
  energy-cutoff  :      520.00
  volume of cell :      315.67
      direct lattice vectors                 reciprocal lattice vectors
     2.575303410 -1.486851677  0.000000000     0.388303761  0.000000000  0.000000000
     0.000000000  2.973703354  0.000000000     0.194151881  0.336281021  0.000000000
    -0.000000000  0.000000000 41.219589698     0.000000000  0.000000000  0.024260309

  length of vectors
     2.973704014  2.973703354 41.219589698     0.388303761  0.388303847  0.024260309


 FORCES acting on ions
    electron-ion (+dipol)            ewald-force                    non-local-force                 convergence-correction
 -----------------------------------------------------------------------------------------------
   0.106E-02 -.183E-02 0.109E+04   0.525E-04 -.620E-04 -.109E+04   0.323E-16 -.167E-15 0.256E+01   0.781E-08 -.137E-07 0.331E-01
   -.112E-07 0.177E-08 0.662E+03   -.704E-07 0.843E-07 -.662E+03   -.731E-18 0.000E+00 0.314E-01   -.995E-09 0.159E-08 -.364E-01
   0.105E-02 -.182E-02 0.442E+03   0.570E-04 -.986E-04 -.442E+03   -.229E-19 0.136E-19 0.702E-03   -.651E-08 0.109E-07 -.888E-01
   0.472E-09 -.584E-10 0.316E+00   0.425E-07 -.484E-07 -.193E+00   -.286E-18 -.136E-19 0.135E-01   -.898E-09 0.105E-08 -.135E+00
   0.105E-02 -.182E-02 -.221E+03   0.570E-04 -.987E-04 0.221E+03   -.235E-18 -.220E-19 0.107E-01   0.134E-08 -.261E-08 -.977E-01
   0.862E-08 -.140E-08 -.662E+03   -.255E-07 0.254E-07 0.662E+03   0.672E-18 0.000E+00 -.319E-01   0.136E-08 -.205E-08 0.245E-01
   0.105E-02 -.183E-02 -.883E+03   0.570E-04 -.983E-04 0.883E+03   0.232E-17 0.434E-18 -.126E+00   0.529E-08 -.914E-08 0.739E-01
   -.105E-02 0.182E-02 0.883E+03   -.570E-04 0.983E-04 -.883E+03   -.253E-17 0.000E+00 0.107E+00   -.370E-08 0.692E-08 0.111E-01
   -.105E-02 0.182E-02 0.221E+03   -.570E-04 0.988E-04 -.221E+03   -.190E-18 0.203E-19 0.846E-02   0.763E-08 -.137E-07 -.131E+00
   -.105E-02 0.182E-02 -.441E+03   -.570E-04 0.987E-04 0.442E+03   -.833E-19 0.678E-20 0.426E-02   -.230E-08 0.395E-08 -.389E-01
   -.106E-02 0.183E-02 -.109E+04   -.525E-04 0.621E-04 0.109E+04   0.951E-17 -.278E-16 -.261E+01   -.405E-08 0.748E-08 0.877E-01
   -.755E-06 0.366E-06 0.329E+03   0.130E-05 -.159E-05 -.329E+03   0.628E-17 0.347E-17 -.570E-01   0.574E-09 -.999E-09 0.738E-02
   0.149E-07 -.176E-07 0.110E+03   -.324E-07 0.365E-07 -.110E+03   -.971E-19 -.108E-18 0.432E-02   -.536E-09 0.934E-09 -.379E-01
   0.257E-08 0.178E-08 -.110E+03   0.445E-08 -.493E-08 0.110E+03   -.167E-19 -.678E-20 0.507E-03   0.112E-09 -.199E-09 -.233E-01
   0.700E-06 -.336E-06 -.330E+03   -.117E-05 0.145E-05 0.329E+03   -.132E-18 -.347E-17 0.363E-01   0.456E-09 -.731E-09 0.278E-01
   0.435E-04 -.754E-04 0.184E+03   -.489E-04 0.846E-04 -.184E+03   0.207E-19 0.000E+00 -.904E-04   -.581E-09 0.111E-08 -.210E-01
   0.436E-04 -.755E-04 -.367E+02   -.490E-04 0.848E-04 0.368E+02   -.130E-18 -.542E-19 0.582E-02   -.170E-09 0.292E-09 -.402E-01
   0.436E-04 -.756E-04 -.258E+03   -.490E-04 0.849E-04 0.258E+03   0.248E-18 -.339E-20 -.103E-01   -.521E-09 0.901E-09 0.169E-01
   -.436E-04 0.755E-04 0.258E+03   0.490E-04 -.848E-04 -.257E+03   0.216E-18 -.108E-18 -.715E-02   0.768E-09 -.137E-08 -.308E-02
   -.436E-04 0.755E-04 0.369E+02   0.489E-04 -.848E-04 -.369E+02   -.132E-18 -.542E-19 0.660E-02   -.225E-09 0.336E-09 -.459E-01
   -.436E-04 0.755E-04 -.184E+03   0.489E-04 -.847E-04 0.184E+03   0.796E-19 0.000E+00 -.513E-02   0.728E-09 -.127E-08 -.224E-02
   -.372E-09 0.807E-09 -.488E-01   -.440E-09 0.440E-09 0.231E-01   0.663E-20 0.000E+00 -.890E-03   0.266E-11 -.324E-11 0.264E-01
   0.920E-05 -.278E-05 0.575E+03   -.223E-04 0.235E-04 -.581E+03   -.159E-15 0.278E-16 0.659E+01   0.627E-09 -.101E-08 0.191E-01
   0.161E-04 -.279E-04 0.406E+03   -.433E-05 0.731E-05 -.406E+03   -.177E-18 0.000E+00 0.486E-01   -.323E-10 0.502E-10 0.227E-01
   -.155E-04 0.268E-04 0.201E+03   0.385E-05 -.659E-05 -.202E+03   -.109E-16 0.000E+00 0.371E+00   0.324E-11 -.132E-10 0.259E-01
   -.919E-05 0.278E-05 -.575E+03   0.223E-04 -.235E-04 0.581E+03   0.187E-15 -.139E-16 -.659E+01   0.351E-09 -.611E-09 0.393E-01
   0.155E-04 -.268E-04 -.201E+03   -.385E-05 0.660E-05 0.202E+03   0.828E-17 0.347E-17 -.369E+00   -.393E-11 0.102E-10 0.271E-01
   -.161E-04 0.279E-04 -.406E+03   0.433E-05 -.731E-05 0.406E+03   -.276E-16 0.694E-17 -.510E-01   0.438E-10 -.722E-10 0.319E-01
 -----------------------------------------------------------------------------------------------
   -.718E-07 0.418E-07 0.290E+00   0.153E-12 0.576E-13 -.568E-12   0.445E-16 -.170E-15 -.638E-01   0.657E-08 -.120E-07 -.226E+00
 
 
 POSITION                                       TOTAL-FORCE (eV/Angst)
 -----------------------------------------------------------------------------------
      0.85843      1.48685      9.17928         0.000000     -0.000000     -0.009299
     -0.00000     -0.00000     14.17412        -0.000000      0.000000      0.014196
      0.85843      1.48685     16.65775         0.000000     -0.000000     -0.003701
     -0.00000     -0.00000     21.62196        -0.000000      0.000000      0.000952
      0.85843      1.48685     24.10343         0.000000     -0.000000      0.003330
     -0.00000     -0.00000     29.06771         0.000000      0.000000     -0.006203
      0.85843      1.48685     31.54876         0.000000      0.000000     -0.007833
      1.71687     -0.00000     11.69274        -0.000000     -0.000000      0.014695
      1.71687     -0.00000     19.14026        -0.000000      0.000000     -0.002285
      1.71687     -0.00000     26.58518        -0.000000      0.000000      0.005561
      1.71687     -0.00000     34.06309         0.000000      0.000000     -0.002916
     -0.00000     -0.00000     10.45672        -0.000000      0.000000      0.010656
     -0.00000     -0.00000     17.89868         0.000000      0.000000     -0.001942
     -0.00000     -0.00000     25.34434         0.000000      0.000000     -0.001282
     -0.00000     -0.00000     32.78656         0.000000      0.000000     -0.013707
      1.71687     -0.00000     15.41608        -0.000000      0.000000      0.000805
      1.71687     -0.00000     22.86232        -0.000000      0.000000      0.000195
      1.71687     -0.00000     30.30877         0.000000      0.000000     -0.015864
      0.85843      1.48685     12.93425        -0.000000      0.000000      0.009375
      0.85843      1.48685     20.38064         0.000000      0.000000     -0.001670
      0.85843      1.48685     27.82677         0.000000      0.000000     -0.003204
     -0.00000     -0.00000      1.01142        -0.000000      0.000000     -0.000191
     -0.00000     -0.00000      7.71223        -0.000000      0.000000      0.013929
      1.71687     -0.00000      5.53346        -0.000000      0.000000      0.006716
      0.85843      1.48685      3.26259        -0.000000      0.000000      0.010763
     -0.00000     -0.00000     35.53053         0.000000      0.000000     -0.004608
      1.71687     -0.00000     39.97975         0.000000      0.000000     -0.010009
      0.85843      1.48685     37.70914         0.000000      0.000000     -0.006458
 -----------------------------------------------------------------------------------
    total drift:                               -0.000000      0.000000      0.000167


--------------------------------------------------------------------------------------------------------



  FREE ENERGIE OF THE ION-ELECTRON SYSTEM (eV)
  ---------------------------------------------------
  free  energy   TOTEN  =      -152.58774031 eV

  energy  without entropy=     -152.58181857  energy(sigma->0) =     -152.58477944
 
 d Force = 0.2115088E-03[ 0.117E-03, 0.306E-03]  d Energy = 0.1860644E-03 0.254E-04
 d Force =-0.1002404E+02[-0.100E+02,-0.100E+02]  d Ewald  =-0.1002404E+02 0.220E-07


--------------------------------------------------------------------------------------------------------


    POTLOK:  cpu time    0.21: real time    0.21


--------------------------------------------------------------------------------------------------------


 Conjugate gradient step on ions:
 trial-energy change:   -0.000186  1 .order   -0.000212   -0.000306   -0.000117
  (g-gl).g = 0.208E-03      g.g   = 0.242E-03  gl.gl    = 0.439E-03
 g(Force)  = 0.242E-03   g(Stress)= 0.000E+00 ortho     = 0.140E-04
 gamma     =   0.47349
 trial     =   1.23057
 opt step  =   1.98672  (harmonic =   1.98672) maximal distance =0.00267347
 next E    =  -152.587802   (d E  =  -0.00025)


--------------------------------------------------------------------------------------------------------


  
 reached required accuracy - stopping structural energy minimisation
     LOOP+:  cpu time   38.15: real time   38.21
    4ORBIT:  cpu time    0.00: real time    0.00

 total amount of memory used by VASP on root node   147961. kBytes
========================================================================

   base      :      30000. kBytes
   nonl-proj :      15120. kBytes
   fftplans  :      55169. kBytes
   grid      :      22118. kBytes
   one-center:         56. kBytes
   wavefun   :      25498. kBytes
 
  
  
 General timing and accounting informations for this job:
 ========================================================
  
                  Total CPU time used (sec):      527.182
                            User time (sec):      521.035
                          System time (sec):        6.146
                         Elapsed time (sec):      528.024
  
                   Maximum memory used (kb):      253444.
                   Average memory used (kb):           0.
  
                          Minor page faults:       191356
                          Major page faults:            0
                 Voluntary context switches:           75
