       N       E                     dE             d eps       ncg     rms          rms(c)
DAV:   1     0.703209393020E+03    0.70321E+03   -0.37765E+04  2860   0.116E+03
DAV:   2    -0.244014450824E+02   -0.72761E+03   -0.69237E+03  3630   0.263E+02
DAV:   3    -0.142355362666E+03   -0.11795E+03   -0.11708E+03  3315   0.110E+02
DAV:   4    -0.145813564468E+03   -0.34582E+01   -0.34507E+01  3390   0.221E+01
DAV:   5    -0.145906315559E+03   -0.92751E-01   -0.92686E-01  3970   0.330E+00    0.221E+01
DAV:   6    -0.130721866441E+03    0.15184E+02   -0.87720E+01  3175   0.282E+01    0.728E+00
DAV:   7    -0.130619399506E+03    0.10247E+00   -0.96858E+00  3230   0.684E+00    0.492E+00
DAV:   8    -0.130505641440E+03    0.11376E+00   -0.51906E+00  3350   0.482E+00    0.318E+00
DAV:   9    -0.130275245239E+03    0.23040E+00   -0.32647E+00  3330   0.429E+00    0.695E-01
DAV:  10    -0.130254218671E+03    0.21027E-01   -0.26927E-01  3290   0.146E+00    0.506E-01
DAV:  11    -0.130251331556E+03    0.28871E-02   -0.16028E-02  3260   0.422E-01    0.410E-01
DAV:  12    -0.130249784193E+03    0.15474E-02   -0.30326E-03  3630   0.234E-01    0.299E-01
DAV:  13    -0.130245155915E+03    0.46283E-02   -0.24255E-03  3670   0.421E-01    0.849E-02
DAV:  14    -0.130243656153E+03    0.14998E-02   -0.12461E-03  3335   0.196E-01    0.620E-02
DAV:  15    -0.130240847620E+03    0.28085E-02   -0.87449E-04  3560   0.271E-01    0.522E-02
DAV:  16    -0.130236906731E+03    0.39409E-02   -0.17539E-03  3810   0.474E-01    0.703E-02
DAV:  17    -0.130235322009E+03    0.15847E-02   -0.90496E-04  3610   0.301E-01    0.396E-02
DAV:  18    -0.130233028515E+03    0.22935E-02   -0.96470E-04  3890   0.370E-01    0.281E-02
DAV:  19    -0.130232284379E+03    0.74414E-03   -0.64776E-04  3280   0.182E-01    0.264E-02
DAV:  20    -0.130231792637E+03    0.49174E-03   -0.33524E-04  3860   0.211E-01    0.294E-02
DAV:  21    -0.130231716112E+03    0.76525E-04   -0.29025E-04  3340   0.806E-02    0.259E-02
DAV:  22    -0.130231724074E+03   -0.79617E-05   -0.15293E-04  3115   0.837E-02    0.220E-02
DAV:  23    -0.130231606163E+03    0.11791E-03   -0.85002E-05  3030   0.765E-02    0.223E-02
DAV:  24    -0.130231525817E+03    0.80347E-04   -0.60396E-05  2650   0.870E-02    0.179E-02
DAV:  25    -0.130231426899E+03    0.98918E-04   -0.11445E-04  3255   0.107E-01    0.147E-02
DAV:  26    -0.130231418784E+03    0.81147E-05   -0.10248E-04  3230   0.107E-01    0.162E-02
DAV:  27    -0.130231402514E+03    0.16270E-04   -0.81688E-05  3150   0.419E-02    0.183E-02
DAV:  28    -0.130231396847E+03    0.56670E-05   -0.11966E-05  2050   0.174E-02
   1 F= -.13023140E+03 E0= -.13022802E+03  d E =-.130231E+03
       N       E                     dE             d eps       ncg     rms          rms(c)
DAV:   1    -0.131657142920E+03   -0.14257E+01   -0.36592E+01  2785   0.208E+01    0.195E+00
DAV:   2    -0.131426811691E+03    0.23033E+00   -0.29463E+00  3300   0.510E+00    0.139E+00
DAV:   3    -0.131375069884E+03    0.51742E-01   -0.22887E-01  3370   0.187E+00    0.842E-01
DAV:   4    -0.131340126111E+03    0.34944E-01   -0.99445E-02  3500   0.151E+00    0.381E-01
DAV:   5    -0.131330320852E+03    0.98053E-02   -0.51725E-02  3320   0.862E-01    0.237E-01
DAV:   6    -0.131324508800E+03    0.58121E-02   -0.17584E-02  3440   0.499E-01    0.150E-01
DAV:   7    -0.131321978632E+03    0.25302E-02   -0.21760E-03  3460   0.350E-01    0.120E-01
DAV:   8    -0.131319108735E+03    0.28699E-02   -0.22928E-03  3890   0.343E-01    0.750E-02
DAV:   9    -0.131316484354E+03    0.26244E-02   -0.34879E-03  3910   0.485E-01    0.438E-02
DAV:  10    -0.131315518189E+03    0.96617E-03   -0.18726E-03  3455   0.300E-01    0.386E-02
DAV:  11    -0.131314753504E+03    0.76469E-03   -0.11111E-03  4095   0.316E-01    0.248E-02
DAV:  12    -0.131314429922E+03    0.32358E-03   -0.85503E-04  3400   0.238E-01    0.186E-02
DAV:  13    -0.131314288666E+03    0.14126E-03   -0.66305E-04  3710   0.213E-01    0.133E-02
DAV:  14    -0.131314305764E+03   -0.17098E-04   -0.46052E-04  3240   0.952E-02    0.177E-02
DAV:  15    -0.131314296509E+03    0.92553E-05   -0.42032E-05  2990   0.247E-02
   2 F= -.13131430E+03 E0= -.13131138E+03  d E =-.108290E+01
       N       E                     dE             d eps       ncg     rms          rms(c)
DAV:   1    -0.131854917446E+03   -0.54061E+00   -0.65239E+00  2825   0.813E+00    0.839E-01
DAV:   2    -0.131824479147E+03    0.30438E-01   -0.42906E-01  3310   0.181E+00    0.491E-01
DAV:   3    -0.131818322698E+03    0.61564E-02   -0.59451E-02  3375   0.606E-01    0.347E-01
DAV:   4    -0.131815935788E+03    0.23869E-02   -0.21626E-02  3315   0.369E-01    0.205E-01
DAV:   5    -0.131814037790E+03    0.18980E-02   -0.76396E-03  3305   0.284E-01    0.825E-02
DAV:   6    -0.131813656479E+03    0.38131E-03   -0.12921E-03  3380   0.198E-01    0.399E-02
DAV:   7    -0.131813546595E+03    0.10988E-03   -0.42790E-04  3445   0.101E-01    0.308E-02
DAV:   8    -0.131813368119E+03    0.17848E-03   -0.49504E-05  3590   0.781E-02    0.183E-02
DAV:   9    -0.131813127278E+03    0.24084E-03   -0.41243E-05  3210   0.119E-01    0.983E-03
DAV:  10    -0.131813053442E+03    0.73836E-04   -0.51778E-05  3350   0.841E-02    0.114E-02
DAV:  11    -0.131813051372E+03    0.20704E-05   -0.55967E-05  3005   0.319E-02
   3 F= -.13181305E+03 E0= -.13181077E+03  d E =-.158165E+01
       N       E                     dE             d eps       ncg     rms          rms(c)
DAV:   1    -0.132089969049E+03   -0.27692E+00   -0.49401E+01  2740   0.263E+01    0.196E+00
DAV:   2    -0.132158639585E+03   -0.68671E-01   -0.13786E+00  3210   0.363E+00    0.119E+00
DAV:   3    -0.132129383959E+03    0.29256E-01   -0.31187E-02  3420   0.890E-01    0.649E-01
DAV:   4    -0.132117954163E+03    0.11430E-01   -0.34762E-02  3360   0.100E+00    0.163E-01
DAV:   5    -0.132118215061E+03   -0.26090E-03   -0.13449E-02  3260   0.424E-01    0.135E-01
DAV:   6    -0.132117492080E+03    0.72298E-03   -0.23117E-03  3290   0.179E-01    0.613E-02
DAV:   7    -0.132117253396E+03    0.23868E-03   -0.34935E-04  3420   0.118E-01    0.436E-02
DAV:   8    -0.132117103985E+03    0.14941E-03   -0.27046E-04  3360   0.886E-02    0.275E-02
DAV:   9    -0.132116972783E+03    0.13120E-03   -0.14900E-04  3750   0.137E-01    0.192E-02
DAV:  10    -0.132116920139E+03    0.52644E-04   -0.15058E-04  3460   0.834E-02    0.175E-02
DAV:  11    -0.132116905847E+03    0.14292E-04   -0.57805E-05  3260   0.469E-02    0.141E-02
DAV:  12    -0.132116881449E+03    0.24399E-04   -0.22563E-05  2470   0.640E-02    0.945E-03
DAV:  13    -0.132116854553E+03    0.26896E-04   -0.12076E-04  3750   0.139E-01    0.139E-02
DAV:  14    -0.132116845830E+03    0.87229E-05   -0.81409E-05  3090   0.463E-02
   4 F= -.13211685E+03 E0= -.13211319E+03  d E =-.303794E+00
       N       E                     dE             d eps       ncg     rms          rms(c)
DAV:   1    -0.132165228173E+03   -0.48374E-01   -0.29938E+01  2740   0.209E+01    0.152E+00
DAV:   2    -0.132202269634E+03   -0.37041E-01   -0.78931E-01  3220   0.289E+00    0.909E-01
DAV:   3    -0.132183273888E+03    0.18996E-01   -0.21678E-02  3430   0.792E-01    0.504E-01
DAV:   4    -0.132179103377E+03    0.41705E-02   -0.28855E-02  3390   0.100E+00    0.193E-01
DAV:   5    -0.132175569595E+03    0.35338E-02   -0.12934E-02  3270   0.446E-01    0.141E-01
DAV:   6    -0.132175154261E+03    0.41533E-03   -0.18602E-03  3390   0.163E-01    0.716E-02
DAV:   7    -0.132174851006E+03    0.30326E-03   -0.80793E-04  3320   0.151E-01    0.430E-02
DAV:   8    -0.132174675925E+03    0.17508E-03   -0.18786E-04  3535   0.110E-01    0.268E-02
DAV:   9    -0.132174478078E+03    0.19785E-03   -0.17587E-04  4130   0.139E-01    0.228E-02
DAV:  10    -0.132174326058E+03    0.15202E-03   -0.12457E-04  3475   0.119E-01    0.173E-02
DAV:  11    -0.132174220649E+03    0.10541E-03   -0.12766E-04  3650   0.134E-01    0.154E-02
DAV:  12    -0.132174102881E+03    0.11777E-03   -0.16788E-04  3560   0.192E-01    0.161E-02
DAV:  13    -0.132174062659E+03    0.40221E-04   -0.22134E-04  3380   0.131E-01    0.916E-03
DAV:  14    -0.132174058769E+03    0.38906E-05   -0.16643E-04  3270   0.778E-02    0.142E-02
DAV:  15    -0.132174048935E+03    0.98334E-05   -0.51794E-05  3150   0.358E-02
   5 F= -.13217405E+03 E0= -.13217134E+03  d E =-.360998E+00
       N       E                     dE             d eps       ncg     rms          rms(c)
DAV:   1    -0.132175824987E+03   -0.17662E-02   -0.70851E-01  2840   0.331E+00    0.232E-01
DAV:   2    -0.132176617231E+03   -0.79224E-03   -0.17072E-02  3195   0.440E-01    0.140E-01
DAV:   3    -0.132176398579E+03    0.21865E-03   -0.38816E-04  3420   0.167E-01    0.931E-02
DAV:   4    -0.132176052550E+03    0.34603E-03   -0.45383E-04  3345   0.120E-01    0.481E-02
DAV:   5    -0.132175921803E+03    0.13075E-03   -0.20040E-04  3290   0.936E-02    0.129E-02
DAV:   6    -0.132175912342E+03    0.94604E-05   -0.90938E-05  3280   0.419E-02
   6 F= -.13217591E+03 E0= -.13217318E+03  d E =-.362861E+00
       N       E                     dE             d eps       ncg     rms          rms(c)
DAV:   1    -0.132246267668E+03   -0.70346E-01   -0.10817E+01  2780   0.133E+01    0.511E-01
DAV:   2    -0.132264208183E+03   -0.17941E-01   -0.25482E-01  3230   0.195E+00    0.295E-01
DAV:   3    -0.132262105949E+03    0.21022E-02   -0.81261E-03  3480   0.390E-01    0.204E-01
DAV:   4    -0.132261449612E+03    0.65634E-03   -0.15622E-03  3470   0.202E-01    0.157E-01
DAV:   5    -0.132260437766E+03    0.10118E-02   -0.23022E-03  3390   0.236E-01    0.771E-02
DAV:   6    -0.132260159194E+03    0.27857E-03   -0.95591E-04  3310   0.157E-01    0.478E-02
DAV:   7    -0.132259959241E+03    0.19995E-03   -0.59749E-04  3640   0.154E-01    0.310E-02
DAV:   8    -0.132259837230E+03    0.12201E-03   -0.26196E-04  3450   0.108E-01    0.252E-02
DAV:   9    -0.132259724450E+03    0.11278E-03   -0.87509E-05  3540   0.971E-02    0.127E-02
DAV:  10    -0.132259619118E+03    0.10533E-03   -0.77213E-05  3530   0.109E-01    0.127E-02
DAV:  11    -0.132259602603E+03    0.16516E-04   -0.93449E-05  3230   0.473E-02    0.112E-02
DAV:  12    -0.132259579331E+03    0.23272E-04   -0.12230E-05  2390   0.345E-02    0.773E-03
DAV:  13    -0.132259486291E+03    0.93040E-04   -0.11401E-04  3760   0.173E-01    0.133E-02
DAV:  14    -0.132259484401E+03    0.18898E-05   -0.70705E-05  3145   0.383E-02
   7 F= -.13225948E+03 E0= -.13225694E+03  d E =-.835721E-01
       N       E                     dE             d eps       ncg     rms          rms(c)
DAV:   1    -0.132268316133E+03   -0.88298E-02   -0.19793E+01  2835   0.173E+01    0.702E-01
DAV:   2    -0.132303341411E+03   -0.35025E-01   -0.47919E-01  3210   0.252E+00    0.404E-01
DAV:   3    -0.132299807739E+03    0.35337E-02   -0.10601E-02  3510   0.457E-01    0.276E-01
DAV:   4    -0.132298810146E+03    0.99759E-03   -0.33885E-03  3540   0.297E-01    0.192E-01
DAV:   5    -0.132296851814E+03    0.19583E-02   -0.33504E-03  3320   0.291E-01    0.932E-02
DAV:   6    -0.132296554330E+03    0.29748E-03   -0.12977E-03  3340   0.171E-01    0.606E-02
DAV:   7    -0.132296207482E+03    0.34685E-03   -0.78568E-04  3440   0.169E-01    0.372E-02
DAV:   8    -0.132296016967E+03    0.19052E-03   -0.33562E-04  3570   0.114E-01    0.312E-02
DAV:   9    -0.132295862075E+03    0.15489E-03   -0.19090E-04  3370   0.104E-01    0.173E-02
DAV:  10    -0.132295677193E+03    0.18488E-03   -0.86306E-05  3910   0.117E-01    0.175E-02
DAV:  11    -0.132295606132E+03    0.71060E-04   -0.85571E-05  3090   0.641E-02    0.113E-02
DAV:  12    -0.132295433851E+03    0.17228E-03   -0.13308E-04  4140   0.154E-01    0.202E-02
DAV:  13    -0.132295315348E+03    0.11850E-03   -0.13836E-04  3630   0.141E-01    0.228E-02
DAV:  14    -0.132295295774E+03    0.19574E-04   -0.13258E-04  3240   0.583E-02    0.174E-02
DAV:  15    -0.132295256537E+03    0.39237E-04   -0.37565E-05  3110   0.749E-02    0.556E-03
DAV:  16    -0.132295234173E+03    0.22364E-04   -0.42988E-05  3355   0.665E-02    0.527E-03
DAV:  17    -0.132295230518E+03    0.36556E-05   -0.38751E-05  3060   0.329E-02
   8 F= -.13229523E+03 E0= -.13229309E+03  d E =-.119318E+00
       N       E                     dE             d eps       ncg     rms          rms(c)
DAV:   1    -0.132336422848E+03   -0.41189E-01   -0.12429E+01  2805   0.123E+01    0.579E-01
DAV:   2    -0.132359460758E+03   -0.23038E-01   -0.29089E-01  3145   0.172E+00    0.332E-01
DAV:   3    -0.132357269123E+03    0.21916E-02   -0.67270E-03  3470   0.375E-01    0.215E-01
DAV:   4    -0.132355939584E+03    0.13295E-02   -0.23890E-03  3460   0.271E-01    0.157E-01
DAV:   5    -0.132354589180E+03    0.13504E-02   -0.22642E-03  3500   0.276E-01    0.571E-02
DAV:   6    -0.132354247057E+03    0.34212E-03   -0.95159E-04  3440   0.189E-01    0.367E-02
DAV:   7    -0.132354041199E+03    0.20586E-03   -0.36425E-04  3460   0.131E-01    0.264E-02
DAV:   8    -0.132353907817E+03    0.13338E-03   -0.10727E-04  3850   0.978E-02    0.170E-02
DAV:   9    -0.132353797274E+03    0.11054E-03   -0.69292E-05  3490   0.986E-02    0.107E-02
DAV:  10    -0.132353701959E+03    0.95315E-04   -0.10289E-04  4010   0.130E-01    0.100E-02
DAV:  11    -0.132353676444E+03    0.25515E-04   -0.11817E-04  3360   0.935E-02    0.671E-03
DAV:  12    -0.132353671267E+03    0.51774E-05   -0.73713E-05  3305   0.679E-02
   9 F= -.13235367E+03 E0= -.13235090E+03  d E =-.584407E-01
       N       E                     dE             d eps       ncg     rms          rms(c)
DAV:   1    -0.132350065266E+03    0.36112E-02   -0.19384E+01  2750   0.158E+01    0.736E-01
DAV:   2    -0.132387151951E+03   -0.37087E-01   -0.47462E-01  3150   0.228E+00    0.422E-01
DAV:   3    -0.132383415313E+03    0.37366E-02   -0.11084E-02  3545   0.468E-01    0.267E-01
DAV:   4    -0.132382105143E+03    0.13102E-02   -0.47513E-03  3390   0.394E-01    0.194E-01
DAV:   5    -0.132379836909E+03    0.22682E-02   -0.41886E-03  3350   0.357E-01    0.809E-02
DAV:   6    -0.132379209932E+03    0.62698E-03   -0.10990E-03  3485   0.222E-01    0.555E-02
DAV:   7    -0.132378805089E+03    0.40484E-03   -0.42731E-04  3800   0.190E-01    0.383E-02
DAV:   8    -0.132378469414E+03    0.33568E-03   -0.32771E-04  4290   0.185E-01    0.227E-02
DAV:   9    -0.132378338290E+03    0.13112E-03   -0.28911E-04  3340   0.123E-01    0.163E-02
DAV:  10    -0.132378209639E+03    0.12865E-03   -0.93518E-05  4210   0.120E-01    0.129E-02
DAV:  11    -0.132378072797E+03    0.13684E-03   -0.81453E-05  3570   0.150E-01    0.992E-03
DAV:  12    -0.132377984066E+03    0.88731E-04   -0.12447E-04  3710   0.153E-01    0.881E-03
DAV:  13    -0.132377964804E+03    0.19262E-04   -0.15955E-04  3390   0.107E-01    0.587E-03
DAV:  14    -0.132377973378E+03   -0.85734E-05   -0.12987E-04  3110   0.467E-02    0.121E-02
DAV:  15    -0.132377970410E+03    0.29682E-05   -0.59188E-06  2025   0.127E-02
  10 F= -.13237797E+03 E0= -.13237485E+03  d E =-.827399E-01
       N       E                     dE             d eps       ncg     rms          rms(c)
DAV:   1    -0.132401783759E+03   -0.23810E-01   -0.15714E+01  2745   0.156E+01    0.614E-01
DAV:   2    -0.132431911026E+03   -0.30127E-01   -0.35851E-01  3235   0.218E+00    0.358E-01
DAV:   3    -0.132429626718E+03    0.22843E-02   -0.85441E-03  3450   0.405E-01    0.241E-01
DAV:   4    -0.132428371941E+03    0.12548E-02   -0.48268E-03  3255   0.296E-01    0.166E-01
DAV:   5    -0.132427238310E+03    0.11336E-02   -0.33680E-03  3330   0.313E-01    0.601E-02
DAV:   6    -0.132427199345E+03    0.38965E-04   -0.93013E-04  3395   0.145E-01    0.544E-02
DAV:   7    -0.132427149953E+03    0.49392E-04   -0.39034E-04  3310   0.965E-02    0.344E-02
DAV:   8    -0.132427095641E+03    0.54311E-04   -0.82857E-05  3255   0.788E-02    0.218E-02
DAV:   9    -0.132427054290E+03    0.41351E-04   -0.74217E-05  3280   0.596E-02    0.157E-02
DAV:  10    -0.132427019632E+03    0.34658E-04   -0.20942E-05  2690   0.489E-02    0.117E-02
DAV:  11    -0.132426970587E+03    0.49045E-04   -0.12665E-05  2435   0.642E-02    0.674E-03
DAV:  12    -0.132426918814E+03    0.51773E-04   -0.57945E-05  3585   0.909E-02    0.114E-02
DAV:  13    -0.132426867500E+03    0.51314E-04   -0.51313E-05  3295   0.123E-01    0.167E-02
DAV:  14    -0.132426845641E+03    0.21859E-04   -0.86761E-05  3375   0.897E-02    0.730E-03
DAV:  15    -0.132426852455E+03   -0.68141E-05   -0.68559E-05  2915   0.275E-02
  11 F= -.13242685E+03 E0= -.13242436E+03  d E =-.488820E-01
       N       E                     dE             d eps       ncg     rms          rms(c)
DAV:   1    -0.132412555177E+03    0.14290E-01   -0.22355E+01  2780   0.185E+01    0.738E-01
DAV:   2    -0.132456003218E+03   -0.43448E-01   -0.52283E-01  3245   0.259E+00    0.433E-01
DAV:   3    -0.132452266251E+03    0.37370E-02   -0.13095E-02  3420   0.460E-01    0.287E-01
DAV:   4    -0.132450799707E+03    0.14665E-02   -0.89329E-03  3315   0.382E-01    0.181E-01
DAV:   5    -0.132449316921E+03    0.14828E-02   -0.50511E-03  3360   0.354E-01    0.792E-02
DAV:   6    -0.132449164184E+03    0.15274E-03   -0.11887E-03  3330   0.170E-01    0.715E-02
DAV:   7    -0.132449078936E+03    0.85248E-04   -0.38149E-04  3480   0.948E-02    0.466E-02
DAV:   8    -0.132448939399E+03    0.13954E-03   -0.92219E-05  3530   0.105E-01    0.225E-02
DAV:   9    -0.132448831178E+03    0.10822E-03   -0.59475E-05  3260   0.835E-02    0.149E-02
DAV:  10    -0.132448754684E+03    0.76494E-04   -0.34163E-05  2820   0.682E-02    0.113E-02
DAV:  11    -0.132448609133E+03    0.14555E-03   -0.43755E-05  3355   0.130E-01    0.965E-03
DAV:  12    -0.132448521507E+03    0.87626E-04   -0.80305E-05  3540   0.102E-01    0.138E-02
DAV:  13    -0.132448392652E+03    0.12886E-03   -0.11774E-04  3825   0.200E-01    0.175E-02
DAV:  14    -0.132448333919E+03    0.58733E-04   -0.18413E-04  3460   0.171E-01    0.140E-02
DAV:  15    -0.132448348415E+03   -0.14497E-04   -0.22170E-04  3140   0.523E-02    0.147E-02
DAV:  16    -0.132448349321E+03   -0.90515E-06   -0.72112E-06  1920   0.936E-03
  12 F= -.13244835E+03 E0= -.13244635E+03  d E =-.703789E-01
       N       E                     dE             d eps       ncg     rms          rms(c)
DAV:   1    -0.132470975771E+03   -0.22627E-01   -0.15427E+01  2800   0.155E+01    0.570E-01
DAV:   2    -0.132501601620E+03   -0.30626E-01   -0.35640E-01  3235   0.219E+00    0.318E-01
DAV:   3    -0.132499469661E+03    0.21320E-02   -0.93134E-03  3390   0.371E-01    0.209E-01
DAV:   4    -0.132498727186E+03    0.74247E-03   -0.50900E-03  3255   0.251E-01    0.131E-01
DAV:   5    -0.132498084214E+03    0.64297E-03   -0.24612E-03  3345   0.213E-01    0.561E-02
DAV:   6    -0.132498054336E+03    0.29878E-04   -0.64093E-04  3410   0.134E-01    0.554E-02
DAV:   7    -0.132498033068E+03    0.21268E-04   -0.19906E-04  3630   0.861E-02    0.414E-02
DAV:   8    -0.132497979397E+03    0.53671E-04   -0.91186E-05  3155   0.677E-02    0.209E-02
DAV:   9    -0.132497943253E+03    0.36144E-04   -0.27199E-05  2820   0.639E-02    0.105E-02
DAV:  10    -0.132497920035E+03    0.23218E-04   -0.24769E-05  2690   0.608E-02    0.615E-03
DAV:  11    -0.132497903962E+03    0.16073E-04   -0.31368E-05  2900   0.630E-02    0.628E-03
DAV:  12    -0.132497883810E+03    0.20152E-04   -0.10334E-05  2445   0.718E-02    0.630E-03
DAV:  13    -0.132497874445E+03    0.93647E-05   -0.31948E-05  3000   0.556E-02
  13 F= -.13249787E+03 E0= -.13249603E+03  d E =-.495251E-01
       N       E                     dE             d eps       ncg     rms          rms(c)
DAV:   1    -0.132466375183E+03    0.31509E-01   -0.31974E+01  2810   0.225E+01    0.830E-01
DAV:   2    -0.132532596490E+03   -0.66221E-01   -0.77055E-01  3220   0.324E+00    0.477E-01
DAV:   3    -0.132527738869E+03    0.48576E-02   -0.19202E-02  3390   0.530E-01    0.309E-01
DAV:   4    -0.132525869035E+03    0.18698E-02   -0.11756E-02  3285   0.392E-01    0.172E-01
DAV:   5    -0.132524749072E+03    0.11200E-02   -0.50224E-03  3380   0.287E-01    0.823E-02
DAV:   6    -0.132524654096E+03    0.94976E-04   -0.13059E-03  3515   0.210E-01    0.793E-02
DAV:   7    -0.132524588428E+03    0.65667E-04   -0.41784E-04  3500   0.114E-01    0.576E-02
DAV:   8    -0.132524453633E+03    0.13480E-03   -0.14426E-04  3230   0.877E-02    0.306E-02
DAV:   9    -0.132524331808E+03    0.12182E-03   -0.85482E-05  3650   0.113E-01    0.171E-02
DAV:  10    -0.132524254119E+03    0.77689E-04   -0.74965E-05  3415   0.110E-01    0.845E-03
DAV:  11    -0.132524194410E+03    0.59709E-04   -0.87449E-05  3805   0.115E-01    0.143E-02
DAV:  12    -0.132524139421E+03    0.54989E-04   -0.39954E-05  3100   0.955E-02    0.805E-03
DAV:  13    -0.132524116068E+03    0.23352E-04   -0.48975E-05  3140   0.698E-02    0.721E-03
DAV:  14    -0.132524100007E+03    0.16062E-04   -0.18124E-05  2585   0.551E-02    0.585E-03
DAV:  15    -0.132524080108E+03    0.19898E-04   -0.36922E-05  3120   0.111E-01    0.474E-03
DAV:  16    -0.132524082121E+03   -0.20127E-05   -0.48812E-05  3100   0.286E-02
  14 F= -.13252408E+03 E0= -.13252252E+03  d E =-.757328E-01
       N       E                     dE             d eps       ncg     rms          rms(c)
DAV:   1    -0.132539094083E+03   -0.15014E-01   -0.13160E+01  2730   0.147E+01    0.519E-01
DAV:   2    -0.132564363521E+03   -0.25269E-01   -0.29405E-01  3165   0.205E+00    0.290E-01
DAV:   3    -0.132562388472E+03    0.19750E-02   -0.54142E-03  3435   0.331E-01    0.191E-01
DAV:   4    -0.132561368651E+03    0.10198E-02   -0.52658E-03  3300   0.364E-01    0.911E-02
DAV:   5    -0.132561044557E+03    0.32409E-03   -0.31365E-03  3355   0.244E-01    0.580E-02
DAV:   6    -0.132561008190E+03    0.36367E-04   -0.46505E-04  3295   0.914E-02    0.572E-02
DAV:   7    -0.132560988066E+03    0.20124E-04   -0.47698E-05  3260   0.268E-02    0.491E-02
DAV:   8    -0.132560906722E+03    0.81344E-04   -0.72230E-05  3295   0.714E-02    0.206E-02
DAV:   9    -0.132560854468E+03    0.52255E-04   -0.48067E-05  3455   0.825E-02    0.952E-03
DAV:  10    -0.132560833184E+03    0.21284E-04   -0.37075E-05  2985   0.590E-02    0.664E-03
DAV:  11    -0.132560813271E+03    0.19913E-04   -0.85109E-06  2345   0.657E-02    0.483E-03
DAV:  12    -0.132560799368E+03    0.13903E-04   -0.32099E-05  3065   0.755E-02    0.507E-03
DAV:  13    -0.132560799751E+03   -0.38339E-06   -0.42571E-05  2915   0.376E-02
  15 F= -.13256080E+03 E0= -.13255922E+03  d E =-.367176E-01
       N       E                     dE             d eps       ncg     rms          rms(c)
DAV:   1    -0.132507391439E+03    0.53408E-01   -0.47188E+01  2760   0.279E+01    0.101E+00
DAV:   2    -0.132602996176E+03   -0.95605E-01   -0.11171E+00  3135   0.397E+00    0.589E-01
DAV:   3    -0.132595220950E+03    0.77752E-02   -0.22082E-02  3445   0.650E-01    0.378E-01
DAV:   4    -0.132591426844E+03    0.37941E-02   -0.19227E-02  3320   0.674E-01    0.180E-01
DAV:   5    -0.132590215136E+03    0.12117E-02   -0.10857E-02  3320   0.438E-01    0.107E-01
DAV:   6    -0.132590010414E+03    0.20472E-03   -0.16497E-03  3285   0.183E-01    0.987E-02
DAV:   7    -0.132589858102E+03    0.15231E-03   -0.25766E-04  3700   0.790E-02    0.712E-02
DAV:   8    -0.132589544583E+03    0.31352E-03   -0.23325E-04  3815   0.174E-01    0.282E-02
DAV:   9    -0.132589401688E+03    0.14289E-03   -0.18792E-04  3860   0.134E-01    0.173E-02
DAV:  10    -0.132589302480E+03    0.99208E-04   -0.95690E-05  3680   0.117E-01    0.122E-02
DAV:  11    -0.132589228893E+03    0.73587E-04   -0.50058E-05  3230   0.973E-02    0.117E-02
DAV:  12    -0.132589136315E+03    0.92578E-04   -0.94950E-05  3725   0.165E-01    0.103E-02
DAV:  13    -0.132589134578E+03    0.17376E-05   -0.14178E-04  3210   0.494E-02    0.739E-03
DAV:  14    -0.132589128207E+03    0.63711E-05   -0.11507E-05  2275   0.201E-02
  16 F= -.13258913E+03 E0= -.13258750E+03  d E =-.650461E-01
       N       E                     dE             d eps       ncg     rms          rms(c)
DAV:   1    -0.132605254864E+03   -0.16120E-01   -0.78340E+00  2780   0.118E+01    0.412E-01
DAV:   2    -0.132619982101E+03   -0.14727E-01   -0.17738E-01  3190   0.167E+00    0.230E-01
DAV:   3    -0.132618769887E+03    0.12122E-02   -0.36891E-03  3495   0.279E-01    0.160E-01
DAV:   4    -0.132618004648E+03    0.76524E-03   -0.31325E-03  3375   0.277E-01    0.765E-02
DAV:   5    -0.132617736839E+03    0.26781E-03   -0.16666E-03  3350   0.182E-01    0.554E-02
DAV:   6    -0.132617665515E+03    0.71324E-04   -0.38777E-04  3415   0.942E-02    0.414E-02
DAV:   7    -0.132617585875E+03    0.79640E-04   -0.12912E-04  3590   0.680E-02    0.258E-02
DAV:   8    -0.132617507267E+03    0.78607E-04   -0.55700E-05  3460   0.786E-02    0.184E-02
DAV:   9    -0.132617450446E+03    0.56822E-04   -0.70797E-05  3635   0.687E-02    0.115E-02
DAV:  10    -0.132617410793E+03    0.39653E-04   -0.29635E-05  2950   0.544E-02    0.689E-03
DAV:  11    -0.132617377078E+03    0.33715E-04   -0.19439E-05  2590   0.565E-02    0.541E-03
DAV:  12    -0.132617354688E+03    0.22390E-04   -0.24896E-05  2840   0.587E-02    0.564E-03
DAV:  13    -0.132617338104E+03    0.16584E-04   -0.19428E-05  2565   0.612E-02    0.404E-03
DAV:  14    -0.132617333489E+03    0.46150E-05   -0.33410E-05  2950   0.441E-02
  17 F= -.13261733E+03 E0= -.13261556E+03  d E =-.282053E-01
       N       E                     dE             d eps       ncg     rms          rms(c)
DAV:   1    -0.132613083114E+03    0.42550E-02   -0.78170E+00  2780   0.118E+01    0.417E-01
DAV:   2    -0.132628298466E+03   -0.15215E-01   -0.18201E-01  3170   0.169E+00    0.233E-01
DAV:   3    -0.132627144541E+03    0.11539E-02   -0.40812E-03  3460   0.281E-01    0.165E-01
DAV:   4    -0.132626566267E+03    0.57827E-03   -0.30863E-03  3365   0.254E-01    0.890E-02
DAV:   5    -0.132626182216E+03    0.38405E-03   -0.18635E-03  3340   0.190E-01    0.586E-02
DAV:   6    -0.132626097827E+03    0.84390E-04   -0.32359E-04  3465   0.943E-02    0.506E-02
DAV:   7    -0.132626032808E+03    0.65019E-04   -0.17860E-04  3555   0.734E-02    0.304E-02
DAV:   8    -0.132625944224E+03    0.88584E-04   -0.57225E-05  3165   0.792E-02    0.146E-02
DAV:   9    -0.132625879416E+03    0.64808E-04   -0.63274E-05  3495   0.767E-02    0.882E-03
DAV:  10    -0.132625857176E+03    0.22240E-04   -0.46564E-05  3130   0.414E-02    0.825E-03
DAV:  11    -0.132625833738E+03    0.23437E-04   -0.79060E-06  2215   0.328E-02    0.498E-03
DAV:  12    -0.132625794895E+03    0.38843E-04   -0.34399E-05  3065   0.746E-02    0.870E-03
DAV:  13    -0.132625794909E+03   -0.14144E-07   -0.29609E-05  2835   0.191E-02
  18 F= -.13262579E+03 E0= -.13262381E+03  d E =-.366667E-01
       N       E                     dE             d eps       ncg     rms          rms(c)
DAV:   1    -0.132636460013E+03   -0.10665E-01   -0.53836E+00  2730   0.963E+00    0.341E-01
DAV:   2    -0.132646080400E+03   -0.96204E-02   -0.11604E-01  3190   0.134E+00    0.193E-01
DAV:   3    -0.132645328577E+03    0.75182E-03   -0.25536E-03  3635   0.246E-01    0.133E-01
DAV:   4    -0.132645097923E+03    0.23065E-03   -0.17538E-03  3380   0.209E-01    0.809E-02
DAV:   5    -0.132644747605E+03    0.35032E-03   -0.11349E-03  3305   0.178E-01    0.404E-02
DAV:   6    -0.132644682320E+03    0.65285E-04   -0.30885E-04  3360   0.831E-02    0.312E-02
DAV:   7    -0.132644654745E+03    0.27575E-04   -0.13495E-04  3250   0.592E-02    0.177E-02
DAV:   8    -0.132644637291E+03    0.17454E-04   -0.24034E-05  2775   0.431E-02    0.102E-02
DAV:   9    -0.132644626108E+03    0.11183E-04   -0.23762E-05  2680   0.457E-02    0.459E-03
DAV:  10    -0.132644624890E+03    0.12181E-05   -0.16964E-05  2390   0.231E-02
  19 F= -.13264462E+03 E0= -.13264219E+03  d E =-.188300E-01
       N       E                     dE             d eps       ncg     rms          rms(c)
DAV:   1    -0.132641413336E+03    0.32128E-02   -0.62012E+00  2750   0.104E+01    0.366E-01
DAV:   2    -0.132652489525E+03   -0.11076E-01   -0.13413E-01  3195   0.145E+00    0.209E-01
DAV:   3    -0.132651634629E+03    0.85490E-03   -0.33078E-03  3550   0.273E-01    0.145E-01
DAV:   4    -0.132651451923E+03    0.18271E-03   -0.19924E-03  3395   0.207E-01    0.994E-02
DAV:   5    -0.132650913979E+03    0.53794E-03   -0.12316E-03  3335   0.197E-01    0.442E-02
DAV:   6    -0.132650813595E+03    0.10038E-03   -0.40262E-04  3455   0.102E-01    0.325E-02
DAV:   7    -0.132650779457E+03    0.34138E-04   -0.24289E-04  3255   0.853E-02    0.205E-02
DAV:   8    -0.132650758218E+03    0.21240E-04   -0.73281E-05  3215   0.488E-02    0.164E-02
DAV:   9    -0.132650740338E+03    0.17879E-04   -0.33474E-05  2780   0.425E-02    0.720E-03
DAV:  10    -0.132650728912E+03    0.11427E-04   -0.16045E-05  2480   0.371E-02    0.546E-03
DAV:  11    -0.132650724696E+03    0.42154E-05   -0.11292E-05  2305   0.241E-02
  20 F= -.13265072E+03 E0= -.13264784E+03  d E =-.249298E-01
       N       E                     dE             d eps       ncg     rms          rms(c)
DAV:   1    -0.132654746569E+03   -0.40177E-02   -0.87675E+00  2740   0.122E+01    0.400E-01
DAV:   2    -0.132671259890E+03   -0.16513E-01   -0.19246E-01  3205   0.173E+00    0.236E-01
DAV:   3    -0.132670076129E+03    0.11838E-02   -0.29883E-03  3720   0.272E-01    0.165E-01
DAV:   4    -0.132669319524E+03    0.75661E-03   -0.25602E-03  3340   0.288E-01    0.687E-02
DAV:   5    -0.132669213478E+03    0.10605E-03   -0.12098E-03  3230   0.163E-01    0.537E-02
DAV:   6    -0.132669154459E+03    0.59019E-04   -0.23548E-04  3240   0.710E-02    0.372E-02
DAV:   7    -0.132669114518E+03    0.39941E-04   -0.20697E-04  3120   0.608E-02    0.167E-02
DAV:   8    -0.132669093492E+03    0.21027E-04   -0.32655E-05  2685   0.474E-02    0.124E-02
DAV:   9    -0.132669079019E+03    0.14473E-04   -0.40417E-05  2830   0.456E-02    0.727E-03
DAV:  10    -0.132669069053E+03    0.99660E-05   -0.24352E-05  2585   0.378E-02
  21 F= -.13266907E+03 E0= -.13266627E+03  d E =-.183444E-01
       N       E                     dE             d eps       ncg     rms          rms(c)
DAV:   1    -0.132662900848E+03    0.61782E-02   -0.67933E+00  2740   0.108E+01    0.351E-01
DAV:   2    -0.132675527218E+03   -0.12626E-01   -0.14828E-01  3195   0.152E+00    0.207E-01
DAV:   3    -0.132674586150E+03    0.94107E-03   -0.24488E-03  3750   0.245E-01    0.146E-01
DAV:   4    -0.132674113884E+03    0.47227E-03   -0.14435E-03  3445   0.225E-01    0.743E-02
DAV:   5    -0.132673839292E+03    0.27459E-03   -0.11151E-03  3255   0.167E-01    0.445E-02
DAV:   6    -0.132673795514E+03    0.43778E-04   -0.34044E-04  3295   0.797E-02    0.322E-02
DAV:   7    -0.132673752850E+03    0.42664E-04   -0.19414E-04  3210   0.611E-02    0.150E-02
DAV:   8    -0.132673729202E+03    0.23648E-04   -0.47087E-05  2705   0.446E-02    0.124E-02
DAV:   9    -0.132673713079E+03    0.16123E-04   -0.29111E-05  2690   0.388E-02    0.760E-03
DAV:  10    -0.132673693275E+03    0.19804E-04   -0.14309E-05  2300   0.487E-02    0.531E-03
DAV:  11    -0.132673683044E+03    0.10232E-04   -0.14543E-05  2425   0.296E-02    0.454E-03
DAV:  12    -0.132673673564E+03    0.94798E-05   -0.58088E-06  2245   0.297E-02
  22 F= -.13267367E+03 E0= -.13267092E+03  d E =-.229489E-01
       N       E                     dE             d eps       ncg     rms          rms(c)
DAV:   1    -0.132676706589E+03   -0.30235E-02   -0.58489E+00  2770   0.101E+01    0.362E-01
DAV:   2    -0.132688171003E+03   -0.11464E-01   -0.13870E-01  3190   0.144E+00    0.206E-01
DAV:   3    -0.132687277943E+03    0.89306E-03   -0.31501E-03  3480   0.228E-01    0.138E-01
DAV:   4    -0.132686967078E+03    0.31087E-03   -0.29171E-03  3285   0.190E-01    0.760E-02
DAV:   5    -0.132686618327E+03    0.34875E-03   -0.18509E-03  3320   0.160E-01    0.349E-02
DAV:   6    -0.132686592220E+03    0.26108E-04   -0.32475E-04  3255   0.809E-02    0.315E-02
DAV:   7    -0.132686573586E+03    0.18634E-04   -0.63847E-05  3510   0.402E-02    0.211E-02
DAV:   8    -0.132686535743E+03    0.37843E-04   -0.13605E-05  2350   0.554E-02    0.988E-03
DAV:   9    -0.132686506232E+03    0.29511E-04   -0.26690E-05  2815   0.511E-02    0.508E-03
DAV:  10    -0.132686494511E+03    0.11722E-04   -0.15475E-05  2230   0.316E-02    0.509E-03
DAV:  11    -0.132686475690E+03    0.18820E-04   -0.69815E-06  2215   0.423E-02    0.420E-03
DAV:  12    -0.132686442737E+03    0.32953E-04   -0.47579E-05  3235   0.104E-01    0.748E-03
DAV:  13    -0.132686442374E+03    0.36326E-06   -0.39315E-05  2830   0.261E-02
  23 F= -.13268644E+03 E0= -.13268384E+03  d E =-.127688E-01
       N       E                     dE             d eps       ncg     rms          rms(c)
DAV:   1    -0.132685259249E+03    0.11835E-02   -0.17758E+00  2770   0.556E+00    0.199E-01
DAV:   2    -0.132688754684E+03   -0.34954E-02   -0.42146E-02  3195   0.795E-01    0.114E-01
DAV:   3    -0.132688479301E+03    0.27538E-03   -0.93162E-04  3500   0.125E-01    0.770E-02
DAV:   4    -0.132688369565E+03    0.10974E-03   -0.89785E-04  3265   0.109E-01    0.406E-02
DAV:   5    -0.132688266257E+03    0.10331E-03   -0.55778E-04  3330   0.911E-02    0.201E-02
DAV:   6    -0.132688256041E+03    0.10216E-04   -0.10138E-04  3225   0.467E-02    0.177E-02
DAV:   7    -0.132688247138E+03    0.89025E-05   -0.18026E-05  2395   0.249E-02
  24 F= -.13268825E+03 E0= -.13268578E+03  d E =-.145736E-01
       N       E                     dE             d eps       ncg     rms          rms(c)
DAV:   1    -0.132692574830E+03   -0.43188E-02   -0.21768E+00  2730   0.593E+00    0.198E-01
DAV:   2    -0.132696166151E+03   -0.35913E-02   -0.45851E-02  3210   0.828E-01    0.123E-01
DAV:   3    -0.132695786110E+03    0.38004E-03   -0.10347E-03  3545   0.154E-01    0.847E-02
DAV:   4    -0.132695564482E+03    0.22163E-03   -0.11297E-03  3285   0.155E-01    0.393E-02
DAV:   5    -0.132695465906E+03    0.98576E-04   -0.65499E-04  3315   0.990E-02    0.260E-02
DAV:   6    -0.132695446950E+03    0.18956E-04   -0.11841E-04  3305   0.490E-02    0.188E-02
DAV:   7    -0.132695424873E+03    0.22077E-04   -0.28727E-05  3040   0.304E-02    0.105E-02
DAV:   8    -0.132695403354E+03    0.21518E-04   -0.83510E-06  2370   0.340E-02    0.622E-03
DAV:   9    -0.132695383172E+03    0.20182E-04   -0.18372E-05  2545   0.428E-02    0.402E-03
DAV:  10    -0.132695373001E+03    0.10171E-04   -0.11644E-05  2315   0.306E-02    0.312E-03
DAV:  11    -0.132695362329E+03    0.10672E-04   -0.66713E-06  2255   0.413E-02    0.334E-03
DAV:  12    -0.132695357171E+03    0.51577E-05   -0.13008E-05  2475   0.375E-02
  25 F= -.13269536E+03 E0= -.13269303E+03  d E =-.711003E-02
       N       E                     dE             d eps       ncg     rms          rms(c)
DAV:   1    -0.132695523122E+03   -0.16079E-03   -0.68406E-01  2750   0.334E+00    0.111E-01
DAV:   2    -0.132696629173E+03   -0.11061E-02   -0.14239E-02  3220   0.463E-01    0.686E-02
DAV:   3    -0.132696501847E+03    0.12733E-03   -0.30779E-04  3530   0.856E-02    0.474E-02
DAV:   4    -0.132696412789E+03    0.89057E-04   -0.35054E-04  3275   0.907E-02    0.213E-02
DAV:   5    -0.132696374733E+03    0.38056E-04   -0.19904E-04  3195   0.580E-02    0.151E-02
DAV:   6    -0.132696362828E+03    0.11906E-04   -0.37441E-05  2805   0.296E-02    0.105E-02
DAV:   7    -0.132696346279E+03    0.16549E-04   -0.10206E-05  2170   0.257E-02    0.625E-03
DAV:   8    -0.132696329255E+03    0.17025E-04   -0.60229E-06  2225   0.313E-02    0.455E-03
DAV:   9    -0.132696309309E+03    0.19945E-04   -0.10391E-05  2360   0.429E-02    0.334E-03
DAV:  10    -0.132696290050E+03    0.19259E-04   -0.11754E-05  2385   0.518E-02    0.283E-03
DAV:  11    -0.132696270004E+03    0.20047E-04   -0.27759E-05  2765   0.891E-02    0.351E-03
DAV:  12    -0.132696269195E+03    0.80820E-06   -0.48039E-05  3090   0.536E-02
  26 F= -.13269627E+03 E0= -.13269403E+03  d E =-.802206E-02
       N       E                     dE             d eps       ncg     rms          rms(c)
DAV:   1    -0.132697042129E+03   -0.77213E-03   -0.19631E+00  2730   0.582E+00    0.203E-01
DAV:   2    -0.132700641627E+03   -0.35995E-02   -0.47381E-02  3220   0.886E-01    0.132E-01
DAV:   3    -0.132700274948E+03    0.36668E-03   -0.16913E-03  3410   0.183E-01    0.992E-02
DAV:   4    -0.132700079861E+03    0.19509E-03   -0.76008E-04  3305   0.115E-01    0.567E-02
DAV:   5    -0.132699898604E+03    0.18126E-03   -0.66603E-04  3270   0.120E-01    0.298E-02
DAV:   6    -0.132699870344E+03    0.28261E-04   -0.19982E-04  3290   0.720E-02    0.241E-02
DAV:   7    -0.132699841455E+03    0.28889E-04   -0.11874E-04  3590   0.759E-02    0.125E-02
DAV:   8    -0.132699828059E+03    0.13396E-04   -0.43385E-05  3245   0.451E-02    0.102E-02
DAV:   9    -0.132699818007E+03    0.10052E-04   -0.15660E-05  2535   0.276E-02    0.507E-03
DAV:  10    -0.132699809288E+03    0.87191E-05   -0.49733E-06  2320   0.277E-02
  27 F= -.13269981E+03 E0= -.13269765E+03  d E =-.354009E-02
       N       E                     dE             d eps       ncg     rms          rms(c)
DAV:   1    -0.132699825229E+03   -0.72223E-05   -0.18237E-02  2960   0.557E-01    0.198E-02
DAV:   2    -0.132699858210E+03   -0.32981E-04   -0.42648E-04  3250   0.825E-02    0.120E-02
DAV:   3    -0.132699855015E+03    0.31944E-05   -0.10696E-05  2155   0.168E-02    0.866E-03
DAV:   4    -0.132699853202E+03    0.18137E-05   -0.94829E-06  2020   0.155E-02    0.384E-03
DAV:   5    -0.132699852656E+03    0.54595E-06   -0.72937E-06  1980   0.126E-02    0.274E-03
DAV:   6    -0.132699852619E+03    0.37120E-07   -0.18833E-06  1785   0.659E-03
  28 F= -.13269985E+03 E0= -.13269770E+03  d E =-.358342E-02
       N       E                     dE             d eps       ncg     rms          rms(c)
DAV:   1    -0.132701536081E+03   -0.16834E-02   -0.48161E-01  2760   0.277E+00    0.953E-02
DAV:   2    -0.132702222182E+03   -0.68610E-03   -0.99699E-03  3250   0.396E-01    0.630E-02
DAV:   3    -0.132702099140E+03    0.12304E-03   -0.34239E-04  3385   0.892E-02    0.440E-02
DAV:   4    -0.132702036529E+03    0.62611E-04   -0.21569E-04  3295   0.719E-02    0.270E-02
DAV:   5    -0.132701971815E+03    0.64714E-04   -0.15659E-04  3255   0.702E-02    0.126E-02
DAV:   6    -0.132701956461E+03    0.15354E-04   -0.55892E-05  3205   0.428E-02    0.104E-02
DAV:   7    -0.132701936604E+03    0.19856E-04   -0.80265E-06  2080   0.375E-02    0.613E-03
DAV:   8    -0.132701913561E+03    0.23043E-04   -0.95403E-06  2390   0.481E-02    0.446E-03
DAV:   9    -0.132701893234E+03    0.20328E-04   -0.13728E-05  2425   0.515E-02    0.345E-03
DAV:  10    -0.132701875511E+03    0.17722E-04   -0.10375E-05  2270   0.532E-02    0.319E-03
DAV:  11    -0.132701857353E+03    0.18158E-04   -0.12876E-05  2390   0.676E-02    0.283E-03
DAV:  12    -0.132701841950E+03    0.15403E-04   -0.28985E-05  2995   0.889E-02    0.307E-03
DAV:  13    -0.132701845122E+03   -0.31723E-05   -0.57279E-05  2935   0.342E-02
  29 F= -.13270185E+03 E0= -.13269964E+03  d E =-.199250E-02
       N       E                     dE             d eps       ncg     rms          rms(c)
DAV:   1    -0.132701909086E+03   -0.67136E-04   -0.43333E-02  2890   0.835E-01    0.293E-02
DAV:   2    -0.132701971395E+03   -0.62309E-04   -0.90387E-04  3265   0.119E-01    0.188E-02
DAV:   3    -0.132701960554E+03    0.10841E-04   -0.31380E-05  2905   0.254E-02    0.130E-02
DAV:   4    -0.132701955964E+03    0.45907E-05   -0.18175E-05  2080   0.208E-02    0.841E-03
DAV:   5    -0.132701950013E+03    0.59503E-05   -0.15852E-05  2265   0.225E-02    0.356E-03
DAV:   6    -0.132701948659E+03    0.13541E-05   -0.58359E-06  1805   0.135E-02
  30 F= -.13270195E+03 E0= -.13269973E+03  d E =-.209604E-02
       N       E                     dE             d eps       ncg     rms          rms(c)
DAV:   1    -0.132703198780E+03   -0.12488E-02   -0.50114E-01  2730   0.293E+00    0.100E-01
DAV:   2    -0.132704123262E+03   -0.92448E-03   -0.11212E-02  3165   0.416E-01    0.558E-02
DAV:   3    -0.132704051797E+03    0.71465E-04   -0.20587E-04  3560   0.666E-02    0.386E-02
DAV:   4    -0.132704011096E+03    0.40701E-04   -0.15171E-04  3380   0.655E-02    0.175E-02
DAV:   5    -0.132704002840E+03    0.82553E-05   -0.86886E-05  3190   0.448E-02    0.118E-02
DAV:   6    -0.132704000364E+03    0.24768E-05   -0.21139E-05  1985   0.203E-02
  31 F= -.13270400E+03 E0= -.13270173E+03  d E =-.205170E-02
       N       E                     dE             d eps       ncg     rms          rms(c)
DAV:   1    -0.132702730227E+03    0.12726E-02   -0.16848E+00  2730   0.537E+00    0.184E-01
DAV:   2    -0.132705798618E+03   -0.30684E-02   -0.37665E-02  3170   0.765E-01    0.103E-01
DAV:   3    -0.132705530461E+03    0.26816E-03   -0.71069E-04  3595   0.132E-01    0.721E-02
DAV:   4    -0.132705331349E+03    0.19911E-03   -0.50246E-04  3430   0.136E-01    0.340E-02
DAV:   5    -0.132705257323E+03    0.74026E-04   -0.32236E-04  3235   0.105E-01    0.226E-02
DAV:   6    -0.132705241081E+03    0.16242E-04   -0.12153E-04  3140   0.486E-02    0.197E-02
DAV:   7    -0.132705213331E+03    0.27750E-04   -0.19243E-05  2720   0.275E-02    0.132E-02
DAV:   8    -0.132705152351E+03    0.60980E-04   -0.17230E-05  2530   0.628E-02    0.836E-03
DAV:   9    -0.132705102893E+03    0.49458E-04   -0.19477E-05  2655   0.625E-02    0.758E-03
DAV:  10    -0.132705047409E+03    0.55484E-04   -0.23123E-05  2740   0.830E-02    0.553E-03
DAV:  11    -0.132704975957E+03    0.71452E-04   -0.45350E-05  3190   0.124E-01    0.580E-03
DAV:  12    -0.132704930840E+03    0.45117E-04   -0.76061E-05  3365   0.116E-01    0.552E-03
DAV:  13    -0.132704901879E+03    0.28961E-04   -0.62194E-05  3315   0.141E-01    0.380E-03
DAV:  14    -0.132704913511E+03   -0.11632E-04   -0.14210E-04  3015   0.588E-02    0.719E-03
DAV:  15    -0.132704916990E+03   -0.34789E-05   -0.25461E-05  2555   0.169E-02
  32 F= -.13270492E+03 E0= -.13270255E+03  d E =-.296833E-02
       N       E                     dE             d eps       ncg     rms          rms(c)
DAV:   1    -0.132704897246E+03    0.16264E-04   -0.85380E-02  2820   0.121E+00    0.438E-02
DAV:   2    -0.132705048220E+03   -0.15097E-03   -0.18887E-03  3160   0.174E-01    0.234E-02
DAV:   3    -0.132705035729E+03    0.12491E-04   -0.48395E-05  3210   0.338E-02    0.156E-02
DAV:   4    -0.132705029607E+03    0.61227E-05   -0.18196E-05  2190   0.240E-02    0.736E-03
DAV:   5    -0.132705028171E+03    0.14358E-05   -0.12310E-05  2145   0.241E-02    0.465E-03
DAV:   6    -0.132705028314E+03   -0.14367E-06   -0.78593E-06  1905   0.140E-02
  33 F= -.13270503E+03 E0= -.13270268E+03  d E =-.307966E-02
       N       E                     dE             d eps       ncg     rms          rms(c)
DAV:   1    -0.132705964650E+03   -0.93648E-03   -0.12738E-01  2755   0.141E+00    0.539E-02
DAV:   2    -0.132706192044E+03   -0.22739E-03   -0.27754E-03  3055   0.193E-01    0.276E-02
DAV:   3    -0.132706177966E+03    0.14077E-04   -0.61689E-05  3440   0.333E-02    0.181E-02
DAV:   4    -0.132706170225E+03    0.77411E-05   -0.24952E-05  2895   0.245E-02    0.815E-03
DAV:   5    -0.132706168606E+03    0.16189E-05   -0.96077E-06  2145   0.204E-02    0.474E-03
DAV:   6    -0.132706167919E+03    0.68720E-06   -0.45275E-06  1845   0.110E-02
  34 F= -.13270617E+03 E0= -.13270381E+03  d E =-.113960E-02
       N       E                     dE             d eps       ncg     rms          rms(c)
DAV:   1    -0.132707324390E+03   -0.11558E-02   -0.11464E+00  2730   0.423E+00    0.163E-01
DAV:   2    -0.132709403131E+03   -0.20787E-02   -0.25135E-02  3025   0.579E-01    0.832E-02
DAV:   3    -0.132709280033E+03    0.12310E-03   -0.51283E-04  3600   0.930E-02    0.550E-02
DAV:   4    -0.132709217376E+03    0.62657E-04   -0.25357E-04  3425   0.730E-02    0.254E-02
DAV:   5    -0.132709206590E+03    0.10786E-04   -0.86735E-05  3185   0.478E-02    0.154E-02
DAV:   6    -0.132709202897E+03    0.36933E-05   -0.28127E-05  2920   0.245E-02
  35 F= -.13270920E+03 E0= -.13270682E+03  d E =-.417458E-02
       N       E                     dE             d eps       ncg     rms          rms(c)
DAV:   1    -0.132705916480E+03    0.32901E-02   -0.45820E+00  2730   0.847E+00    0.329E-01
DAV:   2    -0.132714367320E+03   -0.84508E-02   -0.10214E-01  3035   0.117E+00    0.168E-01
DAV:   3    -0.132713866362E+03    0.50096E-03   -0.20268E-03  3570   0.184E-01    0.112E-01
DAV:   4    -0.132713613914E+03    0.25245E-03   -0.11040E-03  3370   0.152E-01    0.511E-02
DAV:   5    -0.132713573604E+03    0.40310E-04   -0.35783E-04  3255   0.947E-02    0.322E-02
DAV:   6    -0.132713562508E+03    0.11096E-04   -0.11739E-04  3405   0.480E-02    0.266E-02
DAV:   7    -0.132713550111E+03    0.12396E-04   -0.66229E-05  3055   0.466E-02    0.142E-02
DAV:   8    -0.132713547703E+03    0.24088E-05   -0.30386E-05  2570   0.292E-02
  36 F= -.13271355E+03 E0= -.13271109E+03  d E =-.851939E-02
       N       E                     dE             d eps       ncg     rms          rms(c)
DAV:   1    -0.132683705174E+03    0.29845E-01   -0.18281E+01  2730   0.170E+01    0.672E-01
DAV:   2    -0.132718870163E+03   -0.35165E-01   -0.42692E-01  3060   0.237E+00    0.349E-01
DAV:   3    -0.132716732094E+03    0.21381E-02   -0.86603E-03  3560   0.377E-01    0.230E-01
DAV:   4    -0.132715697310E+03    0.10348E-02   -0.47263E-03  3380   0.315E-01    0.106E-01
DAV:   5    -0.132715522614E+03    0.17470E-03   -0.14399E-03  3250   0.189E-01    0.663E-02
DAV:   6    -0.132715499100E+03    0.23514E-04   -0.52264E-04  3385   0.101E-01    0.509E-02
DAV:   7    -0.132715447409E+03    0.51691E-04   -0.22724E-04  3355   0.841E-02    0.292E-02
DAV:   8    -0.132715441286E+03    0.61229E-05   -0.11254E-04  3265   0.495E-02    0.217E-02
DAV:   9    -0.132715424547E+03    0.16739E-04   -0.76155E-05  2855   0.503E-02    0.816E-03
DAV:  10    -0.132715421107E+03    0.34408E-05   -0.27711E-05  2600   0.322E-02
  37 F= -.13271542E+03 E0= -.13271283E+03  d E =-.103928E-01
       N       E                     dE             d eps       ncg     rms          rms(c)
DAV:   1    -0.132716397692E+03   -0.97314E-03   -0.37576E-01  2730   0.243E+00    0.840E-02
DAV:   2    -0.132717103989E+03   -0.70630E-03   -0.79844E-03  3100   0.330E-01    0.459E-02
DAV:   3    -0.132717066872E+03    0.37117E-04   -0.15681E-04  3515   0.550E-02    0.311E-02
DAV:   4    -0.132717053634E+03    0.13238E-04   -0.62668E-05  3165   0.366E-02    0.218E-02
DAV:   5    -0.132717037935E+03    0.15699E-04   -0.78609E-05  3220   0.400E-02    0.819E-03
DAV:   6    -0.132717039500E+03   -0.15647E-05   -0.26430E-05  2470   0.216E-02
  38 F= -.13271704E+03 E0= -.13271446E+03  d E =-.161839E-02
       N       E                     dE             d eps       ncg     rms          rms(c)
DAV:   1    -0.132715180387E+03    0.18575E-02   -0.33788E+00  2730   0.729E+00    0.257E-01
DAV:   2    -0.132721647032E+03   -0.64666E-02   -0.71982E-02  3015   0.989E-01    0.135E-01
DAV:   3    -0.132721253040E+03    0.39399E-03   -0.12995E-03  3540   0.148E-01    0.886E-02
DAV:   4    -0.132721156868E+03    0.96173E-04   -0.65117E-04  3325   0.112E-01    0.543E-02
DAV:   5    -0.132721034954E+03    0.12191E-03   -0.69755E-04  3185   0.102E-01    0.219E-02
DAV:   6    -0.132721033864E+03    0.10905E-05   -0.18686E-04  3155   0.467E-02    0.190E-02
DAV:   7    -0.132721031502E+03    0.23611E-05   -0.32417E-05  2815   0.247E-02
  39 F= -.13272103E+03 E0= -.13271850E+03  d E =-.561040E-02
       N       E                     dE             d eps       ncg     rms          rms(c)
DAV:   1    -0.132701535731E+03    0.19498E-01   -0.13497E+01  2730   0.146E+01    0.515E-01
DAV:   2    -0.132727710823E+03   -0.26175E-01   -0.29310E-01  3010   0.199E+00    0.275E-01
DAV:   3    -0.132726045608E+03    0.16652E-02   -0.52795E-03  3545   0.287E-01    0.175E-01
DAV:   4    -0.132725270579E+03    0.77503E-03   -0.28160E-03  3325   0.241E-01    0.711E-02
DAV:   5    -0.132725196428E+03    0.74150E-04   -0.16467E-03  3265   0.159E-01    0.428E-02
DAV:   6    -0.132725195994E+03    0.43462E-06   -0.38307E-04  3255   0.695E-02    0.342E-02
DAV:   7    -0.132725184616E+03    0.11378E-04   -0.74807E-05  3390   0.296E-02    0.210E-02
DAV:   8    -0.132725177965E+03    0.66512E-05   -0.15783E-05  2615   0.291E-02
  40 F= -.13272518E+03 E0= -.13272273E+03  d E =-.975686E-02
       N       E                     dE             d eps       ncg     rms          rms(c)
DAV:   1    -0.132723627206E+03    0.15574E-02   -0.10744E+00  2760   0.411E+00    0.140E-01
DAV:   2    -0.132725618272E+03   -0.19911E-02   -0.22347E-02  2980   0.554E-01    0.764E-02
DAV:   3    -0.132725493608E+03    0.12466E-03   -0.41249E-04  3545   0.826E-02    0.506E-02
DAV:   4    -0.132725452289E+03    0.41319E-04   -0.22981E-04  3255   0.655E-02    0.298E-02
DAV:   5    -0.132725410896E+03    0.41393E-04   -0.23232E-04  3140   0.636E-02    0.120E-02
DAV:   6    -0.132725409630E+03    0.12662E-05   -0.62179E-05  3130   0.290E-02
  41 F= -.13272541E+03 E0= -.13272295E+03  d E =-.998852E-02
       N       E                     dE             d eps       ncg     rms          rms(c)
DAV:   1    -0.132727883562E+03   -0.24727E-02   -0.89123E-01  2770   0.378E+00    0.126E-01
DAV:   2    -0.132729577599E+03   -0.16940E-02   -0.18819E-02  3100   0.519E-01    0.665E-02
DAV:   3    -0.132729479987E+03    0.97612E-04   -0.27190E-04  3785   0.754E-02    0.452E-02
DAV:   4    -0.132729425518E+03    0.54468E-04   -0.14704E-04  3105   0.690E-02    0.217E-02
DAV:   5    -0.132729397903E+03    0.27616E-04   -0.13627E-04  3160   0.599E-02    0.125E-02
DAV:   6    -0.132729392226E+03    0.56765E-05   -0.48251E-05  2900   0.314E-02
  42 F= -.13272939E+03 E0= -.13272699E+03  d E =-.398260E-02
       N       E                     dE             d eps       ncg     rms          rms(c)
DAV:   1    -0.132722708354E+03    0.66895E-02   -0.80129E+00  2770   0.113E+01    0.373E-01
DAV:   2    -0.132738067082E+03   -0.15359E-01   -0.17096E-01  3150   0.156E+00    0.206E-01
DAV:   3    -0.132737112363E+03    0.95472E-03   -0.26642E-03  3770   0.229E-01    0.139E-01
DAV:   4    -0.132736453111E+03    0.65925E-03   -0.16523E-03  3195   0.221E-01    0.539E-02
DAV:   5    -0.132736331955E+03    0.12116E-03   -0.95071E-04  3300   0.168E-01    0.359E-02
DAV:   6    -0.132736292031E+03    0.39924E-04   -0.44573E-04  3235   0.956E-02    0.240E-02
DAV:   7    -0.132736230925E+03    0.61106E-04   -0.66644E-05  3065   0.586E-02    0.159E-02
DAV:   8    -0.132736163886E+03    0.67039E-04   -0.15317E-05  2445   0.678E-02    0.109E-02
DAV:   9    -0.132736101032E+03    0.62854E-04   -0.28894E-05  2790   0.714E-02    0.765E-03
DAV:  10    -0.132736036173E+03    0.64859E-04   -0.23476E-05  2660   0.852E-02    0.706E-03
DAV:  11    -0.132735920682E+03    0.11549E-03   -0.12376E-04  4020   0.196E-01    0.577E-03
DAV:  12    -0.132735891505E+03    0.29177E-04   -0.13358E-04  3235   0.103E-01    0.484E-03
DAV:  13    -0.132735878423E+03    0.13082E-04   -0.60574E-05  3190   0.821E-02    0.343E-03
DAV:  14    -0.132735880567E+03   -0.21443E-05   -0.56503E-05  3105   0.328E-02
  43 F= -.13273588E+03 E0= -.13273365E+03  d E =-.104709E-01
       N       E                     dE             d eps       ncg     rms          rms(c)
DAV:   1    -0.132734858443E+03    0.10200E-02   -0.89525E-01  2780   0.374E+00    0.122E-01
DAV:   2    -0.132736531901E+03   -0.16735E-02   -0.18684E-02  3085   0.512E-01    0.676E-02
DAV:   3    -0.132736436901E+03    0.95000E-04   -0.26151E-04  3710   0.720E-02    0.459E-02
DAV:   4    -0.132736370167E+03    0.66733E-04   -0.17766E-04  3150   0.767E-02    0.169E-02
DAV:   5    -0.132736362305E+03    0.78621E-05   -0.11569E-04  3195   0.525E-02    0.127E-02
DAV:   6    -0.132736358235E+03    0.40699E-05   -0.35042E-05  2650   0.246E-02
  44 F= -.13273636E+03 E0= -.13273418E+03  d E =-.109486E-01
       N       E                     dE             d eps       ncg     rms          rms(c)
DAV:   1    -0.132739262808E+03   -0.29005E-02   -0.16195E+00  2730   0.498E+00    0.187E-01
DAV:   2    -0.132742256643E+03   -0.29938E-02   -0.35470E-02  3005   0.696E-01    0.954E-02
DAV:   3    -0.132742098611E+03    0.15803E-03   -0.67584E-04  3565   0.111E-01    0.647E-02
DAV:   4    -0.132742006656E+03    0.91955E-04   -0.43628E-04  3260   0.969E-02    0.296E-02
DAV:   5    -0.132741986784E+03    0.19872E-04   -0.21014E-04  3190   0.647E-02    0.209E-02
DAV:   6    -0.132741981266E+03    0.55187E-05   -0.68694E-05  3050   0.369E-02
  45 F= -.13274198E+03 E0= -.13273984E+03  d E =-.562303E-02
       N       E                     dE             d eps       ncg     rms          rms(c)
DAV:   1    -0.132725396253E+03    0.16591E-01   -0.13344E+01  2730   0.143E+01    0.548E-01
DAV:   2    -0.132750738067E+03   -0.25342E-01   -0.30383E-01  3070   0.204E+00    0.287E-01
DAV:   3    -0.132749241917E+03    0.14961E-02   -0.61500E-03  3520   0.346E-01    0.194E-01
DAV:   4    -0.132748189933E+03    0.10520E-02   -0.34577E-03  3350   0.287E-01    0.905E-02
DAV:   5    -0.132747892755E+03    0.29718E-03   -0.12368E-03  3330   0.214E-01    0.611E-02
DAV:   6    -0.132747760574E+03    0.13218E-03   -0.78998E-04  3225   0.171E-01    0.391E-02
DAV:   7    -0.132747637321E+03    0.12325E-03   -0.31474E-04  3300   0.118E-01    0.279E-02
DAV:   8    -0.132747512200E+03    0.12512E-03   -0.78695E-05  3930   0.110E-01    0.212E-02
DAV:   9    -0.132747345726E+03    0.16647E-03   -0.10231E-04  3625   0.142E-01    0.979E-03
DAV:  10    -0.132747298926E+03    0.46800E-04   -0.95576E-05  3030   0.722E-02    0.954E-03
DAV:  11    -0.132747213570E+03    0.85357E-04   -0.32268E-05  2900   0.114E-01    0.730E-03
DAV:  12    -0.132747082303E+03    0.13127E-03   -0.16527E-04  3920   0.225E-01    0.101E-02
DAV:  13    -0.132747055941E+03    0.26362E-04   -0.16172E-04  3250   0.107E-01    0.909E-03
DAV:  14    -0.132747049957E+03    0.59840E-05   -0.91028E-05  3200   0.526E-02
  46 F= -.13274705E+03 E0= -.13274505E+03  d E =-.106917E-01
       N       E                     dE             d eps       ncg     rms          rms(c)
DAV:   1    -0.132746745724E+03    0.31022E-03   -0.35763E-01  2845   0.241E+00    0.851E-02
DAV:   2    -0.132747387724E+03   -0.64200E-03   -0.76265E-03  3110   0.329E-01    0.452E-02
DAV:   3    -0.132747348099E+03    0.39625E-04   -0.15191E-04  3620   0.581E-02    0.299E-02
DAV:   4    -0.132747322695E+03    0.25404E-04   -0.80972E-05  3265   0.489E-02    0.143E-02
DAV:   5    -0.132747313515E+03    0.91795E-05   -0.61608E-05  3115   0.381E-02    0.894E-03
DAV:   6    -0.132747311605E+03    0.19107E-05   -0.17520E-05  2020   0.199E-02
  47 F= -.13274731E+03 E0= -.13274530E+03  d E =-.109534E-01
       N       E                     dE             d eps       ncg     rms          rms(c)
DAV:   1    -0.132747015638E+03    0.29788E-03   -0.24026E+00  2730   0.636E+00    0.233E-01
DAV:   2    -0.132751669656E+03   -0.46540E-02   -0.54362E-02  3130   0.895E-01    0.126E-01
DAV:   3    -0.132751351080E+03    0.31858E-03   -0.10352E-03  3565   0.143E-01    0.847E-02
DAV:   4    -0.132751196453E+03    0.15463E-03   -0.10073E-03  3255   0.142E-01    0.425E-02
DAV:   5    -0.132751079402E+03    0.11705E-03   -0.61123E-04  3315   0.119E-01    0.243E-02
DAV:   6    -0.132751064571E+03    0.14831E-04   -0.14078E-04  3285   0.529E-02    0.239E-02
DAV:   7    -0.132751054942E+03    0.96298E-05   -0.18046E-05  2600   0.177E-02
  48 F= -.13275105E+03 E0= -.13274900E+03  d E =-.374334E-02
       N       E                     dE             d eps       ncg     rms          rms(c)
DAV:   1    -0.132748073739E+03    0.29908E-02   -0.24361E+00  2730   0.640E+00    0.235E-01
DAV:   2    -0.132752731949E+03   -0.46582E-02   -0.55054E-02  3145   0.903E-01    0.128E-01
DAV:   3    -0.132752362512E+03    0.36944E-03   -0.10177E-03  3565   0.152E-01    0.866E-02
DAV:   4    -0.132752135435E+03    0.22708E-03   -0.10273E-03  3290   0.161E-01    0.449E-02
DAV:   5    -0.132751941492E+03    0.19394E-03   -0.66581E-04  3345   0.141E-01    0.261E-02
DAV:   6    -0.132751907654E+03    0.33839E-04   -0.19701E-04  3310   0.645E-02    0.266E-02
DAV:   7    -0.132751888819E+03    0.18835E-04   -0.23081E-05  2790   0.204E-02    0.221E-02
DAV:   8    -0.132751790691E+03    0.98128E-04   -0.17692E-05  2405   0.653E-02    0.114E-02
DAV:   9    -0.132751669954E+03    0.12074E-03   -0.53626E-05  3400   0.994E-02    0.108E-02
DAV:  10    -0.132751601429E+03    0.68525E-04   -0.45557E-05  3075   0.817E-02    0.859E-03
DAV:  11    -0.132751508173E+03    0.93256E-04   -0.33130E-05  2860   0.116E-01    0.847E-03
DAV:  12    -0.132751401444E+03    0.10673E-03   -0.10897E-04  3945   0.172E-01    0.704E-03
DAV:  13    -0.132751347350E+03    0.54094E-04   -0.14960E-04  3730   0.169E-01    0.439E-03
DAV:  14    -0.132751354133E+03   -0.67827E-05   -0.18653E-04  3260   0.101E-01    0.740E-03
DAV:  15    -0.132751362261E+03   -0.81286E-05   -0.80875E-05  2890   0.304E-02
  49 F= -.13275136E+03 E0= -.13274925E+03  d E =-.405066E-02
       N       E                     dE             d eps       ncg     rms          rms(c)
DAV:   1    -0.132751214464E+03    0.13967E-03   -0.18881E-01  2830   0.177E+00    0.673E-02
DAV:   2    -0.132751569574E+03   -0.35511E-03   -0.41550E-03  3095   0.248E-01    0.351E-02
DAV:   3    -0.132751546888E+03    0.22686E-04   -0.85788E-05  3520   0.418E-02    0.226E-02
DAV:   4    -0.132751537962E+03    0.89263E-05   -0.75197E-05  3095   0.363E-02    0.114E-02
DAV:   5    -0.132751532427E+03    0.55347E-05   -0.42947E-05  2180   0.280E-02    0.623E-03
DAV:   6    -0.132751532148E+03    0.27888E-06   -0.88788E-06  1915   0.151E-02
  50 F= -.13275153E+03 E0= -.13274944E+03  d E =-.422054E-02
       N       E                     dE             d eps       ncg     rms          rms(c)
DAV:   1    -0.132752995024E+03   -0.14626E-02   -0.11336E+00  2730   0.438E+00    0.165E-01
DAV:   2    -0.132755054397E+03   -0.20594E-02   -0.24440E-02  3075   0.600E-01    0.843E-02
DAV:   3    -0.132754941429E+03    0.11297E-03   -0.64965E-04  3490   0.932E-02    0.548E-02
DAV:   4    -0.132754918036E+03    0.23393E-04   -0.48405E-04  3290   0.669E-02    0.312E-02
DAV:   5    -0.132754869159E+03    0.48877E-04   -0.25020E-04  3160   0.563E-02    0.140E-02
DAV:   6    -0.132754865427E+03    0.37322E-05   -0.35205E-05  3050   0.316E-02
  51 F= -.13275487E+03 E0= -.13275267E+03  d E =-.333328E-02
       N       E                     dE             d eps       ncg     rms          rms(c)
DAV:   1    -0.132746818710E+03    0.80504E-02   -0.68214E+00  2730   0.107E+01    0.409E-01
DAV:   2    -0.132759356647E+03   -0.12538E-01   -0.14926E-01  3085   0.148E+00    0.210E-01
DAV:   3    -0.132758648215E+03    0.70843E-03   -0.40385E-03  3560   0.228E-01    0.135E-01
DAV:   4    -0.132758473869E+03    0.17435E-03   -0.29660E-03  3235   0.164E-01    0.738E-02
DAV:   5    -0.132758280420E+03    0.19345E-03   -0.16752E-03  3275   0.134E-01    0.376E-02
DAV:   6    -0.132758221269E+03    0.59151E-04   -0.21038E-04  3480   0.754E-02    0.337E-02
DAV:   7    -0.132758216861E+03    0.44083E-05   -0.53419E-05  3255   0.327E-02
  52 F= -.13275822E+03 E0= -.13275577E+03  d E =-.668471E-02
       N       E                     dE             d eps       ncg     rms          rms(c)
DAV:   1    -0.132759085948E+03   -0.86468E-03   -0.19130E+00  2730   0.558E+00    0.192E-01
DAV:   2    -0.132762637085E+03   -0.35511E-02   -0.40388E-02  3185   0.768E-01    0.103E-01
DAV:   3    -0.132762410246E+03    0.22684E-03   -0.80884E-04  3580   0.115E-01    0.685E-02
DAV:   4    -0.132762321038E+03    0.89208E-04   -0.25446E-04  3395   0.815E-02    0.416E-02
DAV:   5    -0.132762254677E+03    0.66360E-04   -0.19839E-04  3220   0.716E-02    0.213E-02
DAV:   6    -0.132762244569E+03    0.10109E-04   -0.11398E-04  3130   0.392E-02    0.169E-02
DAV:   7    -0.132762227964E+03    0.16604E-04   -0.29910E-05  2745   0.411E-02    0.796E-03
DAV:   8    -0.132762219761E+03    0.82030E-05   -0.15056E-05  2135   0.275E-02
  53 F= -.13276222E+03 E0= -.13275975E+03  d E =-.400290E-02
       N       E                     dE             d eps       ncg     rms          rms(c)
DAV:   1    -0.132755418133E+03    0.68098E-02   -0.57925E+00  2730   0.970E+00    0.332E-01
DAV:   2    -0.132766166839E+03   -0.10749E-01   -0.12204E-01  3195   0.133E+00    0.179E-01
DAV:   3    -0.132765447750E+03    0.71909E-03   -0.25004E-03  3620   0.197E-01    0.119E-01
DAV:   4    -0.132765083806E+03    0.36394E-03   -0.11568E-03  3285   0.148E-01    0.599E-02
DAV:   5    -0.132764938291E+03    0.14551E-03   -0.60962E-04  3285   0.116E-01    0.309E-02
DAV:   6    -0.132764910895E+03    0.27396E-04   -0.21718E-04  3395   0.812E-02    0.242E-02
DAV:   7    -0.132764884527E+03    0.26368E-04   -0.52998E-05  3400   0.487E-02    0.184E-02
DAV:   8    -0.132764854252E+03    0.30276E-04   -0.18558E-05  2210   0.424E-02    0.107E-02
DAV:   9    -0.132764829906E+03    0.24345E-04   -0.23955E-05  2435   0.428E-02    0.590E-03
DAV:  10    -0.132764813542E+03    0.16365E-04   -0.14920E-05  2195   0.340E-02    0.626E-03
DAV:  11    -0.132764793417E+03    0.20125E-04   -0.75224E-06  2265   0.441E-02    0.371E-03
DAV:  12    -0.132764753463E+03    0.39954E-04   -0.45889E-05  3305   0.111E-01    0.818E-03
DAV:  13    -0.132764749858E+03    0.36051E-05   -0.45885E-05  2925   0.345E-02
  54 F= -.13276475E+03 E0= -.13276223E+03  d E =-.653300E-02
       N       E                     dE             d eps       ncg     rms          rms(c)
DAV:   1    -0.132763812717E+03    0.94075E-03   -0.26556E+00  2760   0.660E+00    0.221E-01
DAV:   2    -0.132768988817E+03   -0.51761E-02   -0.57577E-02  2980   0.904E-01    0.118E-01
DAV:   3    -0.132768700782E+03    0.28804E-03   -0.12724E-03  3450   0.130E-01    0.784E-02
DAV:   4    -0.132768620142E+03    0.80640E-04   -0.92101E-04  3270   0.964E-02    0.490E-02
DAV:   5    -0.132768510392E+03    0.10975E-03   -0.46235E-04  3320   0.101E-01    0.177E-02
DAV:   6    -0.132768511460E+03   -0.10681E-05   -0.11105E-04  3420   0.466E-02    0.192E-02
DAV:   7    -0.132768509557E+03    0.19028E-05   -0.18840E-05  2405   0.187E-02
  55 F= -.13276851E+03 E0= -.13276600E+03  d E =-.375970E-02
       N       E                     dE             d eps       ncg     rms          rms(c)
DAV:   1    -0.132743550238E+03    0.24961E-01   -0.15717E+01  2730   0.161E+01    0.548E-01
DAV:   2    -0.132774969077E+03   -0.31419E-01   -0.35065E-01  2980   0.223E+00    0.299E-01
DAV:   3    -0.132773072066E+03    0.18970E-02   -0.76220E-03  3475   0.328E-01    0.196E-01
DAV:   4    -0.132772421403E+03    0.65066E-03   -0.59537E-03  3265   0.262E-01    0.114E-01
DAV:   5    -0.132771777671E+03    0.64373E-03   -0.32434E-03  3415   0.247E-01    0.423E-02
DAV:   6    -0.132771761356E+03    0.16315E-04   -0.67116E-04  3350   0.134E-01    0.438E-02
DAV:   7    -0.132771736738E+03    0.24618E-04   -0.12637E-04  3575   0.529E-02    0.374E-02
DAV:   8    -0.132771679518E+03    0.57220E-04   -0.33107E-05  2695   0.592E-02    0.212E-02
DAV:   9    -0.132771605659E+03    0.73859E-04   -0.52317E-05  3320   0.895E-02    0.135E-02
DAV:  10    -0.132771580939E+03    0.24720E-04   -0.36271E-05  2975   0.419E-02    0.136E-02
DAV:  11    -0.132771554900E+03    0.26039E-04   -0.20885E-05  2695   0.401E-02    0.752E-03
DAV:  12    -0.132771519797E+03    0.35103E-04   -0.23465E-05  2810   0.661E-02    0.123E-02
DAV:  13    -0.132771466097E+03    0.53700E-04   -0.32145E-05  3000   0.106E-01    0.923E-03
DAV:  14    -0.132771449121E+03    0.16976E-04   -0.67390E-05  3140   0.588E-02    0.757E-03
DAV:  15    -0.132771431131E+03    0.17990E-04   -0.26787E-05  2780   0.647E-02    0.934E-03
DAV:  16    -0.132771408871E+03    0.22260E-04   -0.30397E-05  2845   0.986E-02    0.369E-03
DAV:  17    -0.132771410795E+03   -0.19239E-05   -0.46811E-05  3065   0.360E-02
  56 F= -.13277141E+03 E0= -.13276897E+03  d E =-.666094E-02
       N       E                     dE             d eps       ncg     rms          rms(c)
DAV:   1    -0.132770786277E+03    0.62259E-03   -0.43639E-01  2780   0.268E+00    0.896E-02
DAV:   2    -0.132771626201E+03   -0.83992E-03   -0.93156E-03  3040   0.367E-01    0.476E-02
DAV:   3    -0.132771578012E+03    0.48189E-04   -0.19714E-04  3465   0.525E-02    0.313E-02
DAV:   4    -0.132771562155E+03    0.15857E-04   -0.16223E-04  3115   0.432E-02    0.180E-02
DAV:   5    -0.132771546560E+03    0.15595E-04   -0.93392E-05  3025   0.407E-02    0.685E-03
DAV:   6    -0.132771547432E+03   -0.87207E-06   -0.18203E-05  2185   0.209E-02
  57 F= -.13277155E+03 E0= -.13276910E+03  d E =-.679757E-02
       N       E                     dE             d eps       ncg     rms          rms(c)
DAV:   1    -0.132771648595E+03   -0.10203E-03   -0.12565E+00  2730   0.461E+00    0.165E-01
DAV:   2    -0.132773936953E+03   -0.22884E-02   -0.28217E-02  3135   0.654E-01    0.919E-02
DAV:   3    -0.132773713525E+03    0.22343E-03   -0.10304E-03  3370   0.137E-01    0.647E-02
DAV:   4    -0.132773594793E+03    0.11873E-03   -0.57839E-04  3240   0.986E-02    0.390E-02
DAV:   5    -0.132773448486E+03    0.14631E-03   -0.34841E-04  3245   0.120E-01    0.185E-02
DAV:   6    -0.132773429905E+03    0.18581E-04   -0.14964E-04  3355   0.647E-02    0.186E-02
DAV:   7    -0.132773416070E+03    0.13835E-04   -0.42599E-05  3170   0.361E-02    0.132E-02
DAV:   8    -0.132773376056E+03    0.40013E-04   -0.15458E-05  2390   0.633E-02    0.716E-03
DAV:   9    -0.132773355895E+03    0.20162E-04   -0.21827E-05  2775   0.517E-02    0.467E-03
DAV:  10    -0.132773337540E+03    0.18355E-04   -0.13887E-05  2520   0.674E-02    0.334E-03
DAV:  11    -0.132773329077E+03    0.84630E-05   -0.27478E-05  2875   0.612E-02
  58 F= -.13277333E+03 E0= -.13277088E+03  d E =-.178164E-02
       N       E                     dE             d eps       ncg     rms          rms(c)
DAV:   1    -0.132773089484E+03    0.24806E-03   -0.22644E-01  2815   0.197E+00    0.702E-02
DAV:   2    -0.132773510826E+03   -0.42134E-03   -0.51321E-03  3130   0.281E-01    0.394E-02
DAV:   3    -0.132773471163E+03    0.39664E-04   -0.17693E-04  3380   0.574E-02    0.280E-02
DAV:   4    -0.132773448267E+03    0.22896E-04   -0.10331E-04  3115   0.415E-02    0.167E-02
DAV:   5    -0.132773419820E+03    0.28447E-04   -0.63492E-05  2930   0.535E-02    0.888E-03
DAV:   6    -0.132773416362E+03    0.34583E-05   -0.28756E-05  2965   0.283E-02
  59 F= -.13277342E+03 E0= -.13277098E+03  d E =-.186893E-02
       N       E                     dE             d eps       ncg     rms          rms(c)
DAV:   1    -0.132773886168E+03   -0.46635E-03   -0.33878E-01  2770   0.243E+00    0.909E-02
DAV:   2    -0.132774538980E+03   -0.65281E-03   -0.78347E-03  3175   0.349E-01    0.506E-02
DAV:   3    -0.132774490479E+03    0.48501E-04   -0.17094E-04  3495   0.589E-02    0.347E-02
DAV:   4    -0.132774472457E+03    0.18022E-04   -0.21550E-04  3220   0.605E-02    0.177E-02
DAV:   5    -0.132774458744E+03    0.13713E-04   -0.10169E-04  3150   0.385E-02    0.139E-02
DAV:   6    -0.132774456461E+03    0.22830E-05   -0.14111E-05  2005   0.190E-02
  60 F= -.13277446E+03 E0= -.13277201E+03  d E =-.104010E-02
       N       E                     dE             d eps       ncg     rms          rms(c)
DAV:   1    -0.132773912309E+03    0.54643E-03   -0.58626E-01  2750   0.320E+00    0.119E-01
DAV:   2    -0.132775045270E+03   -0.11330E-02   -0.13651E-02  3195   0.462E-01    0.671E-02
DAV:   3    -0.132774963855E+03    0.81415E-04   -0.30987E-04  3480   0.772E-02    0.466E-02
DAV:   4    -0.132774935335E+03    0.28520E-04   -0.36858E-04  3215   0.760E-02    0.242E-02
DAV:   5    -0.132774913401E+03    0.21933E-04   -0.17537E-04  3190   0.480E-02    0.185E-02
DAV:   6    -0.132774910045E+03    0.33568E-05   -0.23530E-05  2205   0.241E-02
  61 F= -.13277491E+03 E0= -.13277245E+03  d E =-.149368E-02
       N       E                     dE             d eps       ncg     rms          rms(c)
DAV:   1    -0.132774983311E+03   -0.69910E-04   -0.45793E-01  2740   0.285E+00    0.101E-01
DAV:   2    -0.132775883651E+03   -0.90034E-03   -0.10920E-02  3210   0.423E-01    0.566E-02
DAV:   3    -0.132775815326E+03    0.68325E-04   -0.23330E-04  3570   0.705E-02    0.404E-02
DAV:   4    -0.132775762620E+03    0.52706E-04   -0.14385E-04  3325   0.636E-02    0.213E-02
DAV:   5    -0.132775737817E+03    0.24802E-04   -0.84039E-05  3245   0.611E-02    0.136E-02
DAV:   6    -0.132775732372E+03    0.54459E-05   -0.47200E-05  3075   0.334E-02
  62 F= -.13277573E+03 E0= -.13277326E+03  d E =-.822327E-03
       N       E                     dE             d eps       ncg     rms          rms(c)
DAV:   1    -0.132775712199E+03    0.25618E-04   -0.15015E-02  2780   0.518E-01    0.190E-02
DAV:   2    -0.132775731727E+03   -0.19528E-04   -0.37341E-04  3250   0.861E-02    0.131E-02
DAV:   3    -0.132775723202E+03    0.85252E-05   -0.17086E-05  2335   0.256E-02    0.103E-02
DAV:   4    -0.132775710060E+03    0.13142E-04   -0.55617E-06  2050   0.264E-02    0.601E-03
DAV:   5    -0.132775693167E+03    0.16893E-04   -0.93705E-06  2350   0.420E-02    0.483E-03
DAV:   6    -0.132775685477E+03    0.76895E-05   -0.13557E-05  2265   0.309E-02
  63 F= -.13277569E+03 E0= -.13277321E+03  d E =-.775433E-03
       N       E                     dE             d eps       ncg     rms          rms(c)
DAV:   1    -0.132775881902E+03   -0.18874E-03   -0.11547E-01  2740   0.143E+00    0.492E-02
DAV:   2    -0.132776102841E+03   -0.22094E-03   -0.28449E-03  3140   0.209E-01    0.318E-02
DAV:   3    -0.132776078994E+03    0.23847E-04   -0.66763E-05  3395   0.419E-02    0.210E-02
DAV:   4    -0.132776065625E+03    0.13370E-04   -0.48117E-05  2945   0.344E-02    0.116E-02
DAV:   5    -0.132776058140E+03    0.74850E-05   -0.29466E-05  2140   0.273E-02    0.571E-03
DAV:   6    -0.132776055289E+03    0.28502E-05   -0.10439E-05  1955   0.187E-02
  64 F= -.13277606E+03 E0= -.13277358E+03  d E =-.369812E-03
       N       E                     dE             d eps       ncg     rms          rms(c)
DAV:   1    -0.132776056536E+03    0.16040E-05   -0.33283E-02  2740   0.769E-01    0.258E-02
DAV:   2    -0.132776112860E+03   -0.56324E-04   -0.78609E-04  3140   0.112E-01    0.162E-02
DAV:   3    -0.132776104986E+03    0.78736E-05   -0.20433E-05  2600   0.252E-02    0.115E-02
DAV:   4    -0.132776098595E+03    0.63917E-05   -0.13572E-05  2055   0.227E-02    0.679E-03
DAV:   5    -0.132776093729E+03    0.48659E-05   -0.12251E-05  2065   0.239E-02    0.346E-03
DAV:   6    -0.132776092630E+03    0.10990E-05   -0.78075E-06  1870   0.155E-02
  65 F= -.13277609E+03 E0= -.13277361E+03  d E =-.407152E-03
       N       E                     dE             d eps       ncg     rms          rms(c)
DAV:   1    -0.132776317087E+03   -0.22336E-03   -0.54936E-02  2730   0.980E-01    0.482E-02
DAV:   2    -0.132776387296E+03   -0.70208E-04   -0.14668E-03  3185   0.158E-01    0.295E-02
DAV:   3    -0.132776365498E+03    0.21797E-04   -0.58531E-05  3550   0.413E-02    0.212E-02
DAV:   4    -0.132776346150E+03    0.19349E-04   -0.43032E-05  2980   0.365E-02    0.964E-03
DAV:   5    -0.132776335133E+03    0.11017E-04   -0.15702E-05  2210   0.311E-02    0.626E-03
DAV:   6    -0.132776331489E+03    0.36432E-05   -0.13588E-05  1915   0.192E-02
  66 F= -.13277633E+03 E0= -.13277386E+03  d E =-.238860E-03
       N       E                     dE             d eps       ncg     rms          rms(c)
DAV:   1    -0.132776325161E+03    0.99713E-05   -0.46765E-06  2115   0.220E-02    0.295E-03
DAV:   2    -0.132776322099E+03    0.30624E-05   -0.41449E-06  1885   0.141E-02    0.312E-03
DAV:   3    -0.132776319184E+03    0.29147E-05   -0.14738E-06  1945   0.124E-02    0.234E-03
DAV:   4    -0.132776308980E+03    0.10204E-04   -0.71003E-06  2330   0.436E-02    0.356E-03
DAV:   5    -0.132776308278E+03    0.70195E-06   -0.78803E-06  1905   0.113E-02    0.429E-03
DAV:   6    -0.132776308385E+03   -0.10648E-06   -0.14502E-06  1740   0.433E-03
  67 F= -.13277631E+03 E0= -.13277384E+03  d E =-.215755E-03
       N       E                     dE             d eps       ncg     rms          rms(c)
DAV:   1    -0.132776426934E+03   -0.11866E-03   -0.76682E-02  2740   0.115E+00    0.440E-02
DAV:   2    -0.132776558986E+03   -0.13205E-03   -0.17392E-03  3180   0.163E-01    0.250E-02
DAV:   3    -0.132776543502E+03    0.15484E-04   -0.31316E-05  3030   0.303E-02    0.169E-02
DAV:   4    -0.132776534517E+03    0.89843E-05   -0.40045E-05  2780   0.360E-02    0.690E-03
DAV:   5    -0.132776532036E+03    0.24814E-05   -0.25300E-05  2125   0.229E-02    0.517E-03
DAV:   6    -0.132776531589E+03    0.44672E-06   -0.49502E-06  1760   0.952E-03
  68 F= -.13277653E+03 E0= -.13277407E+03  d E =-.223204E-03
       N       E                     dE             d eps       ncg     rms          rms(c)
DAV:   1    -0.132776511907E+03    0.20129E-04   -0.56289E-02  2730   0.986E-01    0.376E-02
DAV:   2    -0.132776605458E+03   -0.93552E-04   -0.12679E-03  3210   0.141E-01    0.219E-02
DAV:   3    -0.132776591310E+03    0.14148E-04   -0.22373E-05  2660   0.307E-02    0.150E-02
DAV:   4    -0.132776577982E+03    0.13329E-04   -0.28950E-05  2680   0.424E-02    0.579E-03
DAV:   5    -0.132776575313E+03    0.26687E-05   -0.26641E-05  2485   0.262E-02    0.566E-03
DAV:   6    -0.132776574476E+03    0.83724E-06   -0.56567E-06  1860   0.103E-02
  69 F= -.13277657E+03 E0= -.13277412E+03  d E =-.266091E-03
       N       E                     dE             d eps       ncg     rms          rms(c)
DAV:   1    -0.132776735712E+03   -0.16040E-03   -0.28175E-02  2850   0.671E-01    0.245E-02
DAV:   2    -0.132776780161E+03   -0.44449E-04   -0.62032E-04  3130   0.961E-02    0.136E-02
DAV:   3    -0.132776772481E+03    0.76802E-05   -0.11409E-05  2360   0.197E-02    0.949E-03
DAV:   4    -0.132776760574E+03    0.11907E-04   -0.11792E-05  2290   0.302E-02    0.353E-03
DAV:   5    -0.132776756528E+03    0.40464E-05   -0.10706E-05  1915   0.193E-02    0.355E-03
DAV:   6    -0.132776754249E+03    0.22786E-05   -0.32031E-06  1925   0.101E-02
  70 F= -.13277675E+03 E0= -.13277430E+03  d E =-.179774E-03
       N       E                     dE             d eps       ncg     rms          rms(c)
DAV:   1    -0.132776765783E+03   -0.92545E-05   -0.99750E-02  2855   0.126E+00    0.439E-02
DAV:   2    -0.132776922523E+03   -0.15674E-03   -0.21738E-03  3130   0.181E-01    0.255E-02
DAV:   3    -0.132776897578E+03    0.24945E-04   -0.53304E-05  3585   0.354E-02    0.182E-02
DAV:   4    -0.132776866616E+03    0.30962E-04   -0.27529E-05  2900   0.362E-02    0.838E-03
DAV:   5    -0.132776849009E+03    0.17607E-04   -0.21128E-05  2665   0.334E-02    0.558E-03
DAV:   6    -0.132776839364E+03    0.96451E-05   -0.15589E-05  2195   0.265E-02
  71 F= -.13277684E+03 E0= -.13277440E+03  d E =-.264889E-03
       N       E                     dE             d eps       ncg     rms          rms(c)
DAV:   1    -0.132777021344E+03   -0.17233E-03   -0.30204E-02  2800   0.731E-01    0.255E-02
DAV:   2    -0.132777068865E+03   -0.47522E-04   -0.66698E-04  3200   0.105E-01    0.142E-02
DAV:   3    -0.132777063950E+03    0.49154E-05   -0.17242E-05  2595   0.187E-02    0.995E-03
DAV:   4    -0.132777060055E+03    0.38955E-05   -0.97181E-06  2050   0.178E-02    0.485E-03
DAV:   5    -0.132777058616E+03    0.14387E-05   -0.93217E-06  1925   0.136E-02    0.305E-03
DAV:   6    -0.132777058159E+03    0.45731E-06   -0.25710E-06  1795   0.727E-03
  72 F= -.13277706E+03 E0= -.13277461E+03  d E =-.218794E-03
       N       E                     dE             d eps       ncg     rms          rms(c)
DAV:   1    -0.132777060332E+03   -0.17165E-05   -0.14344E-01  2730   0.159E+00    0.556E-02
DAV:   2    -0.132777297924E+03   -0.23759E-03   -0.31890E-03  3165   0.231E-01    0.305E-02
DAV:   3    -0.132777279330E+03    0.18594E-04   -0.10715E-04  3645   0.442E-02    0.221E-02
DAV:   4    -0.132777268485E+03    0.10845E-04   -0.34749E-05  2835   0.250E-02    0.135E-02
DAV:   5    -0.132777260377E+03    0.81072E-05   -0.32012E-05  2425   0.280E-02    0.657E-03
DAV:   6    -0.132777258421E+03    0.19564E-05   -0.12761E-05  2000   0.194E-02
  73 F= -.13277726E+03 E0= -.13277481E+03  d E =-.419057E-03
       N       E                     dE             d eps       ncg     rms          rms(c)
DAV:   1    -0.132777439688E+03   -0.17931E-03   -0.62813E-02  2740   0.104E+00    0.377E-02
DAV:   2    -0.132777541438E+03   -0.10175E-03   -0.15298E-03  3210   0.151E-01    0.233E-02
DAV:   3    -0.132777520573E+03    0.20865E-04   -0.60021E-05  3180   0.343E-02    0.162E-02
DAV:   4    -0.132777508656E+03    0.11917E-04   -0.29669E-05  2240   0.229E-02    0.113E-02
DAV:   5    -0.132777490123E+03    0.18533E-04   -0.22582E-05  2540   0.322E-02    0.505E-03
DAV:   6    -0.132777480478E+03    0.96452E-05   -0.13256E-05  2310   0.253E-02
  74 F= -.13277748E+03 E0= -.13277503E+03  d E =-.222057E-03
       N       E                     dE             d eps       ncg     rms          rms(c)
DAV:   1    -0.132777474716E+03    0.15407E-04   -0.55674E-03  3065   0.311E-01    0.113E-02
DAV:   2    -0.132777479239E+03   -0.45230E-05   -0.15311E-04  3280   0.507E-02    0.851E-03
DAV:   3    -0.132777473815E+03    0.54236E-05   -0.91363E-06  2255   0.134E-02    0.603E-03
DAV:   4    -0.132777469522E+03    0.42931E-05   -0.33175E-06  1875   0.992E-03    0.462E-03
DAV:   5    -0.132777459023E+03    0.10500E-04   -0.45682E-06  2270   0.232E-02    0.261E-03
DAV:   6    -0.132777450041E+03    0.89822E-05   -0.58294E-06  2190   0.269E-02
  75 F= -.13277745E+03 E0= -.13277500E+03  d E =-.191620E-03
       N       E                     dE             d eps       ncg     rms          rms(c)
DAV:   1    -0.132777548248E+03   -0.89225E-04   -0.33789E-02  2975   0.763E-01    0.271E-02
DAV:   2    -0.132777606803E+03   -0.58555E-04   -0.79811E-04  3250   0.113E-01    0.163E-02
DAV:   3    -0.132777600125E+03    0.66788E-05   -0.22147E-05  2920   0.226E-02    0.119E-02
DAV:   4    -0.132777595560E+03    0.45649E-05   -0.12128E-05  2035   0.179E-02    0.568E-03
DAV:   5    -0.132777593590E+03    0.19693E-05   -0.91593E-06  2015   0.178E-02    0.341E-03
DAV:   6    -0.132777593425E+03    0.16583E-06   -0.45318E-06  1785   0.899E-03
  76 F= -.13277759E+03 E0= -.13277515E+03  d E =-.143384E-03
       N       E                     dE             d eps       ncg     rms          rms(c)
DAV:   1    -0.132777599591E+03   -0.60010E-05   -0.93152E-03  2870   0.402E-01    0.144E-02
DAV:   2    -0.132777614413E+03   -0.14821E-04   -0.22111E-04  3235   0.617E-02    0.904E-03
DAV:   3    -0.132777611872E+03    0.25410E-05   -0.65496E-06  1945   0.144E-02    0.685E-03
DAV:   4    -0.132777608470E+03    0.34012E-05   -0.46232E-06  2040   0.174E-02    0.298E-03
DAV:   5    -0.132777607173E+03    0.12977E-05   -0.38348E-06  1910   0.155E-02    0.259E-03
DAV:   6    -0.132777606970E+03    0.20214E-06   -0.26480E-06  1825   0.813E-03
  77 F= -.13277761E+03 E0= -.13277516E+03  d E =-.156930E-03
       N       E                     dE             d eps       ncg     rms          rms(c)
DAV:   1    -0.132777668756E+03   -0.61583E-04   -0.58628E-02  2840   0.101E+00    0.358E-02
DAV:   2    -0.132777776367E+03   -0.10761E-03   -0.13792E-03  3100   0.142E-01    0.214E-02
DAV:   3    -0.132777758956E+03    0.17411E-04   -0.29462E-05  2765   0.261E-02    0.144E-02
DAV:   4    -0.132777746096E+03    0.12860E-04   -0.32982E-05  2130   0.279E-02    0.884E-03
DAV:   5    -0.132777731265E+03    0.14831E-04   -0.26396E-05  2325   0.319E-02    0.360E-03
DAV:   6    -0.132777725437E+03    0.58281E-05   -0.10031E-05  2070   0.191E-02
  78 F= -.13277773E+03 E0= -.13277528E+03  d E =-.118467E-03
       N       E                     dE             d eps       ncg     rms          rms(c)
DAV:   1    -0.132777716997E+03    0.14268E-04   -0.10240E-02  3035   0.423E-01    0.149E-02
DAV:   2    -0.132777727136E+03   -0.10138E-04   -0.24327E-04  3180   0.619E-02    0.977E-03
DAV:   3    -0.132777718468E+03    0.86680E-05   -0.89548E-06  2250   0.167E-02    0.684E-03
DAV:   4    -0.132777710923E+03    0.75441E-05   -0.62170E-06  1930   0.154E-02    0.518E-03
DAV:   5    -0.132777695334E+03    0.15589E-04   -0.69627E-06  2240   0.291E-02    0.280E-03
DAV:   6    -0.132777682136E+03    0.13199E-04   -0.80696E-06  2215   0.316E-02    0.250E-03
DAV:   7    -0.132777668334E+03    0.13802E-04   -0.59327E-06  2200   0.421E-02    0.210E-03
DAV:   8    -0.132777653568E+03    0.14767E-04   -0.15208E-05  2495   0.629E-02    0.182E-03
DAV:   9    -0.132777649848E+03    0.37193E-05   -0.25539E-05  2835   0.529E-02
  79 F= -.13277765E+03 E0= -.13277520E+03  d E =-.428780E-04
       N       E                     dE             d eps       ncg     rms          rms(c)
DAV:   1    -0.132777669001E+03   -0.15433E-04   -0.39753E-03  3075   0.262E-01    0.104E-02
DAV:   2    -0.132777676657E+03   -0.76567E-05   -0.93895E-05  3095   0.377E-02    0.602E-03
DAV:   3    -0.132777675965E+03    0.69243E-06   -0.29899E-06  1905   0.882E-03    0.369E-03
DAV:   4    -0.132777676167E+03   -0.20222E-06   -0.29162E-06  1960   0.745E-03    0.228E-03
DAV:   5    -0.132777676418E+03   -0.25080E-06   -0.19944E-06  1940   0.681E-03    0.106E-03
DAV:   6    -0.132777676825E+03   -0.40687E-06   -0.66858E-07  1920   0.508E-03
  80 F= -.13277768E+03 E0= -.13277522E+03  d E =-.698542E-04
       N       E                     dE             d eps       ncg     rms          rms(c)
DAV:   1    -0.132777681539E+03   -0.51214E-05   -0.41055E-04  2970   0.846E-02    0.304E-03
DAV:   2    -0.132777682436E+03   -0.89652E-06   -0.95593E-06  2030   0.124E-02    0.180E-03
DAV:   3    -0.132777682473E+03   -0.37088E-07   -0.72400E-07  1770   0.385E-03    0.130E-03
DAV:   4    -0.132777682515E+03   -0.42360E-07   -0.24578E-07  1790   0.237E-03    0.107E-03
DAV:   5    -0.132777682699E+03   -0.18376E-06   -0.29734E-07  1905   0.492E-03    0.539E-04
DAV:   6    -0.132777682842E+03   -0.14291E-06   -0.24761E-07  1850   0.359E-03
  81 F= -.13277768E+03 E0= -.13277523E+03  d E =-.758714E-04
       N       E                     dE             d eps       ncg     rms          rms(c)
DAV:   1    -0.132777684334E+03   -0.16353E-05   -0.68281E-05  2905   0.350E-02    0.128E-03
DAV:   2    -0.132777684511E+03   -0.17681E-06   -0.20189E-06  1810   0.596E-03    0.943E-04
DAV:   3    -0.132777684513E+03   -0.15043E-08   -0.17993E-07  1710   0.196E-03    0.725E-04
DAV:   4    -0.132777684517E+03   -0.45038E-08   -0.47976E-08  1705   0.118E-03    0.600E-04
DAV:   5    -0.132777684528E+03   -0.10510E-07   -0.70030E-08  1785   0.274E-03    0.365E-04
DAV:   6    -0.132777684540E+03   -0.12116E-07   -0.55584E-08  1730   0.222E-03
  82 F= -.13277768E+03 E0= -.13277523E+03  d E =-.775693E-04
       N       E                     dE             d eps       ncg     rms          rms(c)
DAV:   1    -0.132777753253E+03   -0.68725E-04   -0.27505E-02  2840   0.688E-01    0.253E-02
DAV:   2    -0.132777802038E+03   -0.48785E-04   -0.65167E-04  3190   0.998E-02    0.155E-02
DAV:   3    -0.132777795397E+03    0.66416E-05   -0.17092E-05  2310   0.222E-02    0.112E-02
DAV:   4    -0.132777790645E+03    0.47512E-05   -0.17297E-05  2055   0.215E-02    0.563E-03
DAV:   5    -0.132777787554E+03    0.30912E-05   -0.13281E-05  2110   0.211E-02    0.355E-03
DAV:   6    -0.132777787298E+03    0.25671E-06   -0.52389E-06  1805   0.102E-02
  83 F= -.13277779E+03 E0= -.13277533E+03  d E =-.102758E-03
       N       E                     dE             d eps       ncg     rms          rms(c)
DAV:   1    -0.132777791892E+03   -0.43376E-05   -0.15011E-02  2790   0.508E-01    0.197E-02
DAV:   2    -0.132777815595E+03   -0.23703E-04   -0.36209E-04  3190   0.757E-02    0.116E-02
DAV:   3    -0.132777810755E+03    0.48402E-05   -0.12206E-05  2225   0.208E-02    0.868E-03
DAV:   4    -0.132777806719E+03    0.40351E-05   -0.89353E-06  1965   0.187E-02    0.490E-03
DAV:   5    -0.132777803015E+03    0.37042E-05   -0.77668E-06  2135   0.227E-02    0.298E-03
DAV:   6    -0.132777802365E+03    0.64982E-06   -0.65948E-06  1860   0.127E-02
  84 F= -.13277780E+03 E0= -.13277535E+03  d E =-.117826E-03
       N       E                     dE             d eps       ncg     rms          rms(c)
DAV:   1    -0.132777900357E+03   -0.97341E-04   -0.66775E-03  2860   0.338E-01    0.133E-02
DAV:   2    -0.132777908862E+03   -0.85051E-05   -0.17576E-04  3215   0.540E-02    0.870E-03
DAV:   3    -0.132777903945E+03    0.49167E-05   -0.66000E-06  2005   0.160E-02    0.619E-03
DAV:   4    -0.132777900276E+03    0.36692E-05   -0.34706E-06  1890   0.129E-02    0.455E-03
DAV:   5    -0.132777892568E+03    0.77077E-05   -0.46731E-06  2200   0.231E-02    0.247E-03
DAV:   6    -0.132777888039E+03    0.45287E-05   -0.49308E-06  1960   0.179E-02
  85 F= -.13277789E+03 E0= -.13277543E+03  d E =-.856739E-04
