       N       E                     dE             d eps       ncg     rms          rms(c)
DAV:   1     0.477158465597E+03    0.47716E+03   -0.41029E+04  2628   0.131E+03
DAV:   2    -0.884502083878E+02   -0.56561E+03   -0.53506E+03  3402   0.248E+02
DAV:   3    -0.146664329209E+03   -0.58214E+02   -0.57847E+02  3056   0.855E+01
DAV:   4    -0.147494563612E+03   -0.83023E+00   -0.82833E+00  3056   0.111E+01
DAV:   5    -0.147509302237E+03   -0.14739E-01   -0.14731E-01  3096   0.146E+00    0.220E+01
DAV:   6    -0.132562372262E+03    0.14947E+02   -0.85270E+01  2972   0.287E+01    0.751E+00
DAV:   7    -0.132429363345E+03    0.13301E+00   -0.17489E+00  2858   0.509E+00    0.453E+00
DAV:   8    -0.132342263553E+03    0.87100E-01   -0.49183E-01  3042   0.368E+00    0.799E-01
DAV:   9    -0.132312278008E+03    0.29986E-01   -0.93889E-02  2966   0.107E+00    0.422E-01
DAV:  10    -0.132313547663E+03   -0.12697E-02   -0.40898E-02  2946   0.789E-01    0.279E-01
DAV:  11    -0.132313256730E+03    0.29093E-03   -0.28703E-03  3034   0.283E-01    0.172E-01
DAV:  12    -0.132313476100E+03   -0.21937E-03   -0.28422E-03  3570   0.295E-01    0.583E-02
DAV:  13    -0.132313449635E+03    0.26465E-04   -0.68577E-04  2970   0.111E-01    0.364E-02
DAV:  14    -0.132313415168E+03    0.34467E-04   -0.19603E-04  2882   0.605E-02    0.141E-02
DAV:  15    -0.132313391502E+03    0.23666E-04   -0.47518E-05  2774   0.379E-02    0.106E-02
DAV:  16    -0.132313372943E+03    0.18559E-04   -0.39919E-06  1750   0.394E-02    0.827E-03
DAV:  17    -0.132313324237E+03    0.48706E-04   -0.58322E-05  3048   0.125E-01    0.643E-03
DAV:  18    -0.132313300301E+03    0.23937E-04   -0.84541E-05  3278   0.114E-01    0.118E-02
DAV:  19    -0.132313290208E+03    0.10093E-04   -0.50338E-05  2736   0.631E-02    0.528E-03
DAV:  20    -0.132313290025E+03    0.18318E-06   -0.23917E-05  2316   0.284E-02
   1 F= -.13231329E+03 E0= -.13231156E+03  d E =-.132313E+03
       N       E                     dE             d eps       ncg     rms          rms(c)
DAV:   1    -0.132315066533E+03   -0.17763E-02   -0.56324E-02  2714   0.103E+00    0.395E-02
DAV:   2    -0.132315182442E+03   -0.11591E-03   -0.18835E-03  2970   0.188E-01    0.319E-02
DAV:   3    -0.132315162620E+03    0.19822E-04   -0.82205E-05  2980   0.421E-02    0.246E-02
DAV:   4    -0.132315142514E+03    0.20106E-04   -0.56053E-05  2820   0.316E-02    0.953E-03
DAV:   5    -0.132315130526E+03    0.11988E-04   -0.21356E-05  2222   0.363E-02    0.102E-02
DAV:   6    -0.132315125370E+03    0.51563E-05   -0.12509E-05  1984   0.315E-02
   2 F= -.13231513E+03 E0= -.13231340E+03  d E =-.183534E-02
       N       E                     dE             d eps       ncg     rms          rms(c)
DAV:   1    -0.132316219104E+03   -0.10886E-02   -0.18909E-01  2712   0.188E+00    0.739E-02
DAV:   2    -0.132316601158E+03   -0.38205E-03   -0.63142E-03  2978   0.342E-01    0.587E-02
DAV:   3    -0.132316528789E+03    0.72369E-04   -0.27646E-04  2986   0.786E-02    0.443E-02
DAV:   4    -0.132316450243E+03    0.78546E-04   -0.21467E-04  2966   0.649E-02    0.175E-02
DAV:   5    -0.132316406951E+03    0.43291E-04   -0.66604E-05  2966   0.701E-02    0.196E-02
DAV:   6    -0.132316383839E+03    0.23112E-04   -0.51045E-05  2872   0.649E-02    0.109E-02
DAV:   7    -0.132316377191E+03    0.66479E-05   -0.54986E-05  2648   0.434E-02
   3 F= -.13231638E+03 E0= -.13231464E+03  d E =-.308717E-02
       N       E                     dE             d eps       ncg     rms          rms(c)
DAV:   1    -0.132317389339E+03   -0.10055E-02   -0.18819E-01  2618   0.180E+00    0.523E-02
DAV:   2    -0.132317744278E+03   -0.35494E-03   -0.39942E-03  2874   0.237E-01    0.309E-02
DAV:   3    -0.132317722504E+03    0.21774E-04   -0.36273E-05  2848   0.311E-02    0.213E-02
DAV:   4    -0.132317708211E+03    0.14293E-04   -0.72642E-05  2792   0.435E-02    0.759E-03
DAV:   5    -0.132317708816E+03   -0.60503E-06   -0.17974E-05  2076   0.178E-02    0.659E-03
DAV:   6    -0.132317708090E+03    0.72641E-06   -0.63577E-06  1524   0.123E-02
   4 F= -.13231771E+03 E0= -.13231597E+03  d E =-.133090E-02
       N       E                     dE             d eps       ncg     rms          rms(c)
DAV:   1    -0.132317704304E+03    0.45125E-05   -0.16932E+00  2628   0.539E+00    0.152E-01
DAV:   2    -0.132320785381E+03   -0.30811E-02   -0.34893E-02  2868   0.699E-01    0.927E-02
DAV:   3    -0.132320579032E+03    0.20635E-03   -0.39155E-04  3080   0.111E-01    0.617E-02
DAV:   4    -0.132320434601E+03    0.14443E-03   -0.34717E-04  2968   0.126E-01    0.220E-02
DAV:   5    -0.132320422289E+03    0.12312E-04   -0.19810E-04  2980   0.769E-02    0.157E-02
DAV:   6    -0.132320414181E+03    0.81078E-05   -0.39352E-05  2372   0.298E-02
   5 F= -.13232041E+03 E0= -.13231868E+03  d E =-.403699E-02
       N       E                     dE             d eps       ncg     rms          rms(c)
DAV:   1    -0.132308818344E+03    0.11604E-01   -0.67712E+00  2628   0.108E+01    0.305E-01
DAV:   2    -0.132321129774E+03   -0.12311E-01   -0.14033E-01  2874   0.141E+00    0.191E-01
DAV:   3    -0.132320226081E+03    0.90369E-03   -0.16598E-03  3080   0.240E-01    0.124E-01
DAV:   4    -0.132319555853E+03    0.67023E-03   -0.12976E-03  3042   0.272E-01    0.450E-02
DAV:   5    -0.132319437659E+03    0.11819E-03   -0.89768E-04  3078   0.187E-01    0.304E-02
DAV:   6    -0.132319376978E+03    0.60681E-04   -0.22153E-04  2890   0.777E-02    0.250E-02
DAV:   7    -0.132319217232E+03    0.15975E-03   -0.97581E-05  2906   0.995E-02    0.146E-02
DAV:   8    -0.132319155753E+03    0.61479E-04   -0.35047E-05  2572   0.665E-02    0.124E-02
DAV:   9    -0.132318844623E+03    0.31113E-03   -0.34459E-04  4444   0.370E-01    0.253E-02
DAV:  10    -0.132318760477E+03    0.84145E-04   -0.30708E-04  2964   0.144E-01    0.262E-02
DAV:  11    -0.132318712310E+03    0.48167E-04   -0.17400E-04  2948   0.847E-02    0.180E-02
DAV:  12    -0.132318642148E+03    0.70162E-04   -0.14434E-04  3844   0.237E-01    0.218E-02
DAV:  13    -0.132318642011E+03    0.13656E-06   -0.17464E-04  2824   0.719E-02    0.158E-02
DAV:  14    -0.132318641133E+03    0.87798E-06   -0.81781E-05  2660   0.345E-02
   6 F= -.13231864E+03 E0= -.13231702E+03  d E =-.226394E-02
       N       E                     dE             d eps       ncg     rms          rms(c)
DAV:   1    -0.132316871445E+03    0.17706E-02   -0.27620E+00  2616   0.693E+00    0.189E-01
DAV:   2    -0.132321570520E+03   -0.46991E-02   -0.54107E-02  2868   0.897E-01    0.113E-01
DAV:   3    -0.132321252023E+03    0.31850E-03   -0.73103E-04  3088   0.142E-01    0.779E-02
DAV:   4    -0.132321017535E+03    0.23449E-03   -0.59696E-04  2984   0.154E-01    0.321E-02
DAV:   5    -0.132320976707E+03    0.40828E-04   -0.30110E-04  3076   0.107E-01    0.250E-02
DAV:   6    -0.132320963119E+03    0.13588E-04   -0.11606E-04  2852   0.498E-02    0.153E-02
DAV:   7    -0.132320931619E+03    0.31499E-04   -0.30611E-05  2532   0.409E-02    0.750E-03
DAV:   8    -0.132320908741E+03    0.22879E-04   -0.67833E-06  1846   0.416E-02    0.685E-03
DAV:   9    -0.132320866337E+03    0.42404E-04   -0.38011E-05  2702   0.946E-02    0.684E-03
DAV:  10    -0.132320821000E+03    0.45337E-04   -0.56225E-05  3018   0.123E-01    0.120E-02
DAV:  11    -0.132320786080E+03    0.34921E-04   -0.87478E-05  2992   0.130E-01    0.169E-02
DAV:  12    -0.132320778435E+03    0.76450E-05   -0.86675E-05  3044   0.944E-02
   7 F= -.13232078E+03 E0= -.13231907E+03  d E =-.440124E-02
       N       E                     dE             d eps       ncg     rms          rms(c)
DAV:   1    -0.132321360106E+03   -0.57403E-03   -0.53449E-01  2672   0.311E+00    0.835E-02
DAV:   2    -0.132322324329E+03   -0.96422E-03   -0.10489E-02  2836   0.403E-01    0.482E-02
DAV:   3    -0.132322264332E+03    0.59997E-04   -0.92281E-05  3008   0.502E-02    0.330E-02
DAV:   4    -0.132322209821E+03    0.54511E-04   -0.17475E-04  2944   0.807E-02    0.111E-02
DAV:   5    -0.132322207674E+03    0.21474E-05   -0.61593E-05  2720   0.330E-02    0.116E-02
DAV:   6    -0.132322200108E+03    0.75653E-05   -0.14219E-05  1652   0.179E-02
   8 F= -.13232220E+03 E0= -.13232052E+03  d E =-.142167E-02
       N       E                     dE             d eps       ncg     rms          rms(c)
DAV:   1    -0.132316873202E+03    0.53345E-02   -0.48128E+00  2668   0.934E+00    0.246E-01
DAV:   2    -0.132325611729E+03   -0.87385E-02   -0.94624E-02  2836   0.121E+00    0.150E-01
DAV:   3    -0.132325066117E+03    0.54561E-03   -0.78916E-04  3080   0.142E-01    0.102E-01
DAV:   4    -0.132324560608E+03    0.50551E-03   -0.16919E-03  3000   0.242E-01    0.358E-02
DAV:   5    -0.132324548285E+03    0.12322E-04   -0.55670E-04  2938   0.102E-01    0.347E-02
DAV:   6    -0.132324484098E+03    0.64188E-04   -0.11780E-04  2896   0.534E-02    0.159E-02
DAV:   7    -0.132324382578E+03    0.10152E-03   -0.12514E-04  3336   0.991E-02    0.262E-02
DAV:   8    -0.132324282803E+03    0.99775E-04   -0.90000E-05  3438   0.105E-01    0.265E-02
DAV:   9    -0.132324226910E+03    0.55893E-04   -0.13260E-04  2984   0.759E-02    0.194E-02
DAV:  10    -0.132324157228E+03    0.69682E-04   -0.11640E-04  3046   0.690E-02    0.228E-02
DAV:  11    -0.132324046900E+03    0.11033E-03   -0.12577E-04  3206   0.174E-01    0.366E-02
DAV:  12    -0.132323962466E+03    0.84435E-04   -0.23122E-04  3760   0.198E-01    0.202E-02
DAV:  13    -0.132323970250E+03   -0.77844E-05   -0.36687E-04  2864   0.129E-01    0.140E-02
DAV:  14    -0.132323973216E+03   -0.29663E-05   -0.11838E-04  2702   0.462E-02    0.165E-02
DAV:  15    -0.132323971152E+03    0.20645E-05   -0.14934E-05  1624   0.150E-02
   9 F= -.13232397E+03 E0= -.13232237E+03  d E =-.319272E-02
       N       E                     dE             d eps       ncg     rms          rms(c)
DAV:   1    -0.132324828317E+03   -0.85510E-03   -0.55934E-01  2644   0.315E+00    0.892E-02
DAV:   2    -0.132325856756E+03   -0.10284E-02   -0.11406E-02  2886   0.419E-01    0.516E-02
DAV:   3    -0.132325801958E+03    0.54798E-04   -0.14103E-04  3012   0.566E-02    0.361E-02
DAV:   4    -0.132325769200E+03    0.32758E-04   -0.28013E-04  3034   0.807E-02    0.198E-02
DAV:   5    -0.132325766764E+03    0.24366E-05   -0.51341E-05  2740   0.345E-02    0.199E-02
DAV:   6    -0.132325761205E+03    0.55590E-05   -0.26936E-05  2224   0.262E-02
  10 F= -.13232576E+03 E0= -.13232420E+03  d E =-.179005E-02
       N       E                     dE             d eps       ncg     rms          rms(c)
DAV:   1    -0.132320020720E+03    0.57460E-02   -0.47277E+00  2632   0.913E+00    0.259E-01
DAV:   2    -0.132328748700E+03   -0.87280E-02   -0.96813E-02  2898   0.122E+00    0.151E-01
DAV:   3    -0.132328285395E+03    0.46331E-03   -0.12476E-03  3090   0.164E-01    0.104E-01
DAV:   4    -0.132327988982E+03    0.29641E-03   -0.20574E-03  3066   0.218E-01    0.521E-02
DAV:   5    -0.132327962175E+03    0.26807E-04   -0.38836E-04  2934   0.981E-02    0.533E-02
DAV:   6    -0.132327914519E+03    0.47655E-04   -0.21905E-04  2940   0.780E-02    0.256E-02
DAV:   7    -0.132327885368E+03    0.29151E-04   -0.66964E-05  2916   0.568E-02    0.138E-02
DAV:   8    -0.132327862339E+03    0.23029E-04   -0.22118E-05  2162   0.405E-02    0.955E-03
DAV:   9    -0.132327823000E+03    0.39339E-04   -0.16448E-05  2242   0.574E-02    0.511E-03
DAV:  10    -0.132327778884E+03    0.44116E-04   -0.66831E-05  2906   0.943E-02    0.154E-02
DAV:  11    -0.132327759895E+03    0.18989E-04   -0.45794E-05  2824   0.671E-02    0.124E-02
DAV:  12    -0.132327749260E+03    0.10635E-04   -0.49370E-05  2600   0.599E-02    0.463E-03
DAV:  13    -0.132327742186E+03    0.70734E-05   -0.86750E-06  1870   0.489E-02
  11 F= -.13232774E+03 E0= -.13232635E+03  d E =-.377103E-02
       N       E                     dE             d eps       ncg     rms          rms(c)
DAV:   1    -0.132327920215E+03   -0.17096E-03   -0.73741E-01  2652   0.367E+00    0.102E-01
DAV:   2    -0.132329357342E+03   -0.14371E-02   -0.15487E-02  2896   0.492E-01    0.591E-02
DAV:   3    -0.132329281364E+03    0.75978E-04   -0.17702E-04  3030   0.683E-02    0.411E-02
DAV:   4    -0.132329220582E+03    0.60782E-04   -0.23808E-04  3010   0.902E-02    0.162E-02
DAV:   5    -0.132329220823E+03   -0.24125E-06   -0.96481E-05  2840   0.471E-02    0.188E-02
DAV:   6    -0.132329218448E+03    0.23752E-05   -0.14017E-05  1612   0.170E-02
  12 F= -.13232922E+03 E0= -.13232789E+03  d E =-.147626E-02
       N       E                     dE             d eps       ncg     rms          rms(c)
DAV:   1    -0.132320299685E+03    0.89211E-02   -0.66214E+00  2652   0.110E+01    0.304E-01
DAV:   2    -0.132332999006E+03   -0.12699E-01   -0.13672E-01  2856   0.147E+00    0.174E-01
DAV:   3    -0.132332340768E+03    0.65824E-03   -0.15964E-03  3106   0.199E-01    0.118E-01
DAV:   4    -0.132331832488E+03    0.50828E-03   -0.15398E-03  3094   0.241E-01    0.425E-02
DAV:   5    -0.132331830152E+03    0.23356E-05   -0.78734E-04  2986   0.137E-01    0.457E-02
DAV:   6    -0.132331807024E+03    0.23128E-04   -0.14663E-04  2854   0.564E-02    0.284E-02
DAV:   7    -0.132331777940E+03    0.29084E-04   -0.82881E-05  2896   0.465E-02    0.122E-02
DAV:   8    -0.132331760331E+03    0.17609E-04   -0.35290E-05  2526   0.563E-02    0.155E-02
DAV:   9    -0.132331749996E+03    0.10335E-04   -0.48804E-05  2680   0.513E-02    0.152E-02
DAV:  10    -0.132331740870E+03    0.91258E-05   -0.26118E-05  2254   0.413E-02
  13 F= -.13233174E+03 E0= -.13233060E+03  d E =-.399868E-02
       N       E                     dE             d eps       ncg     rms          rms(c)
DAV:   1    -0.132329626427E+03    0.21236E-02   -0.13833E+00  2652   0.503E+00    0.135E-01
DAV:   2    -0.132332212478E+03   -0.25861E-02   -0.27883E-02  2870   0.665E-01    0.780E-02
DAV:   3    -0.132332074452E+03    0.13803E-03   -0.31353E-04  3114   0.881E-02    0.536E-02
DAV:   4    -0.132331957510E+03    0.11694E-03   -0.33441E-04  3006   0.117E-01    0.187E-02
DAV:   5    -0.132331956972E+03    0.53760E-06   -0.18301E-04  2922   0.657E-02    0.216E-02
DAV:   6    -0.132331951644E+03    0.53283E-05   -0.29672E-05  2214   0.252E-02
  14 F= -.13233195E+03 E0= -.13233089E+03  d E =-.420946E-02
       N       E                     dE             d eps       ncg     rms          rms(c)
DAV:   1    -0.132331309292E+03    0.64768E-03   -0.16857E+00  2644   0.557E+00    0.155E-01
DAV:   2    -0.132334571738E+03   -0.32624E-02   -0.34944E-02  2872   0.742E-01    0.866E-02
DAV:   3    -0.132334412276E+03    0.15946E-03   -0.34661E-04  3080   0.873E-02    0.594E-02
DAV:   4    -0.132334281513E+03    0.13076E-03   -0.42460E-04  3020   0.134E-01    0.184E-02
DAV:   5    -0.132334286298E+03   -0.47850E-05   -0.21524E-04  2880   0.630E-02    0.226E-02
DAV:   6    -0.132334275455E+03    0.10843E-04   -0.23183E-05  2010   0.205E-02    0.122E-02
DAV:   7    -0.132334262867E+03    0.12588E-04   -0.43077E-05  2692   0.267E-02    0.115E-02
DAV:   8    -0.132334252214E+03    0.10653E-04   -0.28342E-06  1616   0.290E-02    0.129E-02
DAV:   9    -0.132334234276E+03    0.17937E-04   -0.14959E-05  2004   0.547E-02    0.737E-03
DAV:  10    -0.132334222503E+03    0.11773E-04   -0.53600E-05  2832   0.687E-02    0.102E-02
DAV:  11    -0.132334203327E+03    0.19176E-04   -0.11877E-05  2002   0.637E-02    0.681E-03
DAV:  12    -0.132334191446E+03    0.11881E-04   -0.32392E-05  2522   0.862E-02    0.798E-03
DAV:  13    -0.132334192718E+03   -0.12724E-05   -0.45415E-05  2528   0.345E-02
  15 F= -.13233419E+03 E0= -.13233320E+03  d E =-.224107E-02
       N       E                     dE             d eps       ncg     rms          rms(c)
DAV:   1    -0.132322490545E+03    0.11701E-01   -0.81727E+00  2652   0.123E+01    0.334E-01
DAV:   2    -0.132338427639E+03   -0.15937E-01   -0.17069E-01  2860   0.164E+00    0.195E-01
DAV:   3    -0.132337638188E+03    0.78945E-03   -0.18001E-03  3088   0.196E-01    0.133E-01
DAV:   4    -0.132336988572E+03    0.64962E-03   -0.18120E-03  3060   0.279E-01    0.415E-02
DAV:   5    -0.132337005413E+03   -0.16841E-04   -0.10226E-03  2916   0.144E-01    0.461E-02
DAV:   6    -0.132336964418E+03    0.40995E-04   -0.12174E-04  2878   0.471E-02    0.252E-02
DAV:   7    -0.132336918558E+03    0.45860E-04   -0.89296E-05  2902   0.429E-02    0.141E-02
DAV:   8    -0.132336878955E+03    0.39604E-04   -0.15027E-05  2112   0.568E-02    0.176E-02
DAV:   9    -0.132336823549E+03    0.55406E-04   -0.40690E-05  2726   0.932E-02    0.120E-02
DAV:  10    -0.132336768733E+03    0.54816E-04   -0.76286E-05  3396   0.118E-01    0.114E-02
DAV:  11    -0.132336700414E+03    0.68318E-04   -0.70848E-05  3196   0.155E-01    0.139E-02
DAV:  12    -0.132336665084E+03    0.35330E-04   -0.11589E-04  3002   0.137E-01    0.146E-02
DAV:  13    -0.132336668480E+03   -0.33956E-05   -0.13730E-04  2868   0.560E-02    0.664E-03
DAV:  14    -0.132336668723E+03   -0.24283E-06   -0.19811E-05  2124   0.173E-02
  16 F= -.13233667E+03 E0= -.13233584E+03  d E =-.471708E-02
       N       E                     dE             d eps       ncg     rms          rms(c)
DAV:   1    -0.132335887954E+03    0.78053E-03   -0.49551E-01  2628   0.302E+00    0.807E-02
DAV:   2    -0.132336846065E+03   -0.95811E-03   -0.10236E-02  2872   0.400E-01    0.478E-02
DAV:   3    -0.132336799323E+03    0.46741E-04   -0.10195E-04  3044   0.464E-02    0.329E-02
DAV:   4    -0.132336758722E+03    0.40601E-04   -0.12004E-04  2870   0.708E-02    0.985E-03
DAV:   5    -0.132336760162E+03   -0.14400E-05   -0.61878E-05  2608   0.335E-02    0.115E-02
DAV:   6    -0.132336757122E+03    0.30399E-05   -0.70224E-06  1548   0.114E-02
  17 F= -.13233676E+03 E0= -.13233596E+03  d E =-.480548E-02
       N       E                     dE             d eps       ncg     rms          rms(c)
DAV:   1    -0.132337299601E+03   -0.53944E-03   -0.10162E+00  2604   0.435E+00    0.121E-01
DAV:   2    -0.132339269237E+03   -0.19696E-02   -0.21487E-02  2892   0.590E-01    0.704E-02
DAV:   3    -0.132339175561E+03    0.93676E-04   -0.28869E-04  3102   0.836E-02    0.491E-02
DAV:   4    -0.132339104325E+03    0.71236E-04   -0.31067E-04  2946   0.966E-02    0.208E-02
DAV:   5    -0.132339097711E+03    0.66131E-05   -0.10520E-04  2962   0.558E-02    0.220E-02
DAV:   6    -0.132339091011E+03    0.67005E-05   -0.37300E-05  2330   0.295E-02
  18 F= -.13233909E+03 E0= -.13233837E+03  d E =-.233389E-02
       N       E                     dE             d eps       ncg     rms          rms(c)
DAV:   1    -0.132333213853E+03    0.58839E-02   -0.42606E+00  2604   0.890E+00    0.257E-01
DAV:   2    -0.132341393573E+03   -0.81797E-02   -0.91447E-02  2898   0.122E+00    0.145E-01
DAV:   3    -0.132340971708E+03    0.42187E-03   -0.16315E-03  3102   0.197E-01    0.102E-01
DAV:   4    -0.132340622218E+03    0.34949E-03   -0.98022E-04  3038   0.163E-01    0.469E-02
DAV:   5    -0.132340450085E+03    0.17213E-03   -0.32622E-04  3100   0.146E-01    0.410E-02
DAV:   6    -0.132340350770E+03    0.99315E-04   -0.28258E-04  3072   0.122E-01    0.280E-02
DAV:   7    -0.132340252132E+03    0.98638E-04   -0.16239E-04  3244   0.109E-01    0.180E-02
DAV:   8    -0.132340147289E+03    0.10484E-03   -0.40437E-05  2824   0.841E-02    0.113E-02
DAV:   9    -0.132339919632E+03    0.22766E-03   -0.16650E-04  3548   0.221E-01    0.159E-02
DAV:  10    -0.132339790169E+03    0.12946E-03   -0.27540E-04  3656   0.238E-01    0.166E-02
DAV:  11    -0.132339758305E+03    0.31864E-04   -0.28056E-04  3198   0.167E-01    0.147E-02
DAV:  12    -0.132339761699E+03   -0.33939E-05   -0.16699E-04  2842   0.584E-02    0.129E-02
DAV:  13    -0.132339755359E+03    0.63401E-05   -0.94019E-06  1756   0.219E-02
  19 F= -.13233976E+03 E0= -.13233916E+03  d E =-.299824E-02
       N       E                     dE             d eps       ncg     rms          rms(c)
DAV:   1    -0.132339346732E+03    0.41497E-03   -0.48407E-01  2624   0.300E+00    0.825E-02
DAV:   2    -0.132340251631E+03   -0.90490E-03   -0.99774E-03  2888   0.403E-01    0.481E-02
DAV:   3    -0.132340204027E+03    0.47605E-04   -0.14644E-04  3064   0.614E-02    0.335E-02
DAV:   4    -0.132340165183E+03    0.38844E-04   -0.11459E-04  2878   0.629E-02    0.145E-02
DAV:   5    -0.132340154798E+03    0.10385E-04   -0.50421E-05  2808   0.471E-02    0.142E-02
DAV:   6    -0.132340150699E+03    0.40994E-05   -0.25982E-05  2036   0.263E-02
  20 F= -.13234015E+03 E0= -.13233952E+03  d E =-.339358E-02
       N       E                     dE             d eps       ncg     rms          rms(c)
DAV:   1    -0.132337991580E+03    0.21632E-02   -0.21083E+00  2652   0.623E+00    0.174E-01
DAV:   2    -0.132342104945E+03   -0.41134E-02   -0.44906E-02  2920   0.854E-01    0.104E-01
DAV:   3    -0.132341881248E+03    0.22370E-03   -0.58130E-04  3092   0.117E-01    0.740E-02
DAV:   4    -0.132341687428E+03    0.19382E-03   -0.64589E-04  2986   0.146E-01    0.306E-02
DAV:   5    -0.132341662069E+03    0.25360E-04   -0.25711E-04  2916   0.901E-02    0.301E-02
DAV:   6    -0.132341639409E+03    0.22660E-04   -0.10558E-04  2746   0.541E-02    0.132E-02
DAV:   7    -0.132341620500E+03    0.18909E-04   -0.17161E-05  2118   0.362E-02    0.678E-03
DAV:   8    -0.132341592802E+03    0.27698E-04   -0.20468E-05  2276   0.632E-02    0.927E-03
DAV:   9    -0.132341567029E+03    0.25773E-04   -0.19379E-05  2306   0.710E-02    0.101E-02
DAV:  10    -0.132341539578E+03    0.27451E-04   -0.30971E-05  2508   0.946E-02    0.712E-03
DAV:  11    -0.132341533204E+03    0.63738E-05   -0.49637E-05  2694   0.489E-02
  21 F= -.13234153E+03 E0= -.13234096E+03  d E =-.138251E-02
       N       E                     dE             d eps       ncg     rms          rms(c)
DAV:   1    -0.132341333008E+03    0.20657E-03   -0.14122E-01  2640   0.161E+00    0.444E-02
DAV:   2    -0.132341608582E+03   -0.27557E-03   -0.30200E-03  2920   0.222E-01    0.284E-02
DAV:   3    -0.132341592867E+03    0.15715E-04   -0.39528E-05  2634   0.308E-02    0.203E-02
DAV:   4    -0.132341577683E+03    0.15184E-04   -0.53199E-05  2654   0.405E-02    0.842E-03
DAV:   5    -0.132341575704E+03    0.19795E-05   -0.17159E-05  1820   0.232E-02    0.830E-03
DAV:   6    -0.132341573279E+03    0.24251E-05   -0.85670E-06  1666   0.177E-02
  22 F= -.13234157E+03 E0= -.13234102E+03  d E =-.142258E-02
       N       E                     dE             d eps       ncg     rms          rms(c)
DAV:   1    -0.132341892985E+03   -0.31728E-03   -0.38406E-02  2784   0.814E-01    0.267E-02
DAV:   2    -0.132341940900E+03   -0.47914E-04   -0.83707E-04  2972   0.126E-01    0.188E-02
DAV:   3    -0.132341923944E+03    0.16955E-04   -0.39968E-05  2618   0.371E-02    0.147E-02
DAV:   4    -0.132341903348E+03    0.20597E-04   -0.10625E-05  1724   0.279E-02    0.885E-03
DAV:   5    -0.132341868551E+03    0.34796E-04   -0.21596E-05  2292   0.587E-02    0.768E-03
DAV:   6    -0.132341829593E+03    0.38959E-04   -0.38115E-05  2702   0.923E-02    0.487E-03
DAV:   7    -0.132341798147E+03    0.31446E-04   -0.65191E-05  3180   0.111E-01    0.134E-02
DAV:   8    -0.132341784061E+03    0.14086E-04   -0.54315E-05  2616   0.477E-02    0.981E-03
DAV:   9    -0.132341761884E+03    0.22177E-04   -0.17727E-05  2180   0.762E-02    0.341E-03
DAV:  10    -0.132341753876E+03    0.80080E-05   -0.39227E-05  2776   0.816E-02
  23 F= -.13234175E+03 E0= -.13234120E+03  d E =-.180597E-03
       N       E                     dE             d eps       ncg     rms          rms(c)
DAV:   1    -0.132341757361E+03    0.45231E-05   -0.51608E-04  2702   0.918E-02    0.597E-03
DAV:   2    -0.132341757139E+03    0.22227E-06   -0.12394E-05  1724   0.164E-02    0.343E-03
DAV:   3    -0.132341756456E+03    0.68307E-06   -0.23197E-06  1580   0.108E-02    0.172E-03
DAV:   4    -0.132341756138E+03    0.31811E-06   -0.10915E-06  1480   0.744E-03    0.136E-03
DAV:   5    -0.132341755889E+03    0.24885E-06   -0.42965E-07  1452   0.469E-03    0.102E-03
DAV:   6    -0.132341755512E+03    0.37657E-06   -0.31662E-07  1562   0.746E-03
  24 F= -.13234176E+03 E0= -.13234121E+03  d E =-.182233E-03
       N       E                     dE             d eps       ncg     rms          rms(c)
DAV:   1    -0.132341946150E+03   -0.19026E-03   -0.21769E-02  2692   0.644E-01    0.213E-02
DAV:   2    -0.132341989788E+03   -0.43638E-04   -0.53525E-04  2930   0.957E-02    0.146E-02
DAV:   3    -0.132341985347E+03    0.44408E-05   -0.92856E-06  1724   0.175E-02    0.107E-02
DAV:   4    -0.132341982182E+03    0.31652E-05   -0.14461E-05  1766   0.226E-02    0.401E-03
DAV:   5    -0.132341981840E+03    0.34196E-06   -0.66217E-06  1500   0.142E-02    0.413E-03
DAV:   6    -0.132341981686E+03    0.15399E-06   -0.15799E-06  1446   0.579E-03
  25 F= -.13234198E+03 E0= -.13234144E+03  d E =-.226174E-03
       N       E                     dE             d eps       ncg     rms          rms(c)
DAV:   1    -0.132341977690E+03    0.41500E-05   -0.16082E-01  2692   0.175E+00    0.595E-02
DAV:   2    -0.132342302217E+03   -0.32453E-03   -0.40527E-03  2934   0.264E-01    0.405E-02
DAV:   3    -0.132342268522E+03    0.33695E-04   -0.83419E-05  3060   0.508E-02    0.296E-02
DAV:   4    -0.132342244356E+03    0.24167E-04   -0.94379E-05  2802   0.559E-02    0.130E-02
DAV:   5    -0.132342236482E+03    0.78738E-05   -0.35057E-05  2498   0.407E-02    0.111E-02
DAV:   6    -0.132342231437E+03    0.50449E-05   -0.14749E-05  1668   0.255E-02
  26 F= -.13234223E+03 E0= -.13234171E+03  d E =-.475925E-03
       N       E                     dE             d eps       ncg     rms          rms(c)
DAV:   1    -0.132342414933E+03   -0.17845E-03   -0.10937E-02  2772   0.457E-01    0.158E-02
DAV:   2    -0.132342431377E+03   -0.16445E-04   -0.25914E-04  2936   0.699E-02    0.107E-02
DAV:   3    -0.132342426620E+03    0.47574E-05   -0.88714E-06  1768   0.192E-02    0.755E-03
DAV:   4    -0.132342421747E+03    0.48732E-05   -0.32752E-06  1632   0.175E-02    0.460E-03
DAV:   5    -0.132342414581E+03    0.71655E-05   -0.41059E-06  1700   0.288E-02    0.253E-03
DAV:   6    -0.132342410620E+03    0.39608E-05   -0.65149E-06  1652   0.232E-02
  27 F= -.13234241E+03 E0= -.13234190E+03  d E =-.179184E-03
       N       E                     dE             d eps       ncg     rms          rms(c)
DAV:   1    -0.132342594986E+03   -0.18040E-03   -0.98903E-02  2764   0.137E+00    0.471E-02
DAV:   2    -0.132342774077E+03   -0.17909E-03   -0.24098E-03  2950   0.206E-01    0.318E-02
DAV:   3    -0.132342745560E+03    0.28517E-04   -0.71052E-05  3052   0.466E-02    0.223E-02
DAV:   4    -0.132342723294E+03    0.22266E-04   -0.30924E-05  2486   0.379E-02    0.123E-02
DAV:   5    -0.132342703011E+03    0.20283E-04   -0.15815E-05  1938   0.454E-02    0.628E-03
DAV:   6    -0.132342690044E+03    0.12967E-04   -0.20645E-05  2188   0.451E-02    0.415E-03
DAV:   7    -0.132342680766E+03    0.92782E-05   -0.12050E-05  1736   0.360E-02
  28 F= -.13234268E+03 E0= -.13234219E+03  d E =-.449329E-03
       N       E                     dE             d eps       ncg     rms          rms(c)
DAV:   1    -0.132343005139E+03   -0.31510E-03   -0.12614E-02  2720   0.495E-01    0.205E-02
DAV:   2    -0.132343027763E+03   -0.22624E-04   -0.34527E-04  2984   0.791E-02    0.136E-02
DAV:   3    -0.132343022979E+03    0.47838E-05   -0.13273E-05  1958   0.198E-02    0.881E-03
DAV:   4    -0.132343020215E+03    0.27644E-05   -0.75758E-06  1638   0.172E-02    0.463E-03
DAV:   5    -0.132343018326E+03    0.18884E-05   -0.29268E-06  1654   0.158E-02    0.264E-03
DAV:   6    -0.132343016072E+03    0.22540E-05   -0.17105E-06  1668   0.229E-02
  29 F= -.13234302E+03 E0= -.13234253E+03  d E =-.335307E-03
       N       E                     dE             d eps       ncg     rms          rms(c)
DAV:   1    -0.132343607689E+03   -0.58936E-03   -0.11354E-01  2722   0.148E+00    0.599E-02
DAV:   2    -0.132343777923E+03   -0.17023E-03   -0.27041E-03  2964   0.224E-01    0.353E-02
DAV:   3    -0.132343746746E+03    0.31178E-04   -0.12409E-04  3068   0.578E-02    0.241E-02
DAV:   4    -0.132343725239E+03    0.21506E-04   -0.38284E-05  2640   0.410E-02    0.160E-02
DAV:   5    -0.132343703900E+03    0.21340E-04   -0.12140E-05  1864   0.474E-02    0.865E-03
DAV:   6    -0.132343682093E+03    0.21807E-04   -0.21135E-05  2320   0.676E-02    0.519E-03
DAV:   7    -0.132343671853E+03    0.10241E-04   -0.31415E-05  2362   0.514E-02    0.494E-03
DAV:   8    -0.132343670818E+03    0.10345E-05   -0.21982E-05  1934   0.210E-02
  30 F= -.13234367E+03 E0= -.13234320E+03  d E =-.990053E-03
       N       E                     dE             d eps       ncg     rms          rms(c)
DAV:   1    -0.132342812137E+03    0.85972E-03   -0.45568E-01  2708   0.296E+00    0.118E-01
DAV:   2    -0.132343471194E+03   -0.65906E-03   -0.10779E-02  2964   0.447E-01    0.709E-02
DAV:   3    -0.132343330268E+03    0.14093E-03   -0.46546E-04  3068   0.116E-01    0.494E-02
DAV:   4    -0.132343208809E+03    0.12146E-03   -0.17328E-04  3032   0.942E-02    0.321E-02
DAV:   5    -0.132343091804E+03    0.11701E-03   -0.76557E-05  3112   0.106E-01    0.186E-02
DAV:   6    -0.132342960643E+03    0.13116E-03   -0.85545E-05  3438   0.145E-01    0.105E-02
DAV:   7    -0.132342886159E+03    0.74484E-04   -0.10937E-04  3030   0.108E-01    0.102E-02
DAV:   8    -0.132342820851E+03    0.65308E-04   -0.38776E-05  2502   0.913E-02    0.651E-03
DAV:   9    -0.132342677043E+03    0.14381E-03   -0.17580E-04  3700   0.269E-01    0.110E-02
DAV:  10    -0.132342669555E+03    0.74871E-05   -0.18014E-04  2946   0.857E-02    0.122E-02
DAV:  11    -0.132342667663E+03    0.18922E-05   -0.83367E-05  2632   0.392E-02
  31 F= -.13234267E+03 E0= -.13234219E+03  d E =0.131022E-04
       N       E                     dE             d eps       ncg     rms          rms(c)
DAV:   1    -0.132343571997E+03   -0.90244E-03   -0.27180E-01  2724   0.227E+00    0.923E-02
DAV:   2    -0.132343981704E+03   -0.40971E-03   -0.65284E-03  2970   0.342E-01    0.553E-02
DAV:   3    -0.132343903895E+03    0.77809E-04   -0.28222E-04  3052   0.886E-02    0.375E-02
DAV:   4    -0.132343851750E+03    0.52145E-04   -0.10545E-04  3016   0.678E-02    0.249E-02
DAV:   5    -0.132343805389E+03    0.46360E-04   -0.36230E-05  2666   0.679E-02    0.133E-02
DAV:   6    -0.132343756775E+03    0.48614E-04   -0.41827E-05  2838   0.940E-02    0.628E-03
DAV:   7    -0.132343739509E+03    0.17266E-04   -0.63542E-05  2726   0.610E-02    0.714E-03
DAV:   8    -0.132343736794E+03    0.27149E-05   -0.31088E-05  2276   0.253E-02
  32 F= -.13234374E+03 E0= -.13234327E+03  d E =-.105603E-02
       N       E                     dE             d eps       ncg     rms          rms(c)
DAV:   1    -0.132343771982E+03   -0.32473E-04   -0.44722E-03  2748   0.293E-01    0.141E-02
DAV:   2    -0.132343765878E+03    0.61045E-05   -0.10892E-04  2956   0.486E-02    0.756E-03
DAV:   3    -0.132343756897E+03    0.89807E-05   -0.48578E-06  1732   0.229E-02    0.591E-03
DAV:   4    -0.132343737963E+03    0.18934E-04   -0.66585E-06  1872   0.463E-02    0.423E-03
DAV:   5    -0.132343707957E+03    0.30006E-04   -0.32736E-05  2730   0.888E-02    0.531E-03
DAV:   6    -0.132343704345E+03    0.36121E-05   -0.34652E-05  2488   0.314E-02
  33 F= -.13234370E+03 E0= -.13234323E+03  d E =-.102358E-02
       N       E                     dE             d eps       ncg     rms          rms(c)
DAV:   1    -0.132343848804E+03   -0.14085E-03   -0.49331E-03  2672   0.305E-01    0.117E-02
DAV:   2    -0.132343853301E+03   -0.44973E-05   -0.10495E-04  2956   0.435E-02    0.762E-03
DAV:   3    -0.132343850500E+03    0.28008E-05   -0.40537E-06  1724   0.132E-02    0.508E-03
DAV:   4    -0.132343847276E+03    0.32238E-05   -0.18506E-06  1610   0.152E-02    0.308E-03
DAV:   5    -0.132343843048E+03    0.42280E-05   -0.21286E-06  1696   0.216E-02    0.169E-03
DAV:   6    -0.132343836858E+03    0.61903E-05   -0.31151E-06  1746   0.369E-02
  34 F= -.13234384E+03 E0= -.13234337E+03  d E =-.132513E-03
       N       E                     dE             d eps       ncg     rms          rms(c)
DAV:   1    -0.132344156752E+03   -0.31370E-03   -0.44288E-02  2636   0.913E-01    0.353E-02
DAV:   2    -0.132344227373E+03   -0.70621E-04   -0.97815E-04  2956   0.127E-01    0.193E-02
DAV:   3    -0.132344218865E+03    0.85077E-05   -0.31038E-05  2518   0.263E-02    0.124E-02
DAV:   4    -0.132344214421E+03    0.44448E-05   -0.11550E-05  1778   0.224E-02    0.728E-03
DAV:   5    -0.132344211683E+03    0.27374E-05   -0.59655E-06  1674   0.214E-02    0.341E-03
DAV:   6    -0.132344209219E+03    0.24643E-05   -0.26549E-06  1676   0.251E-02
  35 F= -.13234421E+03 E0= -.13234374E+03  d E =-.504874E-03
       N       E                     dE             d eps       ncg     rms          rms(c)
DAV:   1    -0.132344397215E+03   -0.18553E-03   -0.17843E-01  2644   0.183E+00    0.704E-02
DAV:   2    -0.132344682792E+03   -0.28558E-03   -0.39524E-03  2950   0.256E-01    0.406E-02
DAV:   3    -0.132344648129E+03    0.34662E-04   -0.12396E-04  3054   0.565E-02    0.263E-02
DAV:   4    -0.132344628128E+03    0.20001E-04   -0.59209E-05  2850   0.518E-02    0.166E-02
DAV:   5    -0.132344619078E+03    0.90506E-05   -0.22214E-05  2048   0.389E-02    0.866E-03
DAV:   6    -0.132344609434E+03    0.96439E-05   -0.88959E-06  1838   0.458E-02
  36 F= -.13234461E+03 E0= -.13234413E+03  d E =-.905088E-03
       N       E                     dE             d eps       ncg     rms          rms(c)
DAV:   1    -0.132344588302E+03    0.30775E-04   -0.40811E-02  2652   0.874E-01    0.339E-02
DAV:   2    -0.132344650815E+03   -0.62513E-04   -0.90156E-04  2950   0.125E-01    0.195E-02
DAV:   3    -0.132344641127E+03    0.96878E-05   -0.30450E-05  2478   0.304E-02    0.128E-02
DAV:   4    -0.132344632998E+03    0.81293E-05   -0.11379E-05  1814   0.286E-02    0.734E-03
DAV:   5    -0.132344626947E+03    0.60510E-05   -0.75616E-06  1742   0.307E-02    0.396E-03
DAV:   6    -0.132344620559E+03    0.63885E-05   -0.65181E-06  1914   0.448E-02
  37 F= -.13234462E+03 E0= -.13234413E+03  d E =-.916213E-03
       N       E                     dE             d eps       ncg     rms          rms(c)
DAV:   1    -0.132345001239E+03   -0.37429E-03   -0.39550E-02  2740   0.869E-01    0.290E-02
DAV:   2    -0.132345061650E+03   -0.60411E-04   -0.85054E-04  2958   0.123E-01    0.175E-02
DAV:   3    -0.132345051624E+03    0.10026E-04   -0.24379E-05  2150   0.289E-02    0.119E-02
DAV:   4    -0.132345042838E+03    0.87864E-05   -0.94904E-06  1740   0.261E-02    0.661E-03
DAV:   5    -0.132345035237E+03    0.76006E-05   -0.87480E-06  1824   0.329E-02    0.314E-03
DAV:   6    -0.132345031850E+03    0.33872E-05   -0.92483E-06  1652   0.259E-02
  38 F= -.13234503E+03 E0= -.13234453E+03  d E =-.411291E-03
       N       E                     dE             d eps       ncg     rms          rms(c)
DAV:   1    -0.132345206045E+03   -0.17081E-03   -0.28538E-01  2684   0.233E+00    0.784E-02
DAV:   2    -0.132345654646E+03   -0.44860E-03   -0.61739E-03  2958   0.330E-01    0.469E-02
DAV:   3    -0.132345585466E+03    0.69180E-04   -0.17949E-04  3060   0.758E-02    0.320E-02
DAV:   4    -0.132345527720E+03    0.57746E-04   -0.61312E-05  2920   0.621E-02    0.190E-02
DAV:   5    -0.132345476205E+03    0.51515E-04   -0.47383E-05  2760   0.772E-02    0.849E-03
DAV:   6    -0.132345444814E+03    0.31391E-04   -0.39270E-05  2588   0.685E-02    0.607E-03
DAV:   7    -0.132345411949E+03    0.32865E-04   -0.13164E-05  2056   0.703E-02    0.539E-03
DAV:   8    -0.132345369543E+03    0.42406E-04   -0.30695E-05  2614   0.103E-01    0.705E-03
DAV:   9    -0.132345335699E+03    0.33844E-04   -0.54650E-05  3072   0.109E-01    0.634E-03
DAV:  10    -0.132345326905E+03    0.87941E-05   -0.66327E-05  2736   0.661E-02
  39 F= -.13234533E+03 E0= -.13234479E+03  d E =-.706346E-03
       N       E                     dE             d eps       ncg     rms          rms(c)
DAV:   1    -0.132345623940E+03   -0.28824E-03   -0.49538E-02  2770   0.990E-01    0.360E-02
DAV:   2    -0.132345701403E+03   -0.77463E-04   -0.11739E-03  2976   0.146E-01    0.242E-02
DAV:   3    -0.132345687112E+03    0.14291E-04   -0.40402E-05  2828   0.348E-02    0.162E-02
DAV:   4    -0.132345677953E+03    0.91595E-05   -0.16975E-05  1828   0.261E-02    0.869E-03
DAV:   5    -0.132345672393E+03    0.55598E-05   -0.80536E-06  1768   0.262E-02    0.437E-03
DAV:   6    -0.132345668472E+03    0.39213E-05   -0.61040E-06  1806   0.285E-02
  40 F= -.13234567E+03 E0= -.13234510E+03  d E =-.341567E-03
       N       E                     dE             d eps       ncg     rms          rms(c)
DAV:   1    -0.132345730728E+03   -0.58335E-04   -0.87791E-02  2778   0.132E+00    0.476E-02
DAV:   2    -0.132345874237E+03   -0.14351E-03   -0.20499E-03  2964   0.194E-01    0.290E-02
DAV:   3    -0.132345852059E+03    0.22178E-04   -0.56560E-05  3034   0.419E-02    0.201E-02
DAV:   4    -0.132345835039E+03    0.17020E-04   -0.26457E-05  2322   0.367E-02    0.108E-02
DAV:   5    -0.132345824984E+03    0.10055E-04   -0.13764E-05  1844   0.381E-02    0.568E-03
DAV:   6    -0.132345817145E+03    0.78388E-05   -0.11566E-05  1942   0.452E-02
  41 F= -.13234582E+03 E0= -.13234522E+03  d E =-.490241E-03
       N       E                     dE             d eps       ncg     rms          rms(c)
DAV:   1    -0.132346172509E+03   -0.34753E-03   -0.43174E-02  2784   0.886E-01    0.273E-02
DAV:   2    -0.132346235809E+03   -0.63299E-04   -0.95209E-04  3008   0.132E-01    0.188E-02
DAV:   3    -0.132346221606E+03    0.14203E-04   -0.33107E-05  2680   0.329E-02    0.147E-02
DAV:   4    -0.132346205917E+03    0.15689E-04   -0.11059E-05  1736   0.273E-02    0.814E-03
DAV:   5    -0.132346185156E+03    0.20760E-04   -0.20789E-05  2312   0.491E-02    0.620E-03
DAV:   6    -0.132346177397E+03    0.77591E-05   -0.16722E-05  1874   0.320E-02
  42 F= -.13234618E+03 E0= -.13234557E+03  d E =-.360252E-03
       N       E                     dE             d eps       ncg     rms          rms(c)
DAV:   1    -0.132346252211E+03   -0.67055E-04   -0.62023E-02  2796   0.107E+00    0.320E-02
DAV:   2    -0.132346342210E+03   -0.89999E-04   -0.14088E-03  3008   0.160E-01    0.236E-02
DAV:   3    -0.132346314511E+03    0.27699E-04   -0.38147E-05  2798   0.372E-02    0.180E-02
DAV:   4    -0.132346265513E+03    0.48998E-04   -0.35848E-05  2608   0.516E-02    0.873E-03
DAV:   5    -0.132346230162E+03    0.35351E-04   -0.29444E-05  2620   0.556E-02    0.868E-03
DAV:   6    -0.132346197635E+03    0.32528E-04   -0.26999E-05  2308   0.620E-02    0.564E-03
DAV:   7    -0.132346148135E+03    0.49499E-04   -0.25627E-05  2516   0.102E-01    0.105E-02
DAV:   8    -0.132346084227E+03    0.63908E-04   -0.90264E-05  3394   0.165E-01    0.812E-03
DAV:   9    -0.132346066448E+03    0.17779E-04   -0.14584E-04  3112   0.128E-01    0.113E-02
DAV:  10    -0.132346069491E+03   -0.30430E-05   -0.11575E-04  2696   0.427E-02    0.106E-02
DAV:  11    -0.132346068252E+03    0.12383E-05   -0.67292E-06  1580   0.114E-02
  43 F= -.13234607E+03 E0= -.13234544E+03  d E =-.251107E-03
       N       E                     dE             d eps       ncg     rms          rms(c)
DAV:   1    -0.132346156035E+03   -0.86544E-04   -0.14009E-02  2796   0.506E-01    0.181E-02
DAV:   2    -0.132346177880E+03   -0.21845E-04   -0.32395E-04  2976   0.789E-02    0.984E-03
DAV:   3    -0.132346174176E+03    0.37036E-05   -0.15084E-05  1694   0.208E-02    0.741E-03
DAV:   4    -0.132346170790E+03    0.33868E-05   -0.35905E-06  1572   0.121E-02    0.421E-03
DAV:   5    -0.132346166140E+03    0.46494E-05   -0.56075E-06  1824   0.221E-02    0.282E-03
DAV:   6    -0.132346165284E+03    0.85576E-06   -0.44696E-06  1554   0.116E-02
  44 F= -.13234617E+03 E0= -.13234554E+03  d E =-.348139E-03
       N       E                     dE             d eps       ncg     rms          rms(c)
DAV:   1    -0.132346185354E+03   -0.19214E-04   -0.64170E-03  2772   0.344E-01    0.104E-02
DAV:   2    -0.132346193328E+03   -0.79743E-05   -0.14714E-04  2936   0.523E-02    0.794E-03
DAV:   3    -0.132346189687E+03    0.36416E-05   -0.41970E-06  1572   0.138E-02    0.618E-03
DAV:   4    -0.132346182023E+03    0.76640E-05   -0.47443E-06  1712   0.228E-02    0.291E-03
DAV:   5    -0.132346177052E+03    0.49708E-05   -0.58235E-06  1648   0.222E-02    0.343E-03
DAV:   6    -0.132346173913E+03    0.31391E-05   -0.55167E-06  1652   0.190E-02
  45 F= -.13234617E+03 E0= -.13234555E+03  d E =-.356768E-03
       N       E                     dE             d eps       ncg     rms          rms(c)
DAV:   1    -0.132346297181E+03   -0.12013E-03   -0.30097E-02  2772   0.734E-01    0.259E-02
DAV:   2    -0.132346343610E+03   -0.46429E-04   -0.73976E-04  2992   0.119E-01    0.176E-02
DAV:   3    -0.132346335803E+03    0.78066E-05   -0.33805E-05  2528   0.280E-02    0.141E-02
DAV:   4    -0.132346328119E+03    0.76840E-05   -0.11908E-05  1646   0.187E-02    0.712E-03
DAV:   5    -0.132346320846E+03    0.72726E-05   -0.10458E-05  1758   0.278E-02    0.532E-03
DAV:   6    -0.132346315757E+03    0.50890E-05   -0.79926E-06  1810   0.328E-02
  46 F= -.13234632E+03 E0= -.13234569E+03  d E =-.141845E-03
       N       E                     dE             d eps       ncg     rms          rms(c)
DAV:   1    -0.132346323663E+03   -0.28169E-05   -0.12376E-02  2796   0.470E-01    0.147E-02
DAV:   2    -0.132346341992E+03   -0.18328E-04   -0.28787E-04  2938   0.726E-02    0.114E-02
DAV:   3    -0.132346337349E+03    0.46426E-05   -0.80506E-06  1640   0.174E-02    0.904E-03
DAV:   4    -0.132346329904E+03    0.74456E-05   -0.11148E-05  1814   0.246E-02    0.395E-03
DAV:   5    -0.132346327034E+03    0.28698E-05   -0.81138E-06  1652   0.214E-02    0.500E-03
DAV:   6    -0.132346326485E+03    0.54909E-06   -0.49570E-06  1488   0.108E-02
  47 F= -.13234633E+03 E0= -.13234569E+03  d E =-.152572E-03
