 vasp.5.3.5 31Mar14 (build Apr 08 2024 10:12:10) complex                        
  
 executed on             LinuxIFC date 2024.07.29  18:05:04
 running on    8 total cores
 distrk:  each k-point on    8 cores,    1 groups
 distr:  one band on NCORES_PER_BAND=   4 cores,    2 groups


--------------------------------------------------------------------------------------------------------


 INCAR:
 POTCAR:    PAW_PBE O 08Apr2002                   
 POTCAR:    PAW_PBE Mg 13Apr2007                  
 POTCAR:    PAW_PBE Al 04Jan2001                  
 POTCAR:    PAW_PBE O 08Apr2002                   
   VRHFIN =O: s2p4                                                              
   LEXCH  = PE                                                                  
   EATOM  =   432.3788 eV,   31.7789 Ry                                         
                                                                                
   TITEL  = PAW_PBE O 08Apr2002                                                 
   LULTRA =        F    use ultrasoft PP ?                                      
   IUNSCR =        1    unscreen: 0-lin 1-nonlin 2-no                           
   RPACOR =    1.200    partial core radius                                     
   POMASS =   16.000; ZVAL   =    6.000    mass and valenz                      
   RCORE  =    1.520    outmost cutoff radius                                   
   RWIGS  =    1.550; RWIGS  =    0.820    wigner-seitz radius (au A)           
   ENMAX  =  400.000; ENMIN  =  300.000 eV                                      
   ICORE  =        2    local potential                                         
   LCOR   =        T    correct aug charges                                     
   LPAW   =        T    paw PP                                                  
   EAUG   =  605.392                                                            
   DEXC   =    0.000                                                            
   RMAX   =    1.553    core radius for proj-oper                               
   RAUG   =    1.300    factor for augmentation sphere                          
   RDEP   =    1.550    radius for radial grids                                 
   RDEPT  =    1.329    core radius for aug-charge                              
                                                                                
   Atomic configuration                                                         
    4 entries                                                                   
     n  l   j            E        occ.                                          
     1  0  0.50      -514.6923   2.0000                                         
     2  0  0.50       -23.9615   2.0000                                         
     2  1  0.50        -9.0305   4.0000                                         
     3  2  1.50        -9.5241   0.0000                                         
   Description                                                                  
     l       E           TYP  RCUT    TYP  RCUT                                 
     0    -23.9615318     23  1.200                                             
     0     -9.5240782     23  1.200                                             
     1     -9.0304911     23  1.520                                             
     1      8.1634956     23  1.520                                             
     2     -9.5240782      7  1.500                                             
  local pseudopotential read in
  partial core-charges read in
  partial kinetic energy density read in
  kinetic energy density of atom read in
  atomic valenz-charges read in
  non local Contribution for L=           0  read in
    real space projection operators read in
  non local Contribution for L=           0  read in
    real space projection operators read in
  non local Contribution for L=           1  read in
    real space projection operators read in
  non local Contribution for L=           1  read in
    real space projection operators read in
    PAW grid and wavefunctions read in
 
   number of l-projection  operators is LMAX  =           4
   number of lm-projection operators is LMMAX =           8
 
 POTCAR:    PAW_PBE Mg 13Apr2007                  
   VRHFIN =Mg: s2p0                                                             
   LEXCH  = PE                                                                  
   EATOM  =    23.0369 eV,    1.6932 Ry                                         
                                                                                
   TITEL  = PAW_PBE Mg 13Apr2007                                                
   LULTRA =        F    use ultrasoft PP ?                                      
   IUNSCR =        1    unscreen: 0-lin 1-nonlin 2-no                           
   RPACOR =    1.500    partial core radius                                     
   POMASS =   24.305; ZVAL   =    2.000    mass and valenz                      
   RCORE  =    2.000    outmost cutoff radius                                   
   RWIGS  =    2.880; RWIGS  =    1.524    wigner-seitz radius (au A)           
   ENMAX  =  200.000; ENMIN  =  100.000 eV                                      
   RCLOC  =    1.506    cutoff for local pot                                    
   LCOR   =        T    correct aug charges                                     
   LPAW   =        T    paw PP                                                  
   EAUG   =  454.734                                                            
   DEXC   =    0.000                                                            
   RMAX   =    2.045    core radius for proj-oper                               
   RAUG   =    1.300    factor for augmentation sphere                          
   RDEP   =    2.025    radius for radial grids                                 
   RDEPT  =    1.942    core radius for aug-charge                              
                                                                                
   Atomic configuration                                                         
    6 entries                                                                   
     n  l   j            E        occ.                                          
     1  0  0.50     -1259.6230   2.0000                                         
     2  0  0.50       -79.8442   2.0000                                         
     2  1  1.50       -46.6121   6.0000                                         
     3  0  0.50        -4.7055   2.0000                                         
     3  1  0.50        -1.3660   0.0000                                         
     3  2  1.50        -1.3606   0.0000                                         
   Description                                                                  
     l       E           TYP  RCUT    TYP  RCUT                                 
     0     -4.7054661     23  2.000                                             
     0     27.2116520     23  2.000                                             
     1      1.3605826     23  2.000                                             
     1     27.2116520     23  2.000                                             
     2     -1.3605826     23  2.000                                             
  local pseudopotential read in
  partial core-charges read in
  partial kinetic energy density read in
  atomic valenz-charges read in
  non local Contribution for L=           0  read in
    real space projection operators read in
  non local Contribution for L=           0  read in
    real space projection operators read in
  non local Contribution for L=           1  read in
    real space projection operators read in
  non local Contribution for L=           1  read in
    real space projection operators read in
  non local Contribution for L=           2  read in
    real space projection operators read in
    PAW grid and wavefunctions read in
 
   number of l-projection  operators is LMAX  =           5
   number of lm-projection operators is LMMAX =          13
 
 POTCAR:    PAW_PBE Al 04Jan2001                  
   VRHFIN =Al: s2p1                                                             
   LEXCH  = PE                                                                  
   EATOM  =    53.5387 eV,    3.9350 Ry                                         
                                                                                
   TITEL  = PAW_PBE Al 04Jan2001                                                
   LULTRA =        F    use ultrasoft PP ?                                      
   IUNSCR =        1    unscreen: 0-lin 1-nonlin 2-no                           
   RPACOR =    1.500    partial core radius                                     
   POMASS =   26.981; ZVAL   =    3.000    mass and valenz                      
   RCORE  =    1.900    outmost cutoff radius                                   
   RWIGS  =    2.650; RWIGS  =    1.402    wigner-seitz radius (au A)           
   ENMAX  =  240.300; ENMIN  =  180.225 eV                                      
   ICORE  =        2    local potential                                         
   LCOR   =        T    correct aug charges                                     
   LPAW   =        T    paw PP                                                  
   EAUG   =  291.052                                                            
   DEXC   =    0.000                                                            
   RMAX   =    1.939    core radius for proj-oper                               
   RAUG   =    1.300    factor for augmentation sphere                          
   RDEP   =    1.966    radius for radial grids                                 
   RDEPT  =    1.856    core radius for aug-charge                              
                                                                                
   Atomic configuration                                                         
    6 entries                                                                   
     n  l   j            E        occ.                                          
     1  0  0.50     -1511.1048   2.0000                                         
     2  0  0.50      -108.1629   2.0000                                         
     2  1  1.50       -69.6402   6.0000                                         
     3  0  0.50        -7.7528   2.0000                                         
     3  1  1.50        -2.7121   1.0000                                         
     3  2  2.50        -2.7212   0.0000                                         
   Description                                                                  
     l       E           TYP  RCUT    TYP  RCUT                                 
     0     -7.7528455     23  1.900                                             
     0     -3.3096929     23  1.900                                             
     1     -2.7120682     23  1.900                                             
     1     13.6058260     23  1.900                                             
     2     -2.7211652      7  1.900                                             
  local pseudopotential read in
  partial core-charges read in
  partial kinetic energy density read in
  atomic valenz-charges read in
  non local Contribution for L=           0  read in
    real space projection operators read in
  non local Contribution for L=           0  read in
    real space projection operators read in
  non local Contribution for L=           1  read in
    real space projection operators read in
  non local Contribution for L=           1  read in
    real space projection operators read in
    PAW grid and wavefunctions read in
 
   number of l-projection  operators is LMAX  =           4
   number of lm-projection operators is LMMAX =           8
 

 ----------------------------------------------------------------------------- 
|                                                                             |
|  ADVICE TO THIS USER RUNNING 'VASP/VAMP'   (HEAR YOUR MASTER'S VOICE ...):  |
|                                                                             |
|      You have a (more or less) 'large supercell' and for larger cells       |
|      it might be more efficient to use real space projection opertators     |
|      So try LREAL= Auto  in the INCAR   file.                               |
|      Mind: At the moment your POTCAR file does not contain real space       |
|       projectors, and has to be modified,  BUT if you                       |
|      want to do an extremely  accurate calculation you might also keep the  |
|      reciprocal projection scheme          (i.e. LREAL=.FALSE.)             |
|                                                                             |
 ----------------------------------------------------------------------------- 

  PAW_PBE O 08Apr2002                   :
 energy of atom  1       EATOM= -432.3788
 kinetic energy error for atom=    0.0208 (will be added to EATOM!!)
  PAW_PBE Mg 13Apr2007                  :
 energy of atom  2       EATOM=  -23.0369
 kinetic energy error for atom=    0.0000 (will be added to EATOM!!)
  PAW_PBE Al 04Jan2001                  :
 energy of atom  3       EATOM=  -53.5387
 kinetic energy error for atom=    0.0002 (will be added to EATOM!!)
 
 
 POSCAR: Layer                                   
  positions in direct lattice
  velocities in cartesian coordinates
 exchange correlation table for  LEXCH =        8
   RHO(1)=    0.500       N(1)  =     2000
   RHO(2)=  100.500       N(2)  =     4000
 


--------------------------------------------------------------------------------------------------------


 ion  position               nearest neighbor table
   1  0.000  0.000  0.355-  17 2.15  17 2.15  17 2.15  14 2.15  14 2.15  14 2.15
   2  0.333  0.667  0.412-  14 2.15  14 2.15  14 2.15  11 2.15  11 2.15  11 2.15
   3  0.000  0.000  0.526-  15 2.15  15 2.15  15 2.15  18 2.15  18 2.15  18 2.15
   4  0.333  0.667  0.583-  15 2.15  15 2.15  15 2.15  12 2.15  12 2.15  12 2.15
   5  0.000  0.000  0.697-  16 2.15  16 2.15  16 2.15  19 2.15  19 2.15  19 2.15
   6  0.333  0.667  0.754-  16 2.15  16 2.15  16 2.15  13 2.17  13 2.17  13 2.17
   7  0.667  0.333  0.298-  17 2.15  17 2.15  17 2.15  10 2.17  10 2.17  10 2.17
   8  0.667  0.333  0.469-  18 2.15  18 2.15  18 2.15  11 2.15  11 2.15  11 2.15
   9  0.667  0.333  0.640-  19 2.15  19 2.15  19 2.15  12 2.15  12 2.15  12 2.15
  10  0.000  0.000  0.268-   7 2.17   7 2.17   7 2.17  17 3.11  17 3.11  17 3.11  21 3.34
  11  0.000  0.000  0.440-   8 2.15   8 2.15   8 2.15   2 2.15   2 2.15   2 2.15  18 3.08  18 3.08
                            18 3.08  14 3.08  14 3.08  14 3.08
  12  0.000  0.000  0.611-   4 2.15   4 2.15   4 2.15   9 2.15   9 2.15   9 2.15  15 3.08  15 3.08
                            15 3.08  19 3.08  19 3.08  19 3.08
  13  0.000  0.000  0.783-   6 2.17   6 2.17   6 2.17  16 3.11  16 3.11  16 3.11  24 3.34
  14  0.667  0.333  0.383-   2 2.15   2 2.15   2 2.15   1 2.15   1 2.15   1 2.15  11 3.08  11 3.08
                            11 3.08  17 3.08  17 3.08  17 3.08
  15  0.667  0.333  0.554-   3 2.15   3 2.15   3 2.15   4 2.15   4 2.15   4 2.15  18 3.07  18 3.07
                            18 3.07  12 3.08  12 3.08  12 3.08
  16  0.667  0.333  0.725-   5 2.15   5 2.15   5 2.15   6 2.15   6 2.15   6 2.15  19 3.08  19 3.08
                            19 3.08  13 3.11  13 3.11  13 3.11
  17  0.333  0.667  0.326-   1 2.15   1 2.15   1 2.15   7 2.15   7 2.15   7 2.15  14 3.08  14 3.08
                            14 3.08  10 3.11  10 3.11  10 3.11
  18  0.333  0.667  0.497-   3 2.15   3 2.15   3 2.15   8 2.15   8 2.15   8 2.15  15 3.07  15 3.07
                            15 3.07  11 3.08  11 3.08  11 3.08
  19  0.333  0.667  0.668-   9 2.15   9 2.15   9 2.15   5 2.15   5 2.15   5 2.15  12 3.08  12 3.08
                            12 3.08  16 3.08  16 3.08  16 3.08
  20  0.000  0.000  0.026-  23 3.05  23 3.05  23 3.05  25 3.05  25 3.05  25 3.05
  21  0.000  0.000  0.194-  22 3.07  22 3.07  22 3.07  10 3.34
  22  0.667  0.333  0.137-  23 3.00  23 3.00  23 3.00  21 3.07  21 3.07  21 3.07
  23  0.333  0.667  0.082-  22 3.00  22 3.00  22 3.00  20 3.05  20 3.05  20 3.05
  24  0.000  0.000  0.858-  26 3.07  26 3.07  26 3.07  13 3.34
  25  0.667  0.333  0.970-  26 3.00  26 3.00  26 3.00  20 3.05  20 3.05  20 3.05
  26  0.333  0.667  0.915-  25 3.00  25 3.00  25 3.00  24 3.07  24 3.07  24 3.07
 
  LATTYP: Found a hexagonal cell.
 ALAT       =     2.9929628358
 C/A-ratio  =    14.9335136871
  
  Lattice vectors:
  
 A1 = (   2.5919820457,  -1.4964810762,   0.0000000000)
 A2 = (   0.0000000000,   2.9929621524,   0.0000000000)
 A3 = (   0.0000000000,  -0.0000000000,  44.6954514735)


Analysis of symmetry for initial positions (statically):
=====================================================================
 Subroutine PRICEL returns:
 Original cell was already a primitive cell.
 

 Routine SETGRP: Setting up the symmetry group for a 
 hexagonal supercell.


 Subroutine GETGRP returns: Found  6 space group operations
 (whereof  6 operations were pure point group operations)
 out of a pool of 24 trial point group operations.


The static configuration has the point symmetry C_3v.


Analysis of symmetry for dynamics (positions and initial velocities):
=====================================================================
 Subroutine PRICEL returns:
 Original cell was already a primitive cell.
 

 Routine SETGRP: Setting up the symmetry group for a 
 hexagonal supercell.


 Subroutine GETGRP returns: Found  6 space group operations
 (whereof  6 operations were pure point group operations)
 out of a pool of 24 trial point group operations.


The dynamic configuration has the point symmetry C_3v.


Analysis of constrained symmetry for selective dynamics:
=====================================================================
 Subroutine PRICEL returns:
 Original cell was already a primitive cell.
 

 Routine SETGRP: Setting up the symmetry group for a 
 hexagonal supercell.


 Subroutine GETGRP returns: Found  6 space group operations
 (whereof  6 operations were pure point group operations)
 out of a pool of 24 trial point group operations.


The constrained configuration has the point symmetry C_3v.
 
 
 KPOINTS: K-Spacing Value to Generate K-Mesh: 0.02

Automatic generation of k-mesh.
Space group operators:
 irot       det(A)        alpha          n_x          n_y          n_z        tau_x        tau_y        tau_z
    1     1.000000     0.000001     1.000000     0.000000     0.000000     0.000000     0.000000     0.000000
    2     1.000000   120.000000    -0.000000     0.000000    -1.000000     0.000000     0.000000     0.000000
    3     1.000000   120.000000    -0.000000    -0.000000     1.000000     0.000000     0.000000     0.000000
    4    -1.000000   180.000000    -0.866025     0.500000     0.000000     0.000000     0.000000     0.000000
    5    -1.000000   180.000000     0.000000     1.000000     0.000000     0.000000     0.000000     0.000000
    6    -1.000000   180.000000    -0.866025    -0.500000    -0.000000     0.000000     0.000000     0.000000
 
 Subroutine IBZKPT returns following result:
 ===========================================
 
 Found     21 irreducible k-points:
 
 Following reciprocal coordinates:
            Coordinates               Weight
  0.000000  0.000000  0.000000      1.000000
  0.076923  0.000000 -0.000000      6.000000
  0.153846 -0.000000 -0.000000      6.000000
  0.230769  0.000000 -0.000000      6.000000
  0.307692 -0.000000 -0.000000      6.000000
  0.384615  0.000000 -0.000000      6.000000
  0.461538  0.000000 -0.000000      6.000000
  0.076923  0.076923  0.000000      6.000000
  0.153846  0.076923  0.000000     12.000000
  0.230769  0.076923 -0.000000     12.000000
  0.307692  0.076923 -0.000000     12.000000
  0.384615  0.076923 -0.000000     12.000000
  0.461538  0.076923  0.000000      6.000000
  0.153846  0.153846  0.000000      6.000000
  0.230769  0.153846  0.000000     12.000000
  0.307692  0.153846  0.000000     12.000000
  0.384615  0.153846  0.000000     12.000000
  0.230769  0.230769  0.000000      6.000000
  0.307692  0.230769  0.000000     12.000000
  0.384615  0.230769  0.000000      6.000000
  0.307692  0.307692  0.000000      6.000000
 
 Following cartesian coordinates:
            Coordinates               Weight
  0.000000  0.000000  0.000000      1.000000
  0.029677 -0.000000 -0.000000      6.000000
  0.059355 -0.000000 -0.000000      6.000000
  0.089032 -0.000000 -0.000000      6.000000
  0.118709 -0.000000 -0.000000      6.000000
  0.148387 -0.000000 -0.000000      6.000000
  0.178064 -0.000000 -0.000000      6.000000
  0.044516  0.025701  0.000000      6.000000
  0.074193  0.025701  0.000000     12.000000
  0.103871  0.025701  0.000000     12.000000
  0.133548  0.025701  0.000000     12.000000
  0.163225  0.025701  0.000000     12.000000
  0.192903  0.025701  0.000000      6.000000
  0.089032  0.051403  0.000000      6.000000
  0.118709  0.051403  0.000000     12.000000
  0.148387  0.051403  0.000000     12.000000
  0.178064  0.051403  0.000000     12.000000
  0.133548  0.077104  0.000000      6.000000
  0.163225  0.077104  0.000000     12.000000
  0.192903  0.077104  0.000000      6.000000
  0.178064  0.102805  0.000000      6.000000
 


--------------------------------------------------------------------------------------------------------




 Dimension of arrays:
   k-points           NKPTS =     21   k-points in BZ     NKDIM =     21   number of bands    NBANDS=     62
   number of dos      NEDOS =    301   number of ions     NIONS =     26
   non local maximal  LDIM  =      5   non local SUM 2l+1 LMDIM =     13
   total plane-waves  NPLWV = 193536
   max r-space proj   IRMAX =      1   max aug-charges    IRDMAX= 189865
   dimension x,y,z NGX =    24 NGY =   24 NGZ =  336
   dimension x,y,z NGXF=    48 NGYF=   48 NGZF=  672
   support grid    NGXF=    96 NGYF=   96 NGZF= 1344
   ions per type =               9  10   7
 NGX,Y,Z   is equivalent  to a cutoff of  13.33, 13.33, 12.50 a.u.
 NGXF,Y,Z  is equivalent  to a cutoff of  26.66, 26.66, 25.00 a.u.


 I would recommend the setting:
   dimension x,y,z NGX =    22 NGY =   22 NGZ =  332
 SYSTEM =  unknown system                          
 POSCAR =  Layer                                   

 Startparameter for this run:
   NWRITE =      2    write-flag & timer
   PREC   = accura    normal or accurate (medium, high low for compatibility)
   ISTART =      0    job   : 0-new  1-cont  2-samecut
   ICHARG =      2    charge: 1-file 2-atom 10-const
   ISPIN  =      1    spin polarized calculation?
   LNONCOLLINEAR =      F non collinear calculations
   LSORBIT =      F    spin-orbit coupling
   INIWAV =      1    electr: 0-lowe 1-rand  2-diag
   LASPH  =      F    aspherical Exc in radial PAW
   METAGGA=      F    non-selfconsistent MetaGGA calc.

 Electronic Relaxation 1
   ENCUT  =  520.0 eV  38.22 Ry    6.18 a.u.   5.56  5.56 83.10*2*pi/ulx,y,z
   ENINI  =  520.0     initial cutoff
   ENAUG  =  605.4 eV  augmentation charge cutoff
   NELM   =    100;   NELMIN=  6; NELMDL=  0     # of ELM steps 
   EDIFF  = 0.1E-04   stopping-criterion for ELM
   LREAL  =      F    real-space projection
   NLSPLINE    = F    spline interpolate recip. space projectors
   LCOMPAT=      F    compatible to vasp.4.4
   GGA_COMPAT  = T    GGA compatible to vasp.4.4-vasp.4.6
   LMAXPAW     = -100 max onsite density
   LMAXMIX     =    2 max onsite mixed and CHGCAR
   VOSKOWN=      0    Vosko Wilk Nusair interpolation
   ROPT   =    0.00000   0.00000   0.00000
 Ionic relaxation
   EDIFFG = -.2E-01   stopping-criterion for IOM
   NSW    =    500    number of steps for IOM
   NBLOCK =      1;   KBLOCK =    500    inner block; outer block 
   IBRION =      2    ionic relax: 0-MD 1-quasi-New 2-CG
   NFREE  =      1    steps in history (QN), initial steepest desc. (CG)
   ISIF   =      2    stress and relaxation
   IWAVPR =     11    prediction:  0-non 1-charg 2-wave 3-comb
   ISYM   =      2    0-nonsym 1-usesym 2-fastsym
   LCORR  =      T    Harris-Foulkes like correction to forces

   POTIM  = 0.5000    time-step for ionic-motion
   TEIN   =    0.0    initial temperature
   TEBEG  =    0.0;   TEEND  =   0.0 temperature during run
   SMASS  =  -3.00    Nose mass-parameter (am)
   estimated Nose-frequenzy (Omega)   =  0.10E-29 period in steps =****** mass=  -0.205E-27a.u.
   SCALEE = 1.0000    scale energy and forces
   NPACO  =    256;   APACO  = 16.0  distance and # of slots for P.C.
   PSTRESS=    0.0 pullay stress

  Mass of Ions in am
   POMASS =  16.00 24.30 26.98
  Ionic Valenz
   ZVAL   =   6.00  2.00  3.00
  Atomic Wigner-Seitz radii
   RWIGS  =  -1.00 -1.00 -1.00
  virtual crystal weights 
   VCA    =   1.00  1.00  1.00
   NELECT =      95.0000    total number of electrons
   NUPDOWN=      -1.0000    fix difference up-down

 DOS related values:
   EMIN   =  10.00;   EMAX   =-10.00  energy-range for DOS
   EFERMI =   0.00
   ISMEAR =     0;   SIGMA  =   0.05  broadening in eV -4-tet -1-fermi 0-gaus

 Electronic relaxation 2 (details)
   IALGO  =     38    algorithm
   LDIAG  =      T    sub-space diagonalisation (order eigenvalues)
   LSUBROT=      F    optimize rotation matrix (better conditioning)
   TURBO    =      0    0=normal 1=particle mesh
   IRESTART =      0    0=no restart 2=restart with 2 vectors
   NREBOOT  =      0    no. of reboots
   NMIN     =      0    reboot dimension
   EREF     =   0.00    reference energy to select bands
   IMIX   =      4    mixing-type and parameters
     AMIX     =   0.40;   BMIX     =  1.00
     AMIX_MAG =   1.60;   BMIX_MAG =  1.00
     AMIN     =   0.01
     WC   =   100.;   INIMIX=   1;  MIXPRE=   1;  MAXMIX= -45

 Intra band minimization:
   WEIMIN = 0.0010     energy-eigenvalue tresh-hold
   EBREAK =  0.40E-07  absolut break condition
   DEPER  =   0.30     relativ break condition  

   TIME   =   0.40     timestep for ELM

  volume/ion in A,a.u.               =      13.34        90.00
  Fermi-wavevector in a.u.,A,eV,Ry     =   1.063287  2.009321 15.382466  1.130579
  Thomas-Fermi vector in A             =   2.198767
 
 Write flags
   LWAVE  =      F    write WAVECAR
   LCHARG =      T    write CHGCAR
   LVTOT  =      F    write LOCPOT, total local potential
   LVHAR  =      F    write LOCPOT, Hartree potential only
   LELF   =      F    write electronic localiz. function (ELF)
   LORBIT =      0    0 simple, 1 ext, 2 COOP (PROOUT)


 Dipole corrections
   LMONO  =      F    monopole corrections only (constant potential shift)
   LDIPOL =      F    correct potential (dipole corrections)
   IDIPOL =      0    1-x, 2-y, 3-z, 4-all directions 
   EPSILON=  1.0000000 bulk dielectric constant

 Exchange correlation treatment:
   GGA     =    --    GGA type
   LEXCH   =     8    internal setting for exchange type
   VOSKOWN=      0    Vosko Wilk Nusair interpolation
   LHFCALC =     F    Hartree Fock is set to
   LHFONE  =     F    Hartree Fock one center treatment
   AEXX    =    0.0000 exact exchange contribution

 Linear response parameters
   LEPSILON=     F    determine dielectric tensor
   LRPA    =     F    only Hartree local field effects (RPA)
   LNABLA  =     F    use nabla operator in PAW spheres
   LVEL    =     F    velocity operator in full k-point grid
   LINTERFAST=   F  fast interpolation
   KINTER  =     0    interpolate to denser k-point grid
   CSHIFT  =0.1000    complex shift for real part using Kramers Kronig
   OMEGAMAX=  -1.0    maximum frequency
   DEG_THRESHOLD= 0.2000000E-02 threshold for treating states as degnerate
   RTIME   =    0.100 relaxation time in fs

 Orbital magnetization related:
   ORBITALMAG=     F  switch on orbital magnetization
   LCHIMAG   =     F  perturbation theory with respect to B field
   DQ        =  0.001000  dq finite difference perturbation B field



--------------------------------------------------------------------------------------------------------


 conjugate gradient relaxation of ions
   using selective dynamics as specified on POSCAR
 charge density and potential will be updated during run
 non-spin polarized calculation
 Variant of blocked Davidson
 Davidson routine will perform the subspace rotation
 perform sub-space diagonalisation
    after iterative eigenvector-optimisation
 modified Broyden-mixing scheme, WC =      100.0
 initial mixing is a Kerker type mixing with AMIX =  0.4000 and BMIX =      1.0000
 Hartree-type preconditioning will be used
 using additional bands           14
 reciprocal scheme for non local part
 use partial core corrections
 calculate Harris-corrections to forces 
   (improved forces if not selfconsistent)
 use gradient corrections 
 use of overlap-Matrix (Vanderbilt PP)
 Gauss-broadening in eV      SIGMA  =   0.05


--------------------------------------------------------------------------------------------------------


  energy-cutoff  :      520.00
  volume of cell :      346.73
      direct lattice vectors                 reciprocal lattice vectors
     2.591982046 -1.496481076  0.000000000     0.385805142 -0.000000000 -0.000000000
     0.000000000  2.992962152  0.000000000     0.192902571  0.334117155  0.000000000
     0.000000000 -0.000000000 44.695451473     0.000000000  0.000000000  0.022373641

  length of vectors
     2.992962836  2.992962152 44.695451473     0.385805142  0.385805230  0.022373641


 
 k-points in units of 2pi/SCALE and weight: K-Spacing Value to Generate K-Mesh: 0.02
   0.00000000  0.00000000  0.00000000       0.006
   0.02967732 -0.00000000 -0.00000000       0.036
   0.05935464 -0.00000000 -0.00000000       0.036
   0.08903196 -0.00000000 -0.00000000       0.036
   0.11870927 -0.00000000 -0.00000000       0.036
   0.14838659 -0.00000000 -0.00000000       0.036
   0.17806391 -0.00000000 -0.00000000       0.036
   0.04451598  0.02570132  0.00000000       0.036
   0.07419330  0.02570132  0.00000000       0.071
   0.10387062  0.02570132  0.00000000       0.071
   0.13354793  0.02570132  0.00000000       0.071
   0.16322525  0.02570132  0.00000000       0.071
   0.19290257  0.02570132  0.00000000       0.036
   0.08903196  0.05140264  0.00000000       0.036
   0.11870927  0.05140264  0.00000000       0.071
   0.14838659  0.05140264  0.00000000       0.071
   0.17806391  0.05140264  0.00000000       0.071
   0.13354793  0.07710396  0.00000000       0.036
   0.16322525  0.07710396  0.00000000       0.071
   0.19290257  0.07710396  0.00000000       0.036
   0.17806391  0.10280528  0.00000000       0.036
 
 k-points in reciprocal lattice and weights: K-Spacing Value to Generate K-Mesh: 0.02
   0.00000000  0.00000000  0.00000000       0.006
   0.07692308  0.00000000 -0.00000000       0.036
   0.15384615 -0.00000000 -0.00000000       0.036
   0.23076923  0.00000000 -0.00000000       0.036
   0.30769231 -0.00000000 -0.00000000       0.036
   0.38461538  0.00000000 -0.00000000       0.036
   0.46153846  0.00000000 -0.00000000       0.036
   0.07692308  0.07692308  0.00000000       0.036
   0.15384615  0.07692308  0.00000000       0.071
   0.23076923  0.07692308 -0.00000000       0.071
   0.30769231  0.07692308 -0.00000000       0.071
   0.38461538  0.07692308 -0.00000000       0.071
   0.46153846  0.07692308  0.00000000       0.036
   0.15384615  0.15384615  0.00000000       0.036
   0.23076923  0.15384615  0.00000000       0.071
   0.30769231  0.15384615  0.00000000       0.071
   0.38461538  0.15384615  0.00000000       0.071
   0.23076923  0.23076923  0.00000000       0.036
   0.30769231  0.23076923  0.00000000       0.071
   0.38461538  0.23076923  0.00000000       0.036
   0.30769231  0.30769231  0.00000000       0.036
 
 position of ions in fractional coordinates (direct lattice) 
   0.00000000  0.00000000  0.35487511
   0.33333300  0.66666700  0.41186937
   0.00000000  0.00000000  0.52579156
   0.33333300  0.66666700  0.58271640
   0.00000000  0.00000000  0.69670358
   0.33333300  0.66666700  0.75366770
   0.66666700  0.33333300  0.29791423
   0.66666700  0.33333300  0.46886691
   0.66666700  0.33333300  0.63971420
   0.00000000  0.00000000  0.26848818
   0.00000000  0.00000000  0.44037534
   0.00000000  0.00000000  0.61120038
   0.00000000  0.00000000  0.78309311
   0.66666700  0.33333300  0.38340190
   0.66666700  0.33333300  0.55423308
   0.66666700  0.33333300  0.72517447
   0.33333300  0.66666700  0.32641492
   0.33333300  0.66666700  0.49733975
   0.33333300  0.66666700  0.66818190
   0.00000000  0.00000000  0.02578536
   0.00000000  0.00000000  0.19366561
   0.66666700  0.33333300  0.13693434
   0.33333300  0.66666700  0.08199447
   0.00000000  0.00000000  0.85790196
   0.66666700  0.33333300  0.96957584
   0.33333300  0.66666700  0.91463531
 
 position of ions in cartesian coordinates  (Angst):
   0.00000000 -0.00000000 15.86130347
   0.86399315  1.49648257 18.40868753
   0.00000000 -0.00000000 23.50049125
   0.86399315  1.49648257 26.04477248
   0.00000000 -0.00000000 31.13948113
   0.86399315  1.49648257 33.68551820
   1.72798889 -0.00000150 13.31541088
   1.72798889 -0.00000150 20.95621834
   1.72798889 -0.00000150 28.59231505
   0.00000000 -0.00000000 12.00020059
   0.00000000 -0.00000000 19.68277445
   0.00000000 -0.00000000 27.31787678
   0.00000000 -0.00000000 35.00070029
   1.72798889 -0.00000150 17.13632102
   1.72798889 -0.00000150 24.77169776
   1.72798889 -0.00000150 32.41200049
   0.86399315  1.49648257 14.58926223
   0.86399315  1.49648257 22.22882467
   0.86399315  1.49648257 29.86469153
   0.00000000 -0.00000000  1.15248812
   0.00000000 -0.00000000  8.65597206
   1.72798889 -0.00000150  6.12034223
   0.86399315  1.49648257  3.66477993
   0.00000000 -0.00000000 38.34431563
   1.72798889 -0.00000150 43.33562996
   0.86399315  1.49648257 40.88003801
 


--------------------------------------------------------------------------------------------------------


 k-point  1 :   0.0000 0.0000 0.0000  plane waves:    9479
 k-point  2 :   0.0769 0.0000-0.0000  plane waves:    9461
 k-point  3 :   0.1538-0.0000-0.0000  plane waves:    9431
 k-point  4 :   0.2308 0.0000-0.0000  plane waves:    9396
 k-point  5 :   0.3077-0.0000-0.0000  plane waves:    9332
 k-point  6 :   0.3846 0.0000-0.0000  plane waves:    9280
 k-point  7 :   0.4615 0.0000-0.0000  plane waves:    9280
 k-point  8 :   0.0769 0.0769 0.0000  plane waves:    9433
 k-point  9 :   0.1538 0.0769 0.0000  plane waves:    9416
 k-point 10 :   0.2308 0.0769-0.0000  plane waves:    9355
 k-point 11 :   0.3077 0.0769-0.0000  plane waves:    9332
 k-point 12 :   0.3846 0.0769-0.0000  plane waves:    9290
 k-point 13 :   0.4615 0.0769 0.0000  plane waves:    9254
 k-point 14 :   0.1538 0.1538 0.0000  plane waves:    9369
 k-point 15 :   0.2308 0.1538 0.0000  plane waves:    9332
 k-point 16 :   0.3077 0.1538 0.0000  plane waves:    9316
 k-point 17 :   0.3846 0.1538 0.0000  plane waves:    9274
 k-point 18 :   0.2308 0.2308 0.0000  plane waves:    9328
 k-point 19 :   0.3077 0.2308 0.0000  plane waves:    9283
 k-point 20 :   0.3846 0.2308 0.0000  plane waves:    9312
 k-point 21 :   0.3077 0.3077 0.0000  plane waves:    9324

 maximum and minimum number of plane-waves per node :      2387     2298

 maximum number of plane-waves:      9479
 maximum index in each direction: 
   IXMAX=    5   IYMAX=    5   IZMAX=   83
   IXMIN=   -6   IYMIN=   -5   IZMIN=  -83

 NGX is ok and might be reduce to  24
 NGY is ok and might be reduce to  22
 NGZ is ok and might be reduce to 334

 parallel 3D FFT for wavefunctions:
    minimum data exchange during FFTs selected (reduces bandwidth)
 parallel 3D FFT for charge:
    minimum data exchange during FFTs selected (reduces bandwidth)


 total amount of memory used by VASP on root node   152989. kBytes
========================================================================

   base      :      30000. kBytes
   nonl-proj :      16444. kBytes
   fftplans  :      57934. kBytes
   grid      :      23224. kBytes
   one-center:         56. kBytes
   wavefun   :      25331. kBytes
 
     INWAV:  cpu time    0.00: real time    0.00
 Broyden mixing: mesh for mixing (old mesh)
   NGX = 11   NGY = 11   NGZ =167
  (NGX  = 48   NGY  = 48   NGZ  =672)
  gives a total of  20207 points

 initial charge density was supplied:
 charge density of overlapping atoms calculated
 number of electron      95.0000000 magnetization 
 keeping initial charge density in first step


--------------------------------------------------------------------------------------------------------


 Maximum index for augmentation-charges        22852 (set IRDMAX)


--------------------------------------------------------------------------------------------------------


 First call to EWALD:  gamma=   0.252
 Maximum number of real-space cells 7x 7x 1
 Maximum number of reciprocal cells 1x 1x15

 FEWALD executed in parallel
    FEWALD:  cpu time    0.00: real time    0.00


----------------------------------------- Iteration    1(   1)  ---------------------------------------


    POTLOK:  cpu time    0.11: real time    0.11
    SETDIJ:  cpu time    0.10: real time    0.10
     EDDAV:  cpu time    4.56: real time    4.60
       DOS:  cpu time    0.00: real time    0.00
    --------------------------------------------
      LOOP:  cpu time    4.77: real time    4.81

 eigenvalue-minimisations  :  2628
 total energy-change (2. order) : 0.4771585E+03  (-0.4102861E+04)
 number of electron      95.0000000 magnetization 
 augmentation part       95.0000000 magnetization 

 Free energy of the ion-electron system (eV)
  ---------------------------------------------------
  alpha Z        PSCENC =       116.61439475
  Ewald energy   TEWEN  =     18251.51925033
  -Hartree energ DENC   =    -22953.80568029
  -exchange      EXHF   =         0.00000000
  -V(xc)+E(xc)   XCENC  =      -420.64693656
  PAW double counting   =      4235.41334458    -3509.29226066
  entropy T*S    EENTRO =        -0.00751944
  eigenvalues    EBANDS =       261.00415707
  atomic energy  EATOM  =      4496.35971583
  ---------------------------------------------------
  free energy    TOTEN  =       477.15846560 eV

  energy without entropy =      477.16598504  energy(sigma->0) =      477.16222532


--------------------------------------------------------------------------------------------------------




----------------------------------------- Iteration    1(   2)  ---------------------------------------


     EDDAV:  cpu time    5.37: real time    5.38
       DOS:  cpu time    0.00: real time    0.00
    --------------------------------------------
      LOOP:  cpu time    5.38: real time    5.39

 eigenvalue-minimisations  :  3402
 total energy-change (2. order) :-0.5656087E+03  (-0.5350589E+03)
 number of electron      95.0000000 magnetization 
 augmentation part       95.0000000 magnetization 

 Free energy of the ion-electron system (eV)
  ---------------------------------------------------
  alpha Z        PSCENC =       116.61439475
  Ewald energy   TEWEN  =     18251.51925033
  -Hartree energ DENC   =    -22953.80568029
  -exchange      EXHF   =         0.00000000
  -V(xc)+E(xc)   XCENC  =      -420.64693656
  PAW double counting   =      4235.41334458    -3509.29226066
  entropy T*S    EENTRO =        -0.00812681
  eigenvalues    EBANDS =      -304.60390955
  atomic energy  EATOM  =      4496.35971583
  ---------------------------------------------------
  free energy    TOTEN  =       -88.45020839 eV

  energy without entropy =      -88.44208158  energy(sigma->0) =      -88.44614498


--------------------------------------------------------------------------------------------------------




----------------------------------------- Iteration    1(   3)  ---------------------------------------


     EDDAV:  cpu time    4.91: real time    4.92
       DOS:  cpu time    0.00: real time    0.00
    --------------------------------------------
      LOOP:  cpu time    4.91: real time    4.92

 eigenvalue-minimisations  :  3056
 total energy-change (2. order) :-0.5821412E+02  (-0.5784655E+02)
 number of electron      95.0000000 magnetization 
 augmentation part       95.0000000 magnetization 

 Free energy of the ion-electron system (eV)
  ---------------------------------------------------
  alpha Z        PSCENC =       116.61439475
  Ewald energy   TEWEN  =     18251.51925033
  -Hartree energ DENC   =    -22953.80568029
  -exchange      EXHF   =         0.00000000
  -V(xc)+E(xc)   XCENC  =      -420.64693656
  PAW double counting   =      4235.41334458    -3509.29226066
  entropy T*S    EENTRO =        -0.00889808
  eigenvalues    EBANDS =      -362.81725910
  atomic energy  EATOM  =      4496.35971583
  ---------------------------------------------------
  free energy    TOTEN  =      -146.66432921 eV

  energy without entropy =     -146.65543113  energy(sigma->0) =     -146.65988017


--------------------------------------------------------------------------------------------------------




----------------------------------------- Iteration    1(   4)  ---------------------------------------


     EDDAV:  cpu time    4.89: real time    4.90
       DOS:  cpu time    0.00: real time    0.00
    --------------------------------------------
      LOOP:  cpu time    4.89: real time    4.90

 eigenvalue-minimisations  :  3056
 total energy-change (2. order) :-0.8302344E+00  (-0.8283277E+00)
 number of electron      95.0000000 magnetization 
 augmentation part       95.0000000 magnetization 

 Free energy of the ion-electron system (eV)
  ---------------------------------------------------
  alpha Z        PSCENC =       116.61439475
  Ewald energy   TEWEN  =     18251.51925033
  -Hartree energ DENC   =    -22953.80568029
  -exchange      EXHF   =         0.00000000
  -V(xc)+E(xc)   XCENC  =      -420.64693656
  PAW double counting   =      4235.41334458    -3509.29226066
  entropy T*S    EENTRO =        -0.00851715
  eigenvalues    EBANDS =      -363.64787443
  atomic energy  EATOM  =      4496.35971583
  ---------------------------------------------------
  free energy    TOTEN  =      -147.49456361 eV

  energy without entropy =     -147.48604646  energy(sigma->0) =     -147.49030504


--------------------------------------------------------------------------------------------------------




----------------------------------------- Iteration    1(   5)  ---------------------------------------


     EDDAV:  cpu time    4.94: real time    4.95
       DOS:  cpu time    0.00: real time    0.00
    CHARGE:  cpu time    0.39: real time    0.39
    MIXING:  cpu time    0.00: real time    0.00
    --------------------------------------------
      LOOP:  cpu time    5.33: real time    5.34

 eigenvalue-minimisations  :  3096
 total energy-change (2. order) :-0.1473862E-01  (-0.1473074E-01)
 number of electron      95.0000001 magnetization 
 augmentation part        6.8954034 magnetization 

 Broyden mixing:
  rms(total) = 0.21994E+01    rms(broyden)= 0.21990E+01
  rms(prec ) = 0.22578E+01
  weight for this iteration     100.00

 Free energy of the ion-electron system (eV)
  ---------------------------------------------------
  alpha Z        PSCENC =       116.61439475
  Ewald energy   TEWEN  =     18251.51925033
  -Hartree energ DENC   =    -22953.80568029
  -exchange      EXHF   =         0.00000000
  -V(xc)+E(xc)   XCENC  =      -420.64693656
  PAW double counting   =      4235.41334458    -3509.29226066
  entropy T*S    EENTRO =        -0.00850597
  eigenvalues    EBANDS =      -363.66262424
  atomic energy  EATOM  =      4496.35971583
  ---------------------------------------------------
  free energy    TOTEN  =      -147.50930224 eV

  energy without entropy =     -147.50079627  energy(sigma->0) =     -147.50504925


--------------------------------------------------------------------------------------------------------




----------------------------------------- Iteration    1(   6)  ---------------------------------------


    POTLOK:  cpu time    0.11: real time    0.11
    SETDIJ:  cpu time    0.10: real time    0.10
     EDDAV:  cpu time    4.81: real time    4.82
       DOS:  cpu time    0.00: real time    0.00
    CHARGE:  cpu time    0.38: real time    0.38
    MIXING:  cpu time    0.00: real time    0.00
    --------------------------------------------
      LOOP:  cpu time    5.41: real time    5.42

 eigenvalue-minimisations  :  2972
 total energy-change (2. order) : 0.1494693E+02  (-0.8527008E+01)
 number of electron      95.0000001 magnetization 
 augmentation part        5.5545282 magnetization 

 Broyden mixing:
  rms(total) = 0.75052E+00    rms(broyden)= 0.74964E+00
  rms(prec ) = 0.75763E+00
  weight for this iteration     100.00

 eigenvalues of (default mixing * dielectric matrix)
  average eigenvalue GAMMA=   0.8335
  0.8335

 Free energy of the ion-electron system (eV)
  ---------------------------------------------------
  alpha Z        PSCENC =       116.61439475
  Ewald energy   TEWEN  =     18251.51925033
  -Hartree energ DENC   =    -23129.94748260
  -exchange      EXHF   =         0.00000000
  -V(xc)+E(xc)   XCENC  =      -408.44292620
  PAW double counting   =      4994.20006260    -4271.15646652
  entropy T*S    EENTRO =        -0.00492234
  eigenvalues    EBANDS =      -181.70399812
  atomic energy  EATOM  =      4496.35971583
  ---------------------------------------------------
  free energy    TOTEN  =      -132.56237226 eV

  energy without entropy =     -132.55744992  energy(sigma->0) =     -132.55991109


--------------------------------------------------------------------------------------------------------




----------------------------------------- Iteration    1(   7)  ---------------------------------------


    POTLOK:  cpu time    0.10: real time    0.10
    SETDIJ:  cpu time    0.10: real time    0.10
     EDDAV:  cpu time    4.68: real time    4.68
       DOS:  cpu time    0.00: real time    0.00
    CHARGE:  cpu time    0.38: real time    0.38
    MIXING:  cpu time    0.00: real time    0.00
    --------------------------------------------
      LOOP:  cpu time    5.27: real time    5.28

 eigenvalue-minimisations  :  2858
 total energy-change (2. order) : 0.1330089E+00  (-0.1748873E+00)
 number of electron      95.0000001 magnetization 
 augmentation part        5.6044234 magnetization 

 Broyden mixing:
  rms(total) = 0.45318E+00    rms(broyden)= 0.45317E+00
  rms(prec ) = 0.45768E+00
  weight for this iteration     100.00

 eigenvalues of (default mixing * dielectric matrix)
  average eigenvalue GAMMA=   1.6445
  0.9669  2.3221

 Free energy of the ion-electron system (eV)
  ---------------------------------------------------
  alpha Z        PSCENC =       116.61439475
  Ewald energy   TEWEN  =     18251.51925033
  -Hartree energ DENC   =    -23127.33849905
  -exchange      EXHF   =         0.00000000
  -V(xc)+E(xc)   XCENC  =      -408.19987166
  PAW double counting   =      5240.87467383    -4517.36508874
  entropy T*S    EENTRO =        -0.00389710
  eigenvalues    EBANDS =      -184.89004153
  atomic energy  EATOM  =      4496.35971583
  ---------------------------------------------------
  free energy    TOTEN  =      -132.42936335 eV

  energy without entropy =     -132.42546625  energy(sigma->0) =     -132.42741480


--------------------------------------------------------------------------------------------------------




----------------------------------------- Iteration    1(   8)  ---------------------------------------


    POTLOK:  cpu time    0.10: real time    0.10
    SETDIJ:  cpu time    0.10: real time    0.10
     EDDAV:  cpu time    4.90: real time    4.91
       DOS:  cpu time    0.00: real time    0.00
    CHARGE:  cpu time    0.38: real time    0.38
    MIXING:  cpu time    0.01: real time    0.01
    --------------------------------------------
      LOOP:  cpu time    5.50: real time    5.50

 eigenvalue-minimisations  :  3042
 total energy-change (2. order) : 0.8709979E-01  (-0.4918256E-01)
 number of electron      95.0000001 magnetization 
 augmentation part        5.6488596 magnetization 

 Broyden mixing:
  rms(total) = 0.79897E-01    rms(broyden)= 0.79860E-01
  rms(prec ) = 0.10822E+00
  weight for this iteration     100.00

 eigenvalues of (default mixing * dielectric matrix)
  average eigenvalue GAMMA=   1.3764
  2.4363  0.9091  0.7838

 Free energy of the ion-electron system (eV)
  ---------------------------------------------------
  alpha Z        PSCENC =       116.61439475
  Ewald energy   TEWEN  =     18251.51925033
  -Hartree energ DENC   =    -23133.48476162
  -exchange      EXHF   =         0.00000000
  -V(xc)+E(xc)   XCENC  =      -406.86675251
  PAW double counting   =      5675.08334119    -4951.24533663
  entropy T*S    EENTRO =        -0.00208865
  eigenvalues    EBANDS =      -180.32002624
  atomic energy  EATOM  =      4496.35971583
  ---------------------------------------------------
  free energy    TOTEN  =      -132.34226355 eV

  energy without entropy =     -132.34017490  energy(sigma->0) =     -132.34121923


--------------------------------------------------------------------------------------------------------




----------------------------------------- Iteration    1(   9)  ---------------------------------------


    POTLOK:  cpu time    0.10: real time    0.10
    SETDIJ:  cpu time    0.10: real time    0.10
     EDDAV:  cpu time    4.81: real time    4.82
       DOS:  cpu time    0.00: real time    0.00
    CHARGE:  cpu time    0.39: real time    0.39
    MIXING:  cpu time    0.01: real time    0.01
    --------------------------------------------
      LOOP:  cpu time    5.42: real time    5.42

 eigenvalue-minimisations  :  2966
 total energy-change (2. order) : 0.2998555E-01  (-0.9388883E-02)
 number of electron      95.0000001 magnetization 
 augmentation part        5.6318615 magnetization 

 Broyden mixing:
  rms(total) = 0.42167E-01    rms(broyden)= 0.42167E-01
  rms(prec ) = 0.42879E-01
  weight for this iteration     100.00

 eigenvalues of (default mixing * dielectric matrix)
  average eigenvalue GAMMA=   1.4387
  2.5366  1.4853  0.9501  0.7829

 Free energy of the ion-electron system (eV)
  ---------------------------------------------------
  alpha Z        PSCENC =       116.61439475
  Ewald energy   TEWEN  =     18251.51925033
  -Hartree energ DENC   =    -23137.19002451
  -exchange      EXHF   =         0.00000000
  -V(xc)+E(xc)   XCENC  =      -406.52875178
  PAW double counting   =      5701.68272876    -4977.87282549
  entropy T*S    EENTRO =        -0.00338315
  eigenvalues    EBANDS =      -176.89338274
  atomic energy  EATOM  =      4496.35971583
  ---------------------------------------------------
  free energy    TOTEN  =      -132.31227801 eV

  energy without entropy =     -132.30889486  energy(sigma->0) =     -132.31058643


--------------------------------------------------------------------------------------------------------




----------------------------------------- Iteration    1(  10)  ---------------------------------------


    POTLOK:  cpu time    0.11: real time    0.11
    SETDIJ:  cpu time    0.11: real time    0.11
     EDDAV:  cpu time    4.82: real time    4.83
       DOS:  cpu time    0.00: real time    0.00
    CHARGE:  cpu time    0.38: real time    0.38
    MIXING:  cpu time    0.00: real time    0.00
    --------------------------------------------
      LOOP:  cpu time    5.42: real time    5.43

 eigenvalue-minimisations  :  2946
 total energy-change (2. order) :-0.1269655E-02  (-0.4089828E-02)
 number of electron      95.0000001 magnetization 
 augmentation part        5.6097991 magnetization 

 Broyden mixing:
  rms(total) = 0.27917E-01    rms(broyden)= 0.27902E-01
  rms(prec ) = 0.28278E-01
  weight for this iteration     100.00

 eigenvalues of (default mixing * dielectric matrix)
  average eigenvalue GAMMA=   1.2686
  2.5190  1.6417  0.8635  0.8635  0.4556

 Free energy of the ion-electron system (eV)
  ---------------------------------------------------
  alpha Z        PSCENC =       116.61439475
  Ewald energy   TEWEN  =     18251.51925033
  -Hartree energ DENC   =    -23139.92192893
  -exchange      EXHF   =         0.00000000
  -V(xc)+E(xc)   XCENC  =      -406.29100719
  PAW double counting   =      5687.40229906    -4963.63600825
  entropy T*S    EENTRO =        -0.00345282
  eigenvalues    EBANDS =      -174.35681044
  atomic energy  EATOM  =      4496.35971583
  ---------------------------------------------------
  free energy    TOTEN  =      -132.31354766 eV

  energy without entropy =     -132.31009484  energy(sigma->0) =     -132.31182125


--------------------------------------------------------------------------------------------------------




----------------------------------------- Iteration    1(  11)  ---------------------------------------


    POTLOK:  cpu time    0.11: real time    0.11
    SETDIJ:  cpu time    0.10: real time    0.10
     EDDAV:  cpu time    4.82: real time    4.82
       DOS:  cpu time    0.00: real time    0.00
    CHARGE:  cpu time    0.37: real time    0.37
    MIXING:  cpu time    0.01: real time    0.01
    --------------------------------------------
      LOOP:  cpu time    5.40: real time    5.41

 eigenvalue-minimisations  :  3034
 total energy-change (2. order) : 0.2909330E-03  (-0.2870348E-03)
 number of electron      95.0000001 magnetization 
 augmentation part        5.6144127 magnetization 

 Broyden mixing:
  rms(total) = 0.17163E-01    rms(broyden)= 0.17163E-01
  rms(prec ) = 0.17398E-01
  weight for this iteration     100.00

 eigenvalues of (default mixing * dielectric matrix)
  average eigenvalue GAMMA=   1.4405
  2.8664  2.3182  0.9775  0.6871  0.8968  0.8968

 Free energy of the ion-electron system (eV)
  ---------------------------------------------------
  alpha Z        PSCENC =       116.61439475
  Ewald energy   TEWEN  =     18251.51925033
  -Hartree energ DENC   =    -23139.48323903
  -exchange      EXHF   =         0.00000000
  -V(xc)+E(xc)   XCENC  =      -406.30897591
  PAW double counting   =      5670.12565964    -4946.35672408
  entropy T*S    EENTRO =        -0.00344752
  eigenvalues    EBANDS =      -174.77989075
  atomic energy  EATOM  =      4496.35971583
  ---------------------------------------------------
  free energy    TOTEN  =      -132.31325673 eV

  energy without entropy =     -132.30980921  energy(sigma->0) =     -132.31153297


--------------------------------------------------------------------------------------------------------




----------------------------------------- Iteration    1(  12)  ---------------------------------------


    POTLOK:  cpu time    0.10: real time    0.10
    SETDIJ:  cpu time    0.10: real time    0.10
     EDDAV:  cpu time    5.43: real time    5.44
       DOS:  cpu time    0.00: real time    0.00
    CHARGE:  cpu time    0.38: real time    0.38
    MIXING:  cpu time    0.01: real time    0.01
    --------------------------------------------
      LOOP:  cpu time    6.02: real time    6.03

 eigenvalue-minimisations  :  3570
 total energy-change (2. order) :-0.2193701E-03  (-0.2842230E-03)
 number of electron      95.0000001 magnetization 
 augmentation part        5.6153962 magnetization 

 Broyden mixing:
  rms(total) = 0.58328E-02    rms(broyden)= 0.58268E-02
  rms(prec ) = 0.61667E-02
  weight for this iteration     100.00

 eigenvalues of (default mixing * dielectric matrix)
  average eigenvalue GAMMA=   1.3962
  2.9244  2.5224  0.9752  0.9752  0.8764  0.8764  0.6234

 Free energy of the ion-electron system (eV)
  ---------------------------------------------------
  alpha Z        PSCENC =       116.61439475
  Ewald energy   TEWEN  =     18251.51925033
  -Hartree energ DENC   =    -23139.76759734
  -exchange      EXHF   =         0.00000000
  -V(xc)+E(xc)   XCENC  =      -406.27179602
  PAW double counting   =      5643.32462168    -4919.56976985
  entropy T*S    EENTRO =        -0.00344595
  eigenvalues    EBANDS =      -174.51884952
  atomic energy  EATOM  =      4496.35971583
  ---------------------------------------------------
  free energy    TOTEN  =      -132.31347610 eV

  energy without entropy =     -132.31003015  energy(sigma->0) =     -132.31175313


--------------------------------------------------------------------------------------------------------




----------------------------------------- Iteration    1(  13)  ---------------------------------------


    POTLOK:  cpu time    0.10: real time    0.10
    SETDIJ:  cpu time    0.10: real time    0.10
     EDDAV:  cpu time    4.84: real time    4.85
       DOS:  cpu time    0.00: real time    0.00
    CHARGE:  cpu time    0.38: real time    0.39
    MIXING:  cpu time    0.00: real time    0.00
    --------------------------------------------
      LOOP:  cpu time    5.44: real time    5.45

 eigenvalue-minimisations  :  2970
 total energy-change (2. order) : 0.2646506E-04  (-0.6857668E-04)
 number of electron      95.0000001 magnetization 
 augmentation part        5.6170587 magnetization 

 Broyden mixing:
  rms(total) = 0.36398E-02    rms(broyden)= 0.36390E-02
  rms(prec ) = 0.40373E-02
  weight for this iteration     100.00

 eigenvalues of (default mixing * dielectric matrix)
  average eigenvalue GAMMA=   1.3852
  2.9060  2.5854  0.9902  0.9902  1.1412  1.0190  0.6565  0.7934

 Free energy of the ion-electron system (eV)
  ---------------------------------------------------
  alpha Z        PSCENC =       116.61439475
  Ewald energy   TEWEN  =     18251.51925033
  -Hartree energ DENC   =    -23139.56960889
  -exchange      EXHF   =         0.00000000
  -V(xc)+E(xc)   XCENC  =      -406.29051016
  PAW double counting   =      5636.43266091    -4912.67638345
  entropy T*S    EENTRO =        -0.00344436
  eigenvalues    EBANDS =      -174.69952460
  atomic energy  EATOM  =      4496.35971583
  ---------------------------------------------------
  free energy    TOTEN  =      -132.31344963 eV

  energy without entropy =     -132.31000528  energy(sigma->0) =     -132.31172746


--------------------------------------------------------------------------------------------------------




----------------------------------------- Iteration    1(  14)  ---------------------------------------


    POTLOK:  cpu time    0.10: real time    0.10
    SETDIJ:  cpu time    0.10: real time    0.10
     EDDAV:  cpu time    4.68: real time    4.69
       DOS:  cpu time    0.00: real time    0.00
    CHARGE:  cpu time    0.38: real time    0.38
    MIXING:  cpu time    0.00: real time    0.00
    --------------------------------------------
      LOOP:  cpu time    5.28: real time    5.28

 eigenvalue-minimisations  :  2882
 total energy-change (2. order) : 0.3446669E-04  (-0.1960271E-04)
 number of electron      95.0000001 magnetization 
 augmentation part        5.6172333 magnetization 

 Broyden mixing:
  rms(total) = 0.14100E-02    rms(broyden)= 0.14081E-02
  rms(prec ) = 0.20897E-02
  weight for this iteration     100.00

 eigenvalues of (default mixing * dielectric matrix)
  average eigenvalue GAMMA=   1.3914
  2.8428  2.3538  1.8951  0.9485  0.9485  0.6432  0.9377  0.9767  0.9767

 Free energy of the ion-electron system (eV)
  ---------------------------------------------------
  alpha Z        PSCENC =       116.61439475
  Ewald energy   TEWEN  =     18251.51925033
  -Hartree energ DENC   =    -23139.63607889
  -exchange      EXHF   =         0.00000000
  -V(xc)+E(xc)   XCENC  =      -406.29223967
  PAW double counting   =      5636.15759261    -4912.40004689
  entropy T*S    EENTRO =        -0.00344371
  eigenvalues    EBANDS =      -174.63255952
  atomic energy  EATOM  =      4496.35971583
  ---------------------------------------------------
  free energy    TOTEN  =      -132.31341517 eV

  energy without entropy =     -132.30997146  energy(sigma->0) =     -132.31169331


--------------------------------------------------------------------------------------------------------




----------------------------------------- Iteration    1(  15)  ---------------------------------------


    POTLOK:  cpu time    0.10: real time    0.10
    SETDIJ:  cpu time    0.10: real time    0.10
     EDDAV:  cpu time    4.64: real time    4.65
       DOS:  cpu time    0.00: real time    0.00
    CHARGE:  cpu time    0.40: real time    0.40
    MIXING:  cpu time    0.01: real time    0.01
    --------------------------------------------
      LOOP:  cpu time    5.25: real time    5.26

 eigenvalue-minimisations  :  2774
 total energy-change (2. order) : 0.2366601E-04  (-0.4751839E-05)
 number of electron      95.0000001 magnetization 
 augmentation part        5.6164190 magnetization 

 Broyden mixing:
  rms(total) = 0.10607E-02    rms(broyden)= 0.10604E-02
  rms(prec ) = 0.17541E-02
  weight for this iteration     100.00

 eigenvalues of (default mixing * dielectric matrix)
  average eigenvalue GAMMA=   1.3922
  2.8678  2.4217  2.2887  0.9631  0.9631  0.6458  0.9751  0.9751  0.9110  0.9110

 Free energy of the ion-electron system (eV)
  ---------------------------------------------------
  alpha Z        PSCENC =       116.61439475
  Ewald energy   TEWEN  =     18251.51925033
  -Hartree energ DENC   =    -23139.85130148
  -exchange      EXHF   =         0.00000000
  -V(xc)+E(xc)   XCENC  =      -406.28467405
  PAW double counting   =      5637.86770456    -4914.11120391
  entropy T*S    EENTRO =        -0.00344497
  eigenvalues    EBANDS =      -174.42383256
  atomic energy  EATOM  =      4496.35971583
  ---------------------------------------------------
  free energy    TOTEN  =      -132.31339150 eV

  energy without entropy =     -132.30994653  energy(sigma->0) =     -132.31166902


--------------------------------------------------------------------------------------------------------




----------------------------------------- Iteration    1(  16)  ---------------------------------------


    POTLOK:  cpu time    0.11: real time    0.11
    SETDIJ:  cpu time    0.11: real time    0.11
     EDDAV:  cpu time    3.42: real time    3.42
       DOS:  cpu time    0.00: real time    0.00
    CHARGE:  cpu time    0.38: real time    0.38
    MIXING:  cpu time    0.01: real time    0.01
    --------------------------------------------
      LOOP:  cpu time    4.02: real time    4.03

 eigenvalue-minimisations  :  1750
 total energy-change (2. order) : 0.1855870E-04  (-0.3991893E-06)
 number of electron      95.0000001 magnetization 
 augmentation part        5.6164093 magnetization 

 Broyden mixing:
  rms(total) = 0.82748E-03    rms(broyden)= 0.82746E-03
  rms(prec ) = 0.15397E-02
  weight for this iteration     100.00

 eigenvalues of (default mixing * dielectric matrix)
  average eigenvalue GAMMA=   1.4466
  2.9604  2.7115  2.3378  1.4692  0.9790  0.9790  0.6452  0.9791  0.9791  0.9359
  0.9359

 Free energy of the ion-electron system (eV)
  ---------------------------------------------------
  alpha Z        PSCENC =       116.61439475
  Ewald energy   TEWEN  =     18251.51925033
  -Hartree energ DENC   =    -23139.93970739
  -exchange      EXHF   =         0.00000000
  -V(xc)+E(xc)   XCENC  =      -406.28575040
  PAW double counting   =      5637.35119602    -4913.59439513
  entropy T*S    EENTRO =        -0.00344551
  eigenvalues    EBANDS =      -174.33463143
  atomic energy  EATOM  =      4496.35971583
  ---------------------------------------------------
  free energy    TOTEN  =      -132.31337294 eV

  energy without entropy =     -132.30992743  energy(sigma->0) =     -132.31165019


--------------------------------------------------------------------------------------------------------




----------------------------------------- Iteration    1(  17)  ---------------------------------------


    POTLOK:  cpu time    0.11: real time    0.11
    SETDIJ:  cpu time    0.11: real time    0.11
     EDDAV:  cpu time    4.94: real time    4.95
       DOS:  cpu time    0.00: real time    0.00
    CHARGE:  cpu time    0.38: real time    0.38
    MIXING:  cpu time    0.01: real time    0.01
    --------------------------------------------
      LOOP:  cpu time    5.54: real time    5.55

 eigenvalue-minimisations  :  3048
 total energy-change (2. order) : 0.4870598E-04  (-0.5832180E-05)
 number of electron      95.0000001 magnetization 
 augmentation part        5.6166395 magnetization 

 Broyden mixing:
  rms(total) = 0.64266E-03    rms(broyden)= 0.64224E-03
  rms(prec ) = 0.11548E-02
  weight for this iteration     100.00

 eigenvalues of (default mixing * dielectric matrix)
  average eigenvalue GAMMA=   1.3816
  3.0522  2.7901  2.3199  1.5781  0.9710  0.9710  0.9952  0.9952  0.9003  0.9003
  0.6456  0.4596

 Free energy of the ion-electron system (eV)
  ---------------------------------------------------
  alpha Z        PSCENC =       116.61439475
  Ewald energy   TEWEN  =     18251.51925033
  -Hartree energ DENC   =    -23140.20275727
  -exchange      EXHF   =         0.00000000
  -V(xc)+E(xc)   XCENC  =      -406.29109023
  PAW double counting   =      5636.81899885    -4913.06054099
  entropy T*S    EENTRO =        -0.00344742
  eigenvalues    EBANDS =      -174.06784808
  atomic energy  EATOM  =      4496.35971583
  ---------------------------------------------------
  free energy    TOTEN  =      -132.31332424 eV

  energy without entropy =     -132.30987682  energy(sigma->0) =     -132.31160053


--------------------------------------------------------------------------------------------------------




----------------------------------------- Iteration    1(  18)  ---------------------------------------


    POTLOK:  cpu time    0.10: real time    0.10
    SETDIJ:  cpu time    0.10: real time    0.10
     EDDAV:  cpu time    5.18: real time    5.19
       DOS:  cpu time    0.00: real time    0.00
    CHARGE:  cpu time    0.38: real time    0.38
    MIXING:  cpu time    0.01: real time    0.01
    --------------------------------------------
      LOOP:  cpu time    5.77: real time    5.78

 eigenvalue-minimisations  :  3278
 total energy-change (2. order) : 0.2393679E-04  (-0.8454073E-05)
 number of electron      95.0000001 magnetization 
 augmentation part        5.6169287 magnetization 

 Broyden mixing:
  rms(total) = 0.11834E-02    rms(broyden)= 0.11831E-02
  rms(prec ) = 0.13239E-02
  weight for this iteration     100.00

 eigenvalues of (default mixing * dielectric matrix)
  average eigenvalue GAMMA=   1.3782
  3.1648  2.7792  2.3396  1.5672  0.9703  0.9703  0.6454  0.9597  0.9597  0.9485
  0.9485  0.8320  0.8320

 Free energy of the ion-electron system (eV)
  ---------------------------------------------------
  alpha Z        PSCENC =       116.61439475
  Ewald energy   TEWEN  =     18251.51925033
  -Hartree energ DENC   =    -23140.50837229
  -exchange      EXHF   =         0.00000000
  -V(xc)+E(xc)   XCENC  =      -406.29290245
  PAW double counting   =      5636.71463227    -4912.95550457
  entropy T*S    EENTRO =        -0.00344991
  eigenvalues    EBANDS =      -173.76106425
  atomic energy  EATOM  =      4496.35971583
  ---------------------------------------------------
  free energy    TOTEN  =      -132.31330030 eV

  energy without entropy =     -132.30985039  energy(sigma->0) =     -132.31157534


--------------------------------------------------------------------------------------------------------




----------------------------------------- Iteration    1(  19)  ---------------------------------------


    POTLOK:  cpu time    0.11: real time    0.11
    SETDIJ:  cpu time    0.10: real time    0.10
     EDDAV:  cpu time    4.53: real time    4.54
       DOS:  cpu time    0.00: real time    0.00
    CHARGE:  cpu time    0.38: real time    0.38
    MIXING:  cpu time    0.01: real time    0.01
    --------------------------------------------
      LOOP:  cpu time    5.13: real time    5.14

 eigenvalue-minimisations  :  2736
 total energy-change (2. order) : 0.1009253E-04  (-0.5033751E-05)
 number of electron      95.0000001 magnetization 
 augmentation part        5.6167392 magnetization 

 Broyden mixing:
  rms(total) = 0.52821E-03    rms(broyden)= 0.52810E-03
  rms(prec ) = 0.58602E-03
  weight for this iteration     100.00

 eigenvalues of (default mixing * dielectric matrix)
  average eigenvalue GAMMA=   1.4689
  3.3462  2.9049  2.2049  1.6179  1.6179  1.7464  0.9736  0.9736  1.0210  1.0210
  0.8894  0.8894  0.6450  0.7133

 Free energy of the ion-electron system (eV)
  ---------------------------------------------------
  alpha Z        PSCENC =       116.61439475
  Ewald energy   TEWEN  =     18251.51925033
  -Hartree energ DENC   =    -23140.74809353
  -exchange      EXHF   =         0.00000000
  -V(xc)+E(xc)   XCENC  =      -406.29014070
  PAW double counting   =      5636.92520090    -4913.16704301
  entropy T*S    EENTRO =        -0.00345223
  eigenvalues    EBANDS =      -173.52312255
  atomic energy  EATOM  =      4496.35971583
  ---------------------------------------------------
  free energy    TOTEN  =      -132.31329021 eV

  energy without entropy =     -132.30983798  energy(sigma->0) =     -132.31156409


--------------------------------------------------------------------------------------------------------




----------------------------------------- Iteration    1(  20)  ---------------------------------------


    POTLOK:  cpu time    0.10: real time    0.10
    SETDIJ:  cpu time    0.10: real time    0.10
     EDDAV:  cpu time    4.03: real time    4.03
       DOS:  cpu time    0.00: real time    0.00
    --------------------------------------------
      LOOP:  cpu time    4.23: real time    4.24

 eigenvalue-minimisations  :  2316
 total energy-change (2. order) : 0.1831822E-06  (-0.2391671E-05)
 number of electron      95.0000001 magnetization 
 augmentation part        5.6167392 magnetization 

 Free energy of the ion-electron system (eV)
  ---------------------------------------------------
  alpha Z        PSCENC =       116.61439475
  Ewald energy   TEWEN  =     18251.51925033
  -Hartree energ DENC   =    -23140.82993584
  -exchange      EXHF   =         0.00000000
  -V(xc)+E(xc)   XCENC  =      -406.28999758
  PAW double counting   =      5637.03081648    -4913.27313544
  entropy T*S    EENTRO =        -0.00345254
  eigenvalues    EBANDS =      -173.44094601
  atomic energy  EATOM  =      4496.35971583
  ---------------------------------------------------
  free energy    TOTEN  =      -132.31329002 eV

  energy without entropy =     -132.30983748  energy(sigma->0) =     -132.31156375


--------------------------------------------------------------------------------------------------------




 average (electrostatic) potential at core
  the test charge radii are     0.7215  1.0714  1.0406
  (the norm of the test charge is              1.0000)
       1 -70.4417       2 -70.4526       3 -70.4628       4 -70.4499       5 -70.4342
       6 -70.5300       7 -70.5302       8 -70.4562       9 -70.4422      10 -36.4440
      11 -36.1333      12 -36.1249      13 -36.4441      14 -36.1227      15 -36.1295
      16 -36.1226      17 -36.1260      18 -36.1327      19 -36.1131      20 -75.0062
      21 -75.0361      22 -74.9631      23 -74.9353      24 -75.0361      25 -74.9353
      26 -74.9632
 
 
 
 E-fermi :   5.8371     XC(G=0): -10.0383     alpha+bet :-11.8305


 k-point     1 :       0.0000    0.0000    0.0000
  band No.  band energies     occupation 
      1     -14.6690      2.00000
      2     -14.5966      2.00000
      3     -14.4990      2.00000
      4     -14.3635      2.00000
      5     -14.2083      2.00000
      6     -14.0381      2.00000
      7     -13.8785      2.00000
      8     -13.7430      2.00000
      9     -13.6614      2.00000
     10      -4.0998      2.00000
     11      -3.7878      2.00000
     12      -3.2206      2.00000
     13      -2.5397      2.00000
     14      -2.1738      2.00000
     15      -2.0097      2.00000
     16      -1.7125      2.00000
     17      -1.6898      2.00000
     18      -1.2290      2.00000
     19      -0.8181      2.00000
     20      -0.4925      2.00000
     21      -0.1161      2.00000
     22       0.5977      2.00000
     23       0.5990      2.00000
     24       1.3081      2.00000
     25       1.7769      2.00000
     26       1.8866      2.00000
     27       1.8866      2.00000
     28       1.9306      2.00000
     29       1.9306      2.00000
     30       1.9805      2.00000
     31       1.9805      2.00000
     32       2.0508      2.00000
     33       2.0508      2.00000
     34       2.1113      2.00000
     35       2.1278      2.00000
     36       2.1278      2.00000
     37       2.2138      2.00000
     38       2.2138      2.00000
     39       2.2901      2.00000
     40       2.2901      2.00000
     41       2.3564      2.00000
     42       2.3564      2.00000
     43       2.3903      2.00000
     44       2.3903      2.00000
     45       2.9200      2.00000
     46       3.7404      2.00000
     47       4.7586      2.00000
     48       6.0913      0.00000
     49       6.6544      0.00000
     50       7.2628      0.00000
     51       7.3930      0.00000
     52       8.1933      0.00000
     53       8.3869      0.00000
     54       9.2147      0.00000
     55       9.2231      0.00000
     56       9.8425      0.00000
     57       9.8853      0.00000
     58      10.0836      0.00000
     59      10.5291      0.00000
     60      11.9643      0.00000
     61      13.4188      0.00000
     62      13.7846      0.00000

 k-point     2 :       0.0769    0.0000   -0.0000
  band No.  band energies     occupation 
      1     -14.6167      2.00000
      2     -14.5457      2.00000
      3     -14.4506      2.00000
      4     -14.3185      2.00000
      5     -14.1672      2.00000
      6     -14.0015      2.00000
      7     -13.8465      2.00000
      8     -13.7148      2.00000
      9     -13.6360      2.00000
     10      -3.9696      2.00000
     11      -3.6577      2.00000
     12      -3.0910      2.00000
     13      -2.4111      2.00000
     14      -2.0924      2.00000
     15      -1.9294      2.00000
     16      -1.6226      2.00000
     17      -1.5927      2.00000
     18      -1.1758      2.00000
     19      -0.7620      2.00000
     20      -0.4014      2.00000
     21      -0.1144      2.00000
     22       0.5535      2.00000
     23       0.6955      2.00000
     24       1.2175      2.00000
     25       1.6454      2.00000
     26       1.6569      2.00000
     27       1.7051      2.00000
     28       1.7670      2.00000
     29       1.8427      2.00000
     30       1.8458      2.00000
     31       1.8870      2.00000
     32       1.9355      2.00000
     33       1.9373      2.00000
     34       1.9998      2.00000
     35       2.0082      2.00000
     36       2.0571      2.00000
     37       2.0860      2.00000
     38       2.1130      2.00000
     39       2.1505      2.00000
     40       2.1727      2.00000
     41       2.2097      2.00000
     42       2.2498      2.00000
     43       2.3167      2.00000
     44       2.3510      2.00000
     45       3.0503      2.00000
     46       3.8771      2.00000
     47       4.9040      2.00000
     48       6.2540      0.00000
     49       6.9841      0.00000
     50       7.5249      0.00000
     51       7.5976      0.00000
     52       8.3820      0.00000
     53       8.6038      0.00000
     54       9.4253      0.00000
     55       9.4272      0.00000
     56      10.0880      0.00000
     57      10.1325      0.00000
     58      10.3636      0.00000
     59      10.7003      0.00000
     60      12.0364      0.00000
     61      13.3989      0.00000
     62      13.7207      0.00000

 k-point     3 :       0.1538   -0.0000   -0.0000
  band No.  band energies     occupation 
      1     -14.4666      2.00000
      2     -14.4002      2.00000
      3     -14.3125      2.00000
      4     -14.1904      2.00000
      5     -14.0512      2.00000
      6     -13.8986      2.00000
      7     -13.7567      2.00000
      8     -13.6364      2.00000
      9     -13.5654      2.00000
     10      -3.5795      2.00000
     11      -3.2683      2.00000
     12      -2.7027      2.00000
     13      -2.0274      2.00000
     14      -1.8563      2.00000
     15      -1.7048      2.00000
     16      -1.4373      2.00000
     17      -1.2497      2.00000
     18      -1.0210      2.00000
     19      -0.6755      2.00000
     20      -0.1730      2.00000
     21      -0.0969      2.00000
     22       0.3468      2.00000
     23       0.6923      2.00000
     24       1.0211      2.00000
     25       1.0701      2.00000
     26       1.1144      2.00000
     27       1.1428      2.00000
     28       1.2307      2.00000
     29       1.2632      2.00000
     30       1.4195      2.00000
     31       1.5651      2.00000
     32       1.7227      2.00000
     33       1.7242      2.00000
     34       1.7692      2.00000
     35       1.8206      2.00000
     36       1.8453      2.00000
     37       1.8931      2.00000
     38       1.9436      2.00000
     39       1.9725      2.00000
     40       2.0610      2.00000
     41       2.1399      2.00000
     42       2.2083      2.00000
     43       2.2435      2.00000
     44       2.5045      2.00000
     45       3.3761      2.00000
     46       4.2252      2.00000
     47       5.2795      2.00000
     48       6.6625      0.00000
     49       7.7413      0.00000
     50       8.0830      0.00000
     51       8.1834      0.00000
     52       8.8677      0.00000
     53       9.1390      0.00000
     54       9.8896      0.00000
     55       9.9492      0.00000
     56      10.6722      0.00000
     57      10.7075      0.00000
     58      11.0510      0.00000
     59      11.0731      0.00000
     60      11.1622      0.00000
     61      11.4094      0.00000
     62      11.7460      0.00000

 k-point     4 :       0.2308    0.0000   -0.0000
  band No.  band energies     occupation 
      1     -14.2407      2.00000
      2     -14.1818      2.00000
      3     -14.1063      2.00000
      4     -14.0007      2.00000
      5     -13.8810      2.00000
      6     -13.7497      2.00000
      7     -13.6288      2.00000
      8     -13.5262      2.00000
      9     -13.4674      2.00000
     10      -2.9314      2.00000
     11      -2.6214      2.00000
     12      -2.0580      2.00000
     13      -1.5100      2.00000
     14      -1.4002      2.00000
     15      -1.3741      2.00000
     16      -1.1939      2.00000
     17      -0.9904      2.00000
     18      -0.7229      2.00000
     19      -0.5909      2.00000
     20      -0.4123      2.00000
     21      -0.1977      2.00000
     22       0.0291      2.00000
     23       0.2123      2.00000
     24       0.3108      2.00000
     25       0.3582      2.00000
     26       0.5225      2.00000
     27       0.5630      2.00000
     28       0.7662      2.00000
     29       1.0054      2.00000
     30       1.2652      2.00000
     31       1.4905      2.00000
     32       1.5648      2.00000
     33       1.6104      2.00000
     34       1.6433      2.00000
     35       1.6630      2.00000
     36       1.7371      2.00000
     37       1.7425      2.00000
     38       1.8184      2.00000
     39       1.8222      2.00000
     40       1.9089      2.00000
     41       1.9897      2.00000
     42       2.0597      2.00000
     43       2.0961      2.00000
     44       3.0492      2.00000
     45       3.9033      2.00000
     46       4.7601      2.00000
     47       5.8395      0.94420
     48       7.2195      0.00000
     49       8.3471      0.00000
     50       8.6663      0.00000
[...]
     45       5.6269      1.99997
     46       5.6700      1.99675
     47       5.8063      0.36122
     48       6.0138      0.00000
     49       6.1804      0.00000
     50       6.5838      0.00000
     51       6.6799      0.00000
     52       6.8360      0.00000
     53       7.2637      0.00000
     54       7.3745      0.00000
     55       7.8295      0.00000
     56       8.0263      0.00000
     57       8.3870      0.00000
     58       9.0297      0.00000
     59       9.4130      0.00000
     60       9.4372      0.00000
     61      10.1320      0.00000
     62      10.4896      0.00000

 k-point    19 :       0.3077    0.2308    0.0000
  band No.  band energies     occupation 
      1     -13.5308      2.00000
      2     -13.5229      2.00000
      3     -13.4944      2.00000
      4     -13.4650      2.00000
      5     -13.4268      2.00000
      6     -13.3860      2.00000
      7     -13.3476      2.00000
      8     -13.3161      2.00000
      9     -13.2883      2.00000
     10      -1.4614      2.00000
     11      -1.3776      2.00000
     12      -1.2448      2.00000
     13      -1.2256      2.00000
     14      -1.1800      2.00000
     15      -1.1176      2.00000
     16      -1.0719      2.00000
     17      -0.9272      2.00000
     18      -0.7700      2.00000
     19      -0.3561      2.00000
     20      -0.2086      2.00000
     21      -0.0532      2.00000
     22       0.1200      2.00000
     23       0.2356      2.00000
     24       0.3058      2.00000
     25       0.3375      2.00000
     26       0.4287      2.00000
     27       0.4834      2.00000
     28       0.5602      2.00000
     29       0.6491      2.00000
     30       0.7080      2.00000
     31       0.8298      2.00000
     32       0.8493      2.00000
     33       1.0034      2.00000
     34       1.1118      2.00000
     35       1.1860      2.00000
     36       1.2869      2.00000
     37       1.3767      2.00000
     38       1.4055      2.00000
     39       1.4916      2.00000
     40       2.1137      2.00000
     41       2.9530      2.00000
     42       3.7332      2.00000
     43       3.9775      2.00000
     44       4.0848      2.00000
     45       4.6305      2.00000
     46       5.1712      2.00000
     47       5.3223      2.00000
     48       5.4675      2.00000
     49       5.6686      1.99713
     50       6.1212      0.00000
     51       6.2506      0.00000
     52       6.5241      0.00000
     53       6.9401      0.00000
     54       7.0491      0.00000
     55       7.3851      0.00000
     56       7.6385      0.00000
     57       7.9088      0.00000
     58       8.4782      0.00000
     59       8.8607      0.00000
     60       8.9141      0.00000
     61       9.4741      0.00000
     62       9.8492      0.00000

 k-point    20 :       0.3846    0.2308    0.0000
  band No.  band energies     occupation 
      1     -13.4568      2.00000
      2     -13.4444      2.00000
      3     -13.4176      2.00000
      4     -13.4069      2.00000
      5     -13.3865      2.00000
      6     -13.3638      2.00000
      7     -13.3415      2.00000
      8     -13.3225      2.00000
      9     -13.3028      2.00000
     10      -1.5412      2.00000
     11      -1.4490      2.00000
     12      -1.2931      2.00000
     13      -1.1220      2.00000
     14      -1.1071      2.00000
     15      -1.0875      2.00000
     16      -1.0425      2.00000
     17      -0.9955      2.00000
     18      -0.9875      2.00000
     19      -0.1740      2.00000
     20      -0.1481      2.00000
     21      -0.0942      2.00000
     22      -0.0379      2.00000
     23      -0.0325      2.00000
     24       0.0118      2.00000
     25       0.1442      2.00000
     26       0.3122      2.00000
     27       0.4903      2.00000
     28       0.7333      2.00000
     29       0.7610      2.00000
     30       0.9284      2.00000
     31       0.9847      2.00000
     32       1.0376      2.00000
     33       1.1482      2.00000
     34       1.2760      2.00000
     35       1.3590      2.00000
     36       1.3645      2.00000
     37       1.9878      2.00000
     38       1.9967      2.00000
     39       2.3170      2.00000
     40       2.3510      2.00000
     41       2.8706      2.00000
     42       2.9300      2.00000
     43       3.5379      2.00000
     44       3.6243      2.00000
     45       4.3047      2.00000
     46       4.6336      2.00000
     47       5.2065      2.00000
     48       5.4253      2.00000
     49       5.5488      2.00000
     50       5.6209      1.99999
     51       6.1293      0.00000
     52       6.7114      0.00000
     53       6.7736      0.00000
     54       7.1238      0.00000
     55       7.6277      0.00000
     56       7.7000      0.00000
     57       7.7719      0.00000
     58       8.0844      0.00000
     59       8.5556      0.00000
     60       8.8241      0.00000
     61       9.0015      0.00000
     62       9.4233      0.00000

 k-point    21 :       0.3077    0.3077    0.0000
  band No.  band energies     occupation 
      1     -13.4318      2.00000
      2     -13.4184      2.00000
      3     -13.3870      2.00000
      4     -13.3808      2.00000
      5     -13.3651      2.00000
      6     -13.3488      2.00000
      7     -13.3336      2.00000
      8     -13.3204      2.00000
      9     -13.3052      2.00000
     10      -1.1898      2.00000
     11      -1.1877      2.00000
     12      -1.1131      2.00000
     13      -1.1029      2.00000
     14      -1.0024      2.00000
     15      -0.9577      2.00000
     16      -0.7984      2.00000
     17      -0.7943      2.00000
     18      -0.6922      2.00000
     19      -0.6006      2.00000
     20      -0.5282      2.00000
     21      -0.3987      2.00000
     22      -0.3336      2.00000
     23      -0.2484      2.00000
     24      -0.1226      2.00000
     25      -0.1065      2.00000
     26       0.0490      2.00000
     27       0.0547      2.00000
     28       0.7380      2.00000
     29       0.7570      2.00000
     30       0.9552      2.00000
     31       1.0728      2.00000
     32       1.1306      2.00000
     33       1.1822      2.00000
     34       1.1848      2.00000
     35       1.2133      2.00000
     36       1.3243      2.00000
     37       1.8679      2.00000
     38       2.2119      2.00000
     39       2.7759      2.00000
     40       3.4409      2.00000
     41       3.4890      2.00000
     42       3.5060      2.00000
     43       3.8093      2.00000
     44       3.8349      2.00000
     45       4.2353      2.00000
     46       4.3640      2.00000
     47       4.3738      2.00000
     48       4.9452      2.00000
     49       5.1673      2.00000
     50       5.4450      2.00000
     51       5.9757      0.00000
     52       6.1723      0.00000
     53       6.7572      0.00000
     54       7.0183      0.00000
     55       7.2483      0.00000
     56       7.6344      0.00000
     57       7.9609      0.00000
     58       8.1852      0.00000
     59       8.2939      0.00000
     60       8.6361      0.00000
     61       9.1883      0.00000
     62       9.3823      0.00000


--------------------------------------------------------------------------------------------------------


 soft charge-density along one line, spin component           1
         0         1         2         3         4         5         6         7         8         9
 total charge-density along one line
 
 pseudopotential strength for first ion, spin component:           1
 12.235   0.000 -14.891   0.000  -0.000   0.000  -0.000   0.000   0.000   0.000   0.000   0.000   0.000   0.000  -0.000   0.000
-14.891   0.000  18.144   0.000   0.000   0.000   0.000   0.000  -0.000   0.000  -0.000   0.000  -0.000   0.000   0.000   0.000
 -0.000   0.000   0.000   0.000  -8.385   0.000  -0.000   0.000   0.000   0.000  10.053   0.000   0.000   0.000  -0.000   0.000
 -0.000   0.000   0.000   0.000  -0.000   0.000  -8.391   0.000   0.000   0.000   0.000   0.000  10.061   0.000  -0.000   0.000
  0.000   0.000  -0.000   0.000   0.000   0.000   0.000   0.000  -8.385   0.000  -0.000   0.000  -0.000   0.000  10.053   0.000
  0.000   0.000  -0.000   0.000  10.053   0.000   0.000   0.000  -0.000   0.000 -11.896   0.000  -0.000   0.000   0.000   0.000
  0.000   0.000  -0.000   0.000   0.000   0.000  10.061   0.000  -0.000   0.000  -0.000   0.000 -11.906   0.000   0.000   0.000
 -0.000   0.000   0.000   0.000  -0.000   0.000  -0.000   0.000  10.053   0.000   0.000   0.000   0.000   0.000 -11.896   0.000
 total augmentation occupancy for first ion, spin component:           1
  2.593   0.358   0.000   0.000  -0.000   0.000  -0.000   0.000
  0.358   0.067   0.000   0.000  -0.000   0.000  -0.000   0.000
  0.000   0.000   2.154  -0.000   0.000   0.256  -0.000   0.000
  0.000   0.000  -0.000   2.149   0.000  -0.000   0.261   0.000
 -0.000  -0.000   0.000   0.000   2.154   0.000   0.000   0.256
  0.000   0.000   0.256  -0.000   0.000   0.033  -0.000   0.000
 -0.000  -0.000  -0.000   0.261   0.000  -0.000   0.034  -0.000
  0.000   0.000   0.000   0.000   0.256   0.000  -0.000   0.033


------------------------ aborting loop because EDIFF is reached ----------------------------------------


    CHARGE:  cpu time    0.38: real time    0.38
    FORLOC:  cpu time    0.03: real time    0.03
    FORNL :  cpu time    3.14: real time    3.15
    STRESS:  cpu time    4.20: real time    4.20
    FORCOR:  cpu time    0.14: real time    0.14
    FORHAR:  cpu time    0.06: real time    0.06
    MIXING:  cpu time    0.00: real time    0.00
    OFIELD:  cpu time    0.00: real time    0.00

  FORCE on cell =-STRESS in cart. coord.  units (eV):
  Direction    XX          YY          ZZ          XY          YZ          ZX
  --------------------------------------------------------------------------------------
  Alpha Z   116.61439   116.61439   116.61439
  Ewald   21531.41399 21531.41428-23990.60688    -0.00002    -0.00003    -0.00014
  Hartree 23100.34366 23100.34359-22244.48907    -0.00000    -0.00000     0.00004
  E(xc)    -387.27342  -387.27343  -387.07359    -0.00000     0.00000    -0.00000
  Local  -45761.99063-45761.99015 45103.72649    -0.00016     0.00003     0.00004
  n-local   -26.11126   -37.69384   -32.50375     2.67046    -1.51927     4.82453
  augment    53.24948    53.24925    52.64854     0.00016     0.00000     0.00000
  Kinetic  1395.85733  1351.46716  1364.39006     2.73697    -0.33680     0.97867
  Fock        0.00000     0.00000     0.00000     0.00000     0.00000     0.00000
  -------------------------------------------------------------------------------------
  Total      -5.88261    -5.88260   -17.29379    -0.00000     0.00000    -0.00000
  in kB     -27.18216   -27.18214   -79.91059    -0.00000     0.00000    -0.00000
  external pressure =      -44.76 kB  Pullay stress =        0.00 kB


 VOLUME and BASIS-vectors are now :
 -----------------------------------------------------------------------------
  energy-cutoff  :      520.00
  volume of cell :      346.73
      direct lattice vectors                 reciprocal lattice vectors
     2.591982046 -1.496481076  0.000000000     0.385805142 -0.000000000 -0.000000000
     0.000000000  2.992962152  0.000000000     0.192902571  0.334117155  0.000000000
     0.000000000 -0.000000000 44.695451473     0.000000000  0.000000000  0.022373641

  length of vectors
     2.992962836  2.992962152 44.695451473     0.385805142  0.385805230  0.022373641


 FORCES acting on ions
    electron-ion (+dipol)            ewald-force                    non-local-force                 convergence-correction
 -----------------------------------------------------------------------------------------------
   -.208E-07 -.949E-09 0.112E+04   0.548E-07 -.486E-07 -.112E+04   -.658E-18 -.152E-19 0.407E-01   -.835E-09 0.133E-08 0.458E-01
   0.106E-02 -.184E-02 0.743E+03   0.552E-04 -.956E-04 -.743E+03   -.300E-20 0.320E-19 -.131E-01   0.126E-07 -.212E-07 0.741E-01
   0.907E-09 -.195E-09 -.130E+00   -.499E-07 0.557E-07 0.716E-01   0.792E-22 -.298E-20 0.118E-02   0.512E-09 -.565E-09 0.609E-01
   0.106E-02 -.184E-02 -.372E+03   0.552E-04 -.956E-04 0.372E+03   -.253E-19 -.639E-20 0.171E-01   0.979E-08 -.165E-07 0.122E-01
   0.324E-07 -.115E-08 -.112E+04   0.883E-07 -.116E-06 0.112E+04   -.100E-18 -.839E-18 -.773E-01   0.973E-09 -.185E-08 -.646E-01
   0.107E-02 -.185E-02 -.148E+04   0.501E-04 -.836E-04 0.148E+04   0.417E-18 0.399E-17 -.139E+01   -.548E-08 0.934E-08 -.587E-01
   -.107E-02 0.185E-02 0.148E+04   -.502E-04 0.837E-04 -.148E+04   0.131E-17 -.574E-17 0.143E+01   0.247E-08 -.447E-08 0.233E-01
   -.106E-02 0.184E-02 0.371E+03   -.552E-04 0.956E-04 -.372E+03   0.189E-19 -.181E-19 -.599E-02   -.119E-07 0.206E-07 0.830E-01
   -.106E-02 0.184E-02 -.743E+03   -.553E-04 0.957E-04 0.743E+03   0.359E-20 -.259E-19 -.313E-02   -.817E-08 0.134E-07 -.401E-01
   -.947E-05 0.254E-05 0.538E+03   0.228E-04 -.241E-04 -.538E+03   0.348E-17 0.280E-16 -.564E+00   -.345E-09 0.613E-09 0.537E-02
   0.116E-07 -.308E-07 0.186E+03   0.229E-07 -.255E-07 -.186E+03   0.413E-19 -.256E-19 -.406E-02   0.746E-09 -.129E-08 0.272E-01
   -.199E-07 0.180E-07 -.186E+03   0.286E-07 -.323E-07 0.186E+03   -.199E-19 0.146E-19 -.270E-02   -.129E-10 0.430E-10 -.501E-02
   0.946E-05 -.255E-05 -.538E+03   -.227E-04 0.240E-04 0.538E+03   0.312E-16 -.418E-16 0.560E+00   0.835E-09 -.147E-08 -.165E-01
   0.425E-04 -.736E-04 0.310E+03   -.476E-04 0.824E-04 -.310E+03   0.336E-20 0.267E-19 0.103E-02   0.754E-09 -.146E-08 0.206E-01
   0.423E-04 -.734E-04 -.620E+02   -.475E-04 0.823E-04 0.619E+02   0.116E-19 -.518E-19 -.645E-02   0.141E-08 -.264E-08 0.133E-01
   0.426E-04 -.738E-04 -.434E+03   -.477E-04 0.827E-04 0.434E+03   0.128E-18 -.240E-19 0.644E-01   -.355E-09 0.594E-09 -.213E-01
   -.425E-04 0.737E-04 0.434E+03   0.476E-04 -.826E-04 -.434E+03   0.138E-17 0.210E-19 -.563E-01   -.332E-09 0.613E-09 0.110E-01
   -.424E-04 0.734E-04 0.619E+02   0.475E-04 -.823E-04 -.619E+02   0.505E-19 -.107E-18 -.499E-02   -.106E-08 0.205E-08 0.243E-01
   -.423E-04 0.734E-04 -.310E+03   0.475E-04 -.824E-04 0.310E+03   -.351E-19 0.428E-18 0.160E-01   -.167E-08 0.300E-08 -.193E-01
   0.220E-09 -.515E-09 0.545E-02   -.541E-10 0.526E-10 0.242E-02   0.262E-20 0.346E-20 -.195E-03   0.216E-11 -.262E-11 -.773E-02
   -.310E-06 -.217E-07 0.467E+03   0.140E-05 -.127E-05 -.468E+03   0.718E-18 -.194E-18 0.520E+00   0.542E-11 -.333E-12 0.237E-02
   0.145E-04 -.252E-04 0.304E+03   -.240E-05 0.439E-05 -.304E+03   0.294E-17 -.139E-16 0.165E+00   0.161E-10 -.163E-10 -.163E-02
   -.145E-04 0.252E-04 0.154E+03   0.260E-05 -.459E-05 -.154E+03   0.888E-19 0.471E-18 -.999E-01   -.635E-11 0.161E-10 -.506E-02
   0.310E-06 0.217E-07 -.467E+03   -.140E-05 0.126E-05 0.468E+03   -.129E-16 -.276E-16 -.520E+00   -.959E-11 0.624E-11 -.174E-01
   0.145E-04 -.252E-04 -.154E+03   -.260E-05 0.459E-05 0.154E+03   0.777E-18 -.394E-17 0.996E-01   0.566E-11 -.164E-10 -.104E-01
   -.145E-04 0.252E-04 -.304E+03   0.240E-05 -.439E-05 0.304E+03   -.151E-16 0.278E-16 -.165E+00   -.151E-10 0.146E-10 -.134E-01
 -----------------------------------------------------------------------------------------------
   0.893E-07 -.145E-06 -.124E+00   -.294E-13 0.158E-14 -.682E-12   0.138E-16 -.336E-16 0.190E-02   -.809E-10 0.288E-10 0.122E+00
 
 
 POSITION                                       TOTAL-FORCE (eV/Angst)
 -----------------------------------------------------------------------------------
      0.00000     -0.00000     15.95834        -0.000000      0.000000     -0.006806
      0.86399      1.49648     18.47147         0.000000      0.000000     -0.004429
      0.00000     -0.00000     23.50001        -0.000000     -0.000000      0.003937
      0.86399      1.49648     26.01471         0.000000     -0.000000      0.008935
      0.00000     -0.00000     31.04370        -0.000000      0.000000     -0.017286
      0.86399      1.49648     33.55299         0.000000     -0.000000      0.019776
      1.72799     -0.00000     13.44747        -0.000000      0.000000     -0.002848
      1.72799     -0.00000     20.98530        -0.000000     -0.000000      0.001821
      1.72799     -0.00000     28.52947         0.000000     -0.000000     -0.004138
      0.00000     -0.00000     12.14399        -0.000000      0.000000      0.000517
      0.00000     -0.00000     19.72863        -0.000000     -0.000000      0.004876
      0.00000     -0.00000     27.27242        -0.000000      0.000000     -0.013706
      0.00000     -0.00000     34.85773        -0.000000      0.000000     -0.015238
      1.72799     -0.00000     17.21454        -0.000000     -0.000000      0.018884
      1.72799     -0.00000     24.75798        -0.000000      0.000000     -0.009241
      1.72799     -0.00000     32.29865        -0.000000      0.000000     -0.001803
      0.86399      1.49648     14.70194        -0.000000     -0.000000      0.006801
      0.86399      1.49648     22.24310        -0.000000      0.000000     -0.000122
      0.86399      1.49648     29.78518        -0.000000     -0.000000      0.010554
      0.00000     -0.00000      1.15263        -0.000000      0.000000     -0.000069
      0.00000     -0.00000      8.52577        -0.000000      0.000000     -0.010455
      1.72799     -0.00000      6.01798        -0.000000      0.000000     -0.002482
      0.86399      1.49648      3.60071        -0.000000      0.000000      0.000444
      0.00000     -0.00000     38.47476        -0.000000     -0.000000      0.010105
      1.72799     -0.00000     43.40000        -0.000000      0.000000     -0.000483
      0.86399      1.49648     40.98266        -0.000000      0.000000      0.002455
 -----------------------------------------------------------------------------------
    total drift:                                0.000000     -0.000000      0.000397


--------------------------------------------------------------------------------------------------------



  FREE ENERGIE OF THE ION-ELECTRON SYSTEM (eV)
  ---------------------------------------------------
  free  energy   TOTEN  =      -132.34632648 eV

  energy  without entropy=     -132.34505796  energy(sigma->0) =     -132.34569222
 
 d Force = 0.2606070E-04[-0.726E-05, 0.594E-04]  d Energy = 0.1072728E-04 0.153E-04
 d Force = 0.9588332E+00[ 0.958E+00, 0.959E+00]  d Ewald  = 0.9588332E+00-0.468E-08


--------------------------------------------------------------------------------------------------------


    POTLOK:  cpu time    0.20: real time    0.21


--------------------------------------------------------------------------------------------------------




--------------------------------------------------------------------------------------------------------


  
 reached required accuracy - stopping structural energy minimisation
     LOOP+:  cpu time   33.86: real time   33.91
    4ORBIT:  cpu time    0.00: real time    0.00

 total amount of memory used by VASP on root node   152989. kBytes
========================================================================

   base      :      30000. kBytes
   nonl-proj :      16444. kBytes
   fftplans  :      57934. kBytes
   grid      :      23224. kBytes
   one-center:         56. kBytes
   wavefun   :      25331. kBytes
 
  
  
 General timing and accounting informations for this job:
 ========================================================
  
                  Total CPU time used (sec):     2291.942
                            User time (sec):     2264.230
                          System time (sec):       27.712
                         Elapsed time (sec):     2295.260
  
                   Maximum memory used (kb):      262612.
                   Average memory used (kb):           0.
  
                          Minor page faults:       490990
                          Major page faults:            0
                 Voluntary context switches:          414
