       N       E                     dE             d eps       ncg     rms          rms(c)
DAV:   1     0.504640183864E+03    0.50464E+03   -0.40753E+04  6108   0.130E+03
DAV:   2    -0.815970030156E+02   -0.58624E+03   -0.55332E+03  7922   0.253E+02
DAV:   3    -0.146386613539E+03   -0.64790E+02   -0.64384E+02  7104   0.902E+01
DAV:   4    -0.147630945320E+03   -0.12443E+01   -0.12417E+01  7208   0.136E+01
DAV:   5    -0.147660350418E+03   -0.29405E-01   -0.29381E-01  7508   0.205E+00    0.220E+01
DAV:   6    -0.132702342879E+03    0.14958E+02   -0.82421E+01  6996   0.290E+01    0.737E+00
DAV:   7    -0.132562579067E+03    0.13976E+00   -0.19014E+00  6672   0.501E+00    0.458E+00
DAV:   8    -0.132441730641E+03    0.12085E+00   -0.61988E-01  6972   0.392E+00    0.964E-01
DAV:   9    -0.132426366098E+03    0.15365E-01   -0.10955E-01  6960   0.124E+00    0.566E-01
DAV:  10    -0.132423877021E+03    0.24891E-02   -0.35870E-02  6960   0.617E-01    0.323E-01
DAV:  11    -0.132427342774E+03   -0.34658E-02   -0.29204E-02  6856   0.602E-01    0.253E-01
DAV:  12    -0.132425958708E+03    0.13841E-02   -0.30401E-03  7424   0.281E-01    0.158E-01
DAV:  13    -0.132425612504E+03    0.34620E-03   -0.49690E-03  7812   0.358E-01    0.652E-02
DAV:  14    -0.132425494514E+03    0.11799E-03   -0.89417E-04  7030   0.132E-01    0.541E-02
DAV:  15    -0.132425284652E+03    0.20986E-03   -0.45169E-04  6922   0.104E-01    0.240E-02
DAV:  16    -0.132425126544E+03    0.15811E-03   -0.26741E-04  7228   0.842E-02    0.287E-02
DAV:  17    -0.132424784236E+03    0.34231E-03   -0.23378E-04  8222   0.168E-01    0.219E-02
DAV:  18    -0.132424205143E+03    0.57909E-03   -0.83500E-04  9662   0.380E-01    0.312E-02
DAV:  19    -0.132423985641E+03    0.21950E-03   -0.75040E-04  8448   0.310E-01    0.307E-02
DAV:  20    -0.132423962068E+03    0.23573E-04   -0.60602E-04  7132   0.148E-01    0.219E-02
DAV:  21    -0.132423955606E+03    0.64618E-05   -0.14476E-04  6910   0.654E-02    0.211E-02
DAV:  22    -0.132423937059E+03    0.18547E-04   -0.42286E-05  6176   0.105E-01    0.190E-02
DAV:  23    -0.132423923170E+03    0.13888E-04   -0.58968E-05  7010   0.794E-02    0.849E-03
DAV:  24    -0.132423927539E+03   -0.43682E-05   -0.86624E-05  6200   0.461E-02
   1 F= -.13242393E+03 E0= -.13241973E+03  d E =-.132424E+03
       N       E                     dE             d eps       ncg     rms          rms(c)
DAV:   1    -0.132425174151E+03   -0.12510E-02   -0.13794E-02  6274   0.512E-01    0.260E-02
DAV:   2    -0.132425225257E+03   -0.51106E-04   -0.71553E-04  7100   0.993E-02    0.296E-02
DAV:   3    -0.132425182467E+03    0.42791E-04   -0.11836E-04  6308   0.284E-02    0.167E-02
DAV:   4    -0.132425177166E+03    0.53003E-05   -0.10036E-05  3904   0.133E-02    0.114E-02
DAV:   5    -0.132425169276E+03    0.78905E-05   -0.10801E-05  4534   0.204E-02    0.464E-03
DAV:   6    -0.132425165733E+03    0.35426E-05   -0.71153E-06  4530   0.221E-02
   2 F= -.13242517E+03 E0= -.13242100E+03  d E =-.123819E-02
       N       E                     dE             d eps       ncg     rms          rms(c)
DAV:   1    -0.132427022446E+03   -0.18532E-02   -0.12423E-01  6100   0.153E+00    0.840E-02
DAV:   2    -0.132427503656E+03   -0.48121E-03   -0.68923E-03  7092   0.313E-01    0.879E-02
DAV:   3    -0.132427110649E+03    0.39301E-03   -0.11351E-03  7000   0.924E-02    0.498E-02
DAV:   4    -0.132427066216E+03    0.44433E-04   -0.99433E-05  6944   0.395E-02    0.334E-02
DAV:   5    -0.132427005459E+03    0.60756E-04   -0.58898E-05  7020   0.483E-02    0.159E-02
DAV:   6    -0.132426967214E+03    0.38245E-04   -0.59742E-05  6974   0.665E-02    0.724E-03
DAV:   7    -0.132426958435E+03    0.87789E-05   -0.55023E-05  6500   0.446E-02
   3 F= -.13242696E+03 E0= -.13242287E+03  d E =-.303090E-02
       N       E                     dE             d eps       ncg     rms          rms(c)
DAV:   1    -0.132427734661E+03   -0.76745E-03   -0.38294E-02  6226   0.827E-01    0.306E-02
DAV:   2    -0.132427809237E+03   -0.74576E-04   -0.93483E-04  6754   0.118E-01    0.166E-02
DAV:   3    -0.132427802602E+03    0.66357E-05   -0.32019E-05  5068   0.260E-02    0.115E-02
DAV:   4    -0.132427799260E+03    0.33420E-05   -0.14630E-05  3834   0.139E-02    0.830E-03
DAV:   5    -0.132427795496E+03    0.37638E-05   -0.62093E-06  3660   0.158E-02    0.374E-03
DAV:   6    -0.132427793833E+03    0.16624E-05   -0.39138E-06  3898   0.160E-02
   4 F= -.13242779E+03 E0= -.13242374E+03  d E =-.835398E-03
       N       E                     dE             d eps       ncg     rms          rms(c)
DAV:   1    -0.132429261847E+03   -0.14664E-02   -0.34476E-01  6292   0.248E+00    0.834E-02
DAV:   2    -0.132429915559E+03   -0.65371E-03   -0.81798E-03  6754   0.351E-01    0.477E-02
DAV:   3    -0.132429859429E+03    0.56129E-04   -0.20396E-04  7152   0.746E-02    0.346E-02
DAV:   4    -0.132429839452E+03    0.19977E-04   -0.96311E-05  6746   0.408E-02    0.251E-02
DAV:   5    -0.132429803931E+03    0.35521E-04   -0.50375E-05  6474   0.452E-02    0.123E-02
DAV:   6    -0.132429789399E+03    0.14532E-04   -0.27365E-05  5822   0.462E-02    0.750E-03
DAV:   7    -0.132429782957E+03    0.64418E-05   -0.27025E-05  5724   0.418E-02
   5 F= -.13242978E+03 E0= -.13242579E+03  d E =-.282452E-02
       N       E                     dE             d eps       ncg     rms          rms(c)
DAV:   1    -0.132429228513E+03    0.56089E-03   -0.13793E+00  6268   0.498E+00    0.165E-01
DAV:   2    -0.132431817735E+03   -0.25892E-02   -0.32512E-02  6730   0.704E-01    0.966E-02
DAV:   3    -0.132431576628E+03    0.24111E-03   -0.82861E-04  7176   0.149E-01    0.694E-02
DAV:   4    -0.132431484728E+03    0.91900E-04   -0.37526E-04  6984   0.825E-02    0.508E-02
DAV:   5    -0.132431329437E+03    0.15529E-03   -0.19629E-04  7060   0.963E-02    0.249E-02
DAV:   6    -0.132431261724E+03    0.67713E-04   -0.12728E-04  7596   0.102E-01    0.147E-02
DAV:   7    -0.132431233953E+03    0.27770E-04   -0.12240E-04  7166   0.858E-02    0.102E-02
DAV:   8    -0.132431221390E+03    0.12563E-04   -0.64335E-05  5824   0.480E-02    0.135E-02
DAV:   9    -0.132431201120E+03    0.20270E-04   -0.97175E-06  4174   0.335E-02    0.881E-03
DAV:  10    -0.132431163670E+03    0.37450E-04   -0.46497E-05  6764   0.796E-02    0.875E-03
DAV:  11    -0.132431143996E+03    0.19674E-04   -0.22514E-05  5502   0.659E-02    0.111E-02
DAV:  12    -0.132431122132E+03    0.21863E-04   -0.54814E-05  7180   0.103E-01    0.500E-03
DAV:  13    -0.132431118542E+03    0.35905E-05   -0.67440E-05  6508   0.642E-02
   6 F= -.13243112E+03 E0= -.13242722E+03  d E =-.416011E-02
       N       E                     dE             d eps       ncg     rms          rms(c)
DAV:   1    -0.132431769959E+03   -0.64783E-03   -0.65568E-02  6202   0.110E+00    0.387E-02
DAV:   2    -0.132431902924E+03   -0.13296E-03   -0.15540E-03  6720   0.157E-01    0.211E-02
DAV:   3    -0.132431892800E+03    0.10123E-04   -0.65301E-05  5794   0.257E-02    0.150E-02
DAV:   4    -0.132431885826E+03    0.69745E-05   -0.15411E-05  4010   0.127E-02    0.106E-02
DAV:   5    -0.132431882383E+03    0.34430E-05   -0.12211E-05  3906   0.209E-02    0.403E-03
DAV:   6    -0.132431882246E+03    0.13667E-06   -0.54549E-06  3482   0.126E-02
   7 F= -.13243188E+03 E0= -.13242802E+03  d E =-.763704E-03
       N       E                     dE             d eps       ncg     rms          rms(c)
DAV:   1    -0.132432667500E+03   -0.78512E-03   -0.59143E-01  6164   0.331E+00    0.113E-01
DAV:   2    -0.132433882359E+03   -0.12149E-02   -0.14016E-02  6592   0.472E-01    0.625E-02
DAV:   3    -0.132433794997E+03    0.87362E-04   -0.42967E-04  7044   0.661E-02    0.452E-02
DAV:   4    -0.132433747128E+03    0.47870E-04   -0.13162E-04  6386   0.390E-02    0.334E-02
DAV:   5    -0.132433709695E+03    0.37433E-04   -0.11118E-04  6930   0.632E-02    0.131E-02
DAV:   6    -0.132433705100E+03    0.45951E-05   -0.44042E-05  6168   0.377E-02
   8 F= -.13243371E+03 E0= -.13242995E+03  d E =-.258656E-02
       N       E                     dE             d eps       ncg     rms          rms(c)
DAV:   1    -0.132430908459E+03    0.28012E-02   -0.23652E+00  6164   0.664E+00    0.227E-01
DAV:   2    -0.132435780082E+03   -0.48716E-02   -0.56439E-02  6602   0.950E-01    0.126E-01
DAV:   3    -0.132435400572E+03    0.37951E-03   -0.16227E-03  7060   0.133E-01    0.895E-02
DAV:   4    -0.132435221616E+03    0.17896E-03   -0.50916E-04  7280   0.819E-02    0.668E-02
DAV:   5    -0.132435032731E+03    0.18889E-03   -0.40360E-04  6962   0.130E-01    0.259E-02
DAV:   6    -0.132434996862E+03    0.35869E-04   -0.19261E-04  7034   0.859E-02    0.213E-02
DAV:   7    -0.132434962075E+03    0.34787E-04   -0.78083E-05  6504   0.543E-02    0.117E-02
DAV:   8    -0.132434924719E+03    0.37356E-04   -0.27859E-05  4034   0.483E-02    0.931E-03
DAV:   9    -0.132434891232E+03    0.33487E-04   -0.26920E-05  4716   0.453E-02    0.745E-03
DAV:  10    -0.132434807847E+03    0.83385E-04   -0.28191E-05  6192   0.112E-01    0.683E-03
DAV:  11    -0.132434676382E+03    0.13147E-03   -0.17984E-04  8690   0.242E-01    0.123E-02
DAV:  12    -0.132434639660E+03    0.36722E-04   -0.24083E-04  8296   0.197E-01    0.134E-02
DAV:  13    -0.132434662938E+03   -0.23278E-04   -0.27569E-04  6584   0.534E-02    0.158E-02
DAV:  14    -0.132434659701E+03    0.32367E-05   -0.65160E-06  3682   0.134E-02
   9 F= -.13243466E+03 E0= -.13243111E+03  d E =-.354116E-02
       N       E                     dE             d eps       ncg     rms          rms(c)
DAV:   1    -0.132436170715E+03   -0.15078E-02   -0.22702E-01  6168   0.205E+00    0.734E-02
DAV:   2    -0.132436629881E+03   -0.45917E-03   -0.54779E-03  6822   0.296E-01    0.555E-02
DAV:   3    -0.132436486811E+03    0.14307E-03   -0.45564E-04  6922   0.541E-02    0.312E-02
DAV:   4    -0.132436461770E+03    0.25041E-04   -0.58557E-05  6440   0.287E-02    0.232E-02
DAV:   5    -0.132436446771E+03    0.14999E-04   -0.21100E-05  5560   0.279E-02    0.113E-02
DAV:   6    -0.132436440051E+03    0.67207E-05   -0.21683E-05  5378   0.300E-02
  10 F= -.13243644E+03 E0= -.13243293E+03  d E =-.178035E-02
       N       E                     dE             d eps       ncg     rms          rms(c)
DAV:   1    -0.132436804796E+03   -0.35803E-03   -0.93947E-01  6168   0.418E+00    0.157E-01
DAV:   2    -0.132438648436E+03   -0.18436E-02   -0.22829E-02  6834   0.603E-01    0.110E-01
DAV:   3    -0.132438086662E+03    0.56177E-03   -0.18730E-03  6946   0.110E-01    0.609E-02
DAV:   4    -0.132437973887E+03    0.11277E-03   -0.25573E-04  7404   0.583E-02    0.458E-02
DAV:   5    -0.132437905318E+03    0.68569E-04   -0.75855E-05  7178   0.495E-02    0.238E-02
DAV:   6    -0.132437856575E+03    0.48743E-04   -0.78748E-05  7186   0.594E-02    0.947E-03
DAV:   7    -0.132437833802E+03    0.22772E-04   -0.31842E-05  6070   0.468E-02    0.830E-03
DAV:   8    -0.132437814985E+03    0.18817E-04   -0.16184E-05  4712   0.379E-02    0.669E-03
DAV:   9    -0.132437800309E+03    0.14677E-04   -0.86695E-06  4192   0.286E-02    0.535E-03
DAV:  10    -0.132437783713E+03    0.16596E-04   -0.84238E-06  4228   0.332E-02    0.417E-03
DAV:  11    -0.132437734951E+03    0.48762E-04   -0.53248E-05  6948   0.124E-01    0.711E-03
DAV:  12    -0.132437731077E+03    0.38739E-05   -0.58810E-05  6452   0.471E-02
  11 F= -.13243773E+03 E0= -.13243435E+03  d E =-.307138E-02
       N       E                     dE             d eps       ncg     rms          rms(c)
DAV:   1    -0.132438403787E+03   -0.66884E-03   -0.22100E-01  6152   0.204E+00    0.655E-02
DAV:   2    -0.132438858506E+03   -0.45472E-03   -0.53081E-03  6828   0.299E-01    0.391E-02
DAV:   3    -0.132438828417E+03    0.30090E-04   -0.15596E-04  7136   0.485E-02    0.296E-02
DAV:   4    -0.132438814605E+03    0.13811E-04   -0.31122E-05  4460   0.195E-02    0.218E-02
DAV:   5    -0.132438800711E+03    0.13895E-04   -0.86633E-05  6512   0.383E-02    0.119E-02
DAV:   6    -0.132438798634E+03    0.20764E-05   -0.10678E-05  3594   0.185E-02
  12 F= -.13243880E+03 E0= -.13243544E+03  d E =-.106756E-02
       N       E                     dE             d eps       ncg     rms          rms(c)
DAV:   1    -0.132437967551E+03    0.83316E-03   -0.10349E+00  6140   0.441E+00    0.141E-01
DAV:   2    -0.132440085495E+03   -0.21179E-02   -0.24609E-02  6798   0.644E-01    0.834E-02
DAV:   3    -0.132439954713E+03    0.13078E-03   -0.71945E-04  7172   0.102E-01    0.627E-02
DAV:   4    -0.132439895227E+03    0.59487E-04   -0.16849E-04  6858   0.433E-02    0.460E-02
DAV:   5    -0.132439834862E+03    0.60364E-04   -0.31507E-04  6796   0.751E-02    0.221E-02
DAV:   6    -0.132439828743E+03    0.61195E-05   -0.58246E-05  6576   0.387E-02
  13 F= -.13243983E+03 E0= -.13243651E+03  d E =-.209767E-02
       N       E                     dE             d eps       ncg     rms          rms(c)
DAV:   1    -0.132440162042E+03   -0.32718E-03   -0.45637E-01  6156   0.285E+00    0.862E-02
DAV:   2    -0.132441077707E+03   -0.91566E-03   -0.98693E-03  6676   0.389E-01    0.481E-02
DAV:   3    -0.132441027610E+03    0.50097E-04   -0.17601E-04  7338   0.516E-02    0.336E-02
DAV:   4    -0.132441008395E+03    0.19215E-04   -0.12028E-04  6736   0.374E-02    0.220E-02
DAV:   5    -0.132440988892E+03    0.19502E-04   -0.11483E-04  6712   0.542E-02    0.103E-02
DAV:   6    -0.132440989703E+03   -0.81043E-06   -0.32605E-05  5178   0.221E-02
  14 F= -.13244099E+03 E0= -.13243767E+03  d E =-.116096E-02
       N       E                     dE             d eps       ncg     rms          rms(c)
DAV:   1    -0.132435270229E+03    0.57187E-02   -0.41059E+00  6156   0.857E+00    0.251E-01
DAV:   2    -0.132443428381E+03   -0.81582E-02   -0.88095E-02  6730   0.117E+00    0.145E-01
DAV:   3    -0.132442941700E+03    0.48668E-03   -0.12296E-03  7212   0.156E-01    0.100E-01
DAV:   4    -0.132442728081E+03    0.21362E-03   -0.66747E-04  6988   0.123E-01    0.645E-02
DAV:   5    -0.132442469116E+03    0.25897E-03   -0.72145E-04  7056   0.168E-01    0.269E-02
DAV:   6    -0.132442470405E+03   -0.12888E-05   -0.32868E-04  6906   0.772E-02    0.300E-02
DAV:   7    -0.132442455252E+03    0.15153E-04   -0.27731E-05  5228   0.214E-02    0.209E-02
DAV:   8    -0.132442395775E+03    0.59477E-04   -0.88256E-05  6944   0.516E-02    0.130E-02
DAV:   9    -0.132442381724E+03    0.14051E-04   -0.12734E-05  4622   0.260E-02    0.138E-02
DAV:  10    -0.132442349866E+03    0.31858E-04   -0.20201E-05  4924   0.547E-02    0.990E-03
DAV:  11    -0.132442310317E+03    0.39549E-04   -0.51942E-05  6800   0.840E-02    0.986E-03
DAV:  12    -0.132442282621E+03    0.27696E-04   -0.42002E-05  6464   0.674E-02    0.101E-02
DAV:  13    -0.132442248997E+03    0.33624E-04   -0.22024E-05  5536   0.737E-02    0.710E-03
DAV:  14    -0.132442221858E+03    0.27139E-04   -0.78534E-05  7804   0.131E-01    0.155E-02
DAV:  15    -0.132442220149E+03    0.17086E-05   -0.10364E-04  6408   0.639E-02    0.567E-03
DAV:  16    -0.132442223642E+03   -0.34926E-05   -0.45627E-05  5516   0.229E-02
  15 F= -.13244222E+03 E0= -.13243888E+03  d E =-.239490E-02
       N       E                     dE             d eps       ncg     rms          rms(c)
DAV:   1    -0.132442469619E+03   -0.24947E-03   -0.18619E-01  6100   0.182E+00    0.523E-02
DAV:   2    -0.132442847657E+03   -0.37804E-03   -0.40190E-03  6562   0.247E-01    0.295E-02
DAV:   3    -0.132442831715E+03    0.15941E-04   -0.68479E-05  6684   0.305E-02    0.211E-02
DAV:   4    -0.132442824950E+03    0.67656E-05   -0.22867E-05  3812   0.178E-02    0.148E-02
DAV:   5    -0.132442818845E+03    0.61044E-05   -0.45050E-05  6126   0.360E-02    0.711E-03
DAV:   6    -0.132442819194E+03   -0.34867E-06   -0.14781E-05  3406   0.150E-02
  16 F= -.13244282E+03 E0= -.13243946E+03  d E =-.595552E-03
       N       E                     dE             d eps       ncg     rms          rms(c)
DAV:   1    -0.132441020112E+03    0.17987E-02   -0.16783E+00  6100   0.546E+00    0.161E-01
DAV:   2    -0.132444435871E+03   -0.34158E-02   -0.36266E-02  6520   0.738E-01    0.889E-02
DAV:   3    -0.132444286316E+03    0.14956E-03   -0.63515E-04  7218   0.891E-02    0.626E-02
DAV:   4    -0.132444223760E+03    0.62556E-04   -0.24043E-04  6834   0.525E-02    0.430E-02
DAV:   5    -0.132444172881E+03    0.50878E-04   -0.38927E-04  7022   0.977E-02    0.199E-02
DAV:   6    -0.132444174441E+03   -0.15592E-05   -0.12090E-04  6544   0.397E-02    0.215E-02
DAV:   7    -0.132444171171E+03    0.32700E-05   -0.12141E-05  3530   0.131E-02
  17 F= -.13244417E+03 E0= -.13244077E+03  d E =-.194753E-02
       N       E                     dE             d eps       ncg     rms          rms(c)
DAV:   1    -0.132432183369E+03    0.11991E-01   -0.67122E+00  6100   0.109E+01    0.321E-01
DAV:   2    -0.132446005969E+03   -0.13823E-01   -0.14641E-01  6544   0.148E+00    0.183E-01
DAV:   3    -0.132445370534E+03    0.63543E-03   -0.25585E-03  7218   0.178E-01    0.127E-01
DAV:   4    -0.132445114624E+03    0.25591E-03   -0.96106E-04  6834   0.103E-01    0.879E-02
DAV:   5    -0.132444897240E+03    0.21738E-03   -0.15705E-03  7054   0.189E-01    0.381E-02
DAV:   6    -0.132444901520E+03   -0.42793E-05   -0.52430E-04  6786   0.779E-02    0.406E-02
DAV:   7    -0.132444888024E+03    0.13496E-04   -0.59753E-05  5736   0.285E-02    0.287E-02
DAV:   8    -0.132444877544E+03    0.10480E-04   -0.76885E-05  6450   0.439E-02    0.117E-02
DAV:   9    -0.132444876971E+03    0.57299E-06   -0.26108E-05  4914   0.249E-02
  18 F= -.13244488E+03 E0= -.13244140E+03  d E =-.265333E-02
       N       E                     dE             d eps       ncg     rms          rms(c)
DAV:   1    -0.132444483115E+03    0.39443E-03   -0.24792E-01  6100   0.210E+00    0.605E-02
DAV:   2    -0.132444982224E+03   -0.49911E-03   -0.52969E-03  6464   0.283E-01    0.346E-02
DAV:   3    -0.132444959503E+03    0.22721E-04   -0.71539E-05  6640   0.340E-02    0.249E-02
DAV:   4    -0.132444949973E+03    0.95300E-05   -0.35864E-05  4258   0.260E-02    0.162E-02
DAV:   5    -0.132444942220E+03    0.77525E-05   -0.64154E-05  6168   0.427E-02    0.953E-03
DAV:   6    -0.132444942105E+03    0.11560E-06   -0.16450E-05  3568   0.168E-02
  19 F= -.13244494E+03 E0= -.13244148E+03  d E =-.271846E-02
       N       E                     dE             d eps       ncg     rms          rms(c)
DAV:   1    -0.132445428671E+03   -0.48645E-03   -0.61556E-02  6636   0.105E+00    0.364E-02
DAV:   2    -0.132445518424E+03   -0.89754E-04   -0.14796E-03  7000   0.166E-01    0.247E-02
DAV:   3    -0.132445500035E+03    0.18389E-04   -0.16408E-04  6896   0.404E-02    0.197E-02
DAV:   4    -0.132445489685E+03    0.10350E-04   -0.37314E-05  4074   0.184E-02    0.148E-02
DAV:   5    -0.132445474815E+03    0.14870E-04   -0.33462E-05  5862   0.308E-02    0.792E-03
DAV:   6    -0.132445469087E+03    0.57279E-05   -0.18834E-05  4074   0.236E-02
  20 F= -.13244547E+03 E0= -.13244199E+03  d E =-.526982E-03
       N       E                     dE             d eps       ncg     rms          rms(c)
DAV:   1    -0.132445568747E+03   -0.93932E-04   -0.50173E-02  6660   0.946E-01    0.318E-02
DAV:   2    -0.132445631070E+03   -0.62323E-04   -0.11810E-03  7018   0.154E-01    0.229E-02
DAV:   3    -0.132445615774E+03    0.15296E-04   -0.11127E-04  6810   0.403E-02    0.195E-02
DAV:   4    -0.132445606275E+03    0.94993E-05   -0.28528E-05  3978   0.169E-02    0.151E-02
DAV:   5    -0.132445588722E+03    0.17553E-04   -0.28940E-05  5286   0.282E-02    0.874E-03
DAV:   6    -0.132445577673E+03    0.11049E-04   -0.20303E-05  4366   0.308E-02    0.865E-03
DAV:   7    -0.132445574654E+03    0.30185E-05   -0.15021E-05  3738   0.200E-02
  21 F= -.13244557E+03 E0= -.13244208E+03  d E =-.632549E-03
       N       E                     dE             d eps       ncg     rms          rms(c)
DAV:   1    -0.132445793661E+03   -0.21599E-03   -0.11411E-02  6358   0.467E-01    0.212E-02
DAV:   2    -0.132445806915E+03   -0.13254E-04   -0.33160E-04  6754   0.780E-02    0.142E-02
DAV:   3    -0.132445800533E+03    0.63816E-05   -0.32032E-05  4926   0.200E-02    0.947E-03
DAV:   4    -0.132445796898E+03    0.36353E-05   -0.10273E-05  3692   0.142E-02    0.742E-03
DAV:   5    -0.132445790325E+03    0.65730E-05   -0.48968E-06  3680   0.197E-02    0.462E-03
DAV:   6    -0.132445785674E+03    0.46510E-05   -0.68455E-06  3808   0.184E-02
  22 F= -.13244579E+03 E0= -.13244228E+03  d E =-.211020E-03
       N       E                     dE             d eps       ncg     rms          rms(c)
DAV:   1    -0.132445915268E+03   -0.12494E-03   -0.37984E-02  6346   0.853E-01    0.390E-02
DAV:   2    -0.132445976228E+03   -0.60960E-04   -0.11898E-03  6820   0.145E-01    0.266E-02
DAV:   3    -0.132445953851E+03    0.22377E-04   -0.13636E-04  6742   0.333E-02    0.179E-02
DAV:   4    -0.132445945277E+03    0.85737E-05   -0.25141E-05  4308   0.194E-02    0.141E-02
DAV:   5    -0.132445932567E+03    0.12710E-04   -0.15546E-05  4156   0.310E-02    0.760E-03
DAV:   6    -0.132445926140E+03    0.64278E-05   -0.20230E-05  3876   0.248E-02
  23 F= -.13244593E+03 E0= -.13244239E+03  d E =-.351485E-03
       N       E                     dE             d eps       ncg     rms          rms(c)
DAV:   1    -0.132446077590E+03   -0.14502E-03   -0.14398E-02  6460   0.525E-01    0.213E-02
DAV:   2    -0.132446111648E+03   -0.34059E-04   -0.45693E-04  6910   0.871E-02    0.155E-02
DAV:   3    -0.132446102440E+03    0.92077E-05   -0.54310E-05  4714   0.191E-02    0.113E-02
DAV:   4    -0.132446099976E+03    0.24640E-05   -0.76177E-06  3620   0.980E-03    0.834E-03
DAV:   5    -0.132446097703E+03    0.22733E-05   -0.84453E-06  3732   0.149E-02    0.375E-03
DAV:   6    -0.132446097152E+03    0.55123E-06   -0.69702E-06  3392   0.986E-03
  24 F= -.13244610E+03 E0= -.13244257E+03  d E =-.171012E-03
       N       E                     dE             d eps       ncg     rms          rms(c)
DAV:   1    -0.132446141434E+03   -0.43730E-04   -0.22162E-02  6362   0.652E-01    0.277E-02
DAV:   2    -0.132446196080E+03   -0.54647E-04   -0.75713E-04  6972   0.113E-01    0.214E-02
DAV:   3    -0.132446171910E+03    0.24170E-04   -0.11751E-04  5756   0.291E-02    0.147E-02
DAV:   4    -0.132446166082E+03    0.58278E-05   -0.91565E-06  3818   0.123E-02    0.109E-02
DAV:   5    -0.132446157103E+03    0.89792E-05   -0.98067E-06  4028   0.223E-02    0.536E-03
DAV:   6    -0.132446152417E+03    0.46863E-05   -0.14226E-05  3840   0.201E-02
  25 F= -.13244615E+03 E0= -.13244263E+03  d E =-.226277E-03
       N       E                     dE             d eps       ncg     rms          rms(c)
DAV:   1    -0.132446266774E+03   -0.10967E-03   -0.11694E-02  6468   0.465E-01    0.197E-02
DAV:   2    -0.132446296209E+03   -0.29435E-04   -0.40625E-04  6956   0.729E-02    0.176E-02
DAV:   3    -0.132446271908E+03    0.24302E-04   -0.73679E-05  4798   0.212E-02    0.893E-03
DAV:   4    -0.132446266914E+03    0.49942E-05   -0.40460E-06  3656   0.106E-02    0.652E-03
DAV:   5    -0.132446254440E+03    0.12474E-04   -0.32637E-06  4074   0.273E-02    0.331E-03
DAV:   6    -0.132446243850E+03    0.10591E-04   -0.75106E-06  4202   0.321E-02    0.309E-03
DAV:   7    -0.132446236184E+03    0.76651E-05   -0.10876E-05  3966   0.313E-02
  26 F= -.13244624E+03 E0= -.13244273E+03  d E =-.837675E-04
       N       E                     dE             d eps       ncg     rms          rms(c)
DAV:   1    -0.132446255466E+03   -0.11617E-04   -0.18753E-02  6584   0.593E-01    0.245E-02
DAV:   2    -0.132446311817E+03   -0.56351E-04   -0.70195E-04  6936   0.965E-02    0.230E-02
DAV:   3    -0.132446274264E+03    0.37554E-04   -0.10970E-04  5116   0.239E-02    0.120E-02
DAV:   4    -0.132446268708E+03    0.55555E-05   -0.60815E-06  3774   0.105E-02    0.850E-03
DAV:   5    -0.132446257855E+03    0.10853E-04   -0.39833E-06  4066   0.218E-02    0.447E-03
DAV:   6    -0.132446245931E+03    0.11925E-04   -0.63699E-06  4304   0.332E-02    0.296E-03
DAV:   7    -0.132446234306E+03    0.11625E-04   -0.10049E-05  4532   0.416E-02    0.290E-03
DAV:   8    -0.132446228605E+03    0.57012E-05   -0.15008E-05  4128   0.301E-02
  27 F= -.13244623E+03 E0= -.13244272E+03  d E =-.761878E-04
       N       E                     dE             d eps       ncg     rms          rms(c)
DAV:   1    -0.132446341553E+03   -0.10725E-03   -0.34615E-03  6500   0.260E-01    0.123E-02
DAV:   2    -0.132446352882E+03   -0.11330E-04   -0.14123E-04  7036   0.441E-02    0.111E-02
DAV:   3    -0.132446344352E+03    0.85302E-05   -0.28394E-05  4306   0.125E-02    0.545E-03
DAV:   4    -0.132446343470E+03    0.88175E-06   -0.19514E-06  3494   0.649E-03    0.357E-03
DAV:   5    -0.132446342677E+03    0.79363E-06   -0.13607E-06  3506   0.809E-03    0.171E-03
DAV:   6    -0.132446342392E+03    0.28532E-06   -0.18573E-06  3446   0.575E-03
  28 F= -.13244634E+03 E0= -.13244283E+03  d E =-.113787E-03
       N       E                     dE             d eps       ncg     rms          rms(c)
DAV:   1    -0.132446514280E+03   -0.17160E-03   -0.30940E-02  6384   0.777E-01    0.339E-02
DAV:   2    -0.132446598610E+03   -0.84330E-04   -0.10948E-03  6988   0.132E-01    0.295E-02
DAV:   3    -0.132446542475E+03    0.56136E-04   -0.18960E-04  6830   0.365E-02    0.172E-02
DAV:   4    -0.132446535232E+03    0.72422E-05   -0.12117E-05  4022   0.188E-02    0.117E-02
DAV:   5    -0.132446525373E+03    0.98590E-05   -0.12738E-05  4154   0.329E-02    0.515E-03
DAV:   6    -0.132446522656E+03    0.27177E-05   -0.18329E-05  3770   0.223E-02
  29 F= -.13244652E+03 E0= -.13244300E+03  d E =-.294051E-03
       N       E                     dE             d eps       ncg     rms          rms(c)
DAV:   1    -0.132446660341E+03   -0.13497E-03   -0.67143E-03  6512   0.354E-01    0.122E-02
DAV:   2    -0.132446666348E+03   -0.60075E-05   -0.18157E-04  6956   0.574E-02    0.941E-03
DAV:   3    -0.132446659369E+03    0.69792E-05   -0.10680E-05  3908   0.173E-02    0.707E-03
DAV:   4    -0.132446657983E+03    0.13858E-05   -0.31816E-06  3578   0.746E-03    0.649E-03
DAV:   5    -0.132446652375E+03    0.56076E-05   -0.18101E-06  3590   0.927E-03    0.524E-03
DAV:   6    -0.132446633341E+03    0.19035E-04   -0.14050E-05  4682   0.425E-02    0.862E-03
DAV:   7    -0.132446628685E+03    0.46560E-05   -0.12124E-05  3756   0.201E-02
  30 F= -.13244663E+03 E0= -.13244310E+03  d E =-.106029E-03
       N       E                     dE             d eps       ncg     rms          rms(c)
DAV:   1    -0.132446657019E+03   -0.23678E-04   -0.62359E-03  6732   0.345E-01    0.120E-02
DAV:   2    -0.132446664755E+03   -0.77358E-05   -0.21804E-04  6990   0.631E-02    0.115E-02
DAV:   3    -0.132446656274E+03    0.84814E-05   -0.11072E-05  3952   0.159E-02    0.835E-03
DAV:   4    -0.132446656317E+03   -0.43615E-07   -0.21890E-06  3590   0.571E-03    0.824E-03
DAV:   5    -0.132446655903E+03    0.41445E-06   -0.22290E-07  3434   0.208E-03    0.809E-03
DAV:   6    -0.132446652937E+03    0.29659E-05   -0.87491E-05  6284   0.349E-02
  31 F= -.13244665E+03 E0= -.13244311E+03  d E =-.130281E-03
