       N       E                     dE             d eps       ncg     rms          rms(c)
DAV:   1     0.509075571377E+03    0.50908E+03   -0.40788E+04  2628   0.131E+03
DAV:   2    -0.817225585597E+02   -0.59080E+03   -0.56050E+03  3420   0.254E+02
DAV:   3    -0.147016406200E+03   -0.65294E+02   -0.64846E+02  3056   0.903E+01
DAV:   4    -0.148311464797E+03   -0.12951E+01   -0.12919E+01  3056   0.139E+01
DAV:   5    -0.148343871178E+03   -0.32406E-01   -0.32383E-01  3298   0.215E+00    0.221E+01
DAV:   6    -0.132418419206E+03    0.15925E+02   -0.86780E+01  2872   0.284E+01    0.734E+00
DAV:   7    -0.132313083364E+03    0.10534E+00   -0.17744E+00  2916   0.485E+00    0.449E+00
DAV:   8    -0.132207287479E+03    0.10580E+00   -0.43801E-01  2996   0.343E+00    0.777E-01
DAV:   9    -0.132188923212E+03    0.18364E-01   -0.56356E-02  2956   0.895E-01    0.398E-01
DAV:  10    -0.132190685464E+03   -0.17623E-02   -0.31058E-02  3144   0.617E-01    0.278E-01
DAV:  11    -0.132190376723E+03    0.30874E-03   -0.20372E-03  3340   0.267E-01    0.172E-01
DAV:  12    -0.132189615088E+03    0.76163E-03   -0.26799E-03  3470   0.313E-01    0.516E-02
DAV:  13    -0.132189179334E+03    0.43575E-03   -0.64834E-04  3042   0.126E-01    0.365E-02
DAV:  14    -0.132188099580E+03    0.10798E-02   -0.50047E-04  3316   0.215E-01    0.444E-02
DAV:  15    -0.132187593864E+03    0.50572E-03   -0.29385E-04  3396   0.145E-01    0.422E-02
DAV:  16    -0.132185501670E+03    0.20922E-02   -0.28604E-03  4270   0.769E-01    0.460E-02
DAV:  17    -0.132185427815E+03    0.73855E-04   -0.25584E-03  3104   0.296E-01    0.624E-02
DAV:  18    -0.132185420780E+03    0.70348E-05   -0.66356E-04  2886   0.106E-01    0.591E-02
DAV:  19    -0.132185304488E+03    0.11629E-03   -0.43578E-04  3142   0.140E-01    0.162E-02
DAV:  20    -0.132185275610E+03    0.28878E-04   -0.23414E-04  3526   0.158E-01    0.320E-02
DAV:  21    -0.132185239433E+03    0.36177E-04   -0.19864E-04  3642   0.136E-01    0.125E-02
DAV:  22    -0.132185248062E+03   -0.86284E-05   -0.16537E-04  2946   0.846E-02    0.201E-02
DAV:  23    -0.132185246835E+03    0.12270E-05   -0.34082E-05  2334   0.364E-02
   1 F= -.13218525E+03 E0= -.13218323E+03  d E =-.132185E+03
       N       E                     dE             d eps       ncg     rms          rms(c)
DAV:   1    -0.132187404299E+03   -0.21562E-02   -0.98890E-03  2722   0.414E-01    0.265E-02
DAV:   2    -0.132187383280E+03    0.21019E-04   -0.48736E-04  3016   0.906E-02    0.272E-02
DAV:   3    -0.132187360130E+03    0.23150E-04   -0.25212E-05  2324   0.265E-02    0.202E-02
DAV:   4    -0.132187310622E+03    0.49508E-04   -0.10582E-04  2840   0.499E-02    0.111E-02
DAV:   5    -0.132187304236E+03    0.63864E-05   -0.19530E-05  2180   0.214E-02    0.885E-03
DAV:   6    -0.132187292346E+03    0.11890E-04   -0.18558E-05  2184   0.229E-02    0.489E-03
DAV:   7    -0.132187279807E+03    0.12540E-04   -0.10682E-05  2042   0.255E-02    0.579E-03
DAV:   8    -0.132187274695E+03    0.51120E-05   -0.13878E-05  2220   0.247E-02
   2 F= -.13218727E+03 E0= -.13218527E+03  d E =-.202786E-02
       N       E                     dE             d eps       ncg     rms          rms(c)
DAV:   1    -0.132188635627E+03   -0.13558E-02   -0.21601E-02  2698   0.602E-01    0.427E-02
DAV:   2    -0.132188603176E+03    0.32451E-04   -0.12875E-03  3000   0.152E-01    0.364E-02
DAV:   3    -0.132188557481E+03    0.45695E-04   -0.78580E-05  3012   0.451E-02    0.272E-02
DAV:   4    -0.132188480464E+03    0.77017E-04   -0.13630E-04  2860   0.535E-02    0.140E-02
DAV:   5    -0.132188440727E+03    0.39737E-04   -0.47231E-05  2898   0.374E-02    0.157E-02
DAV:   6    -0.132188406717E+03    0.34011E-04   -0.51581E-05  2734   0.330E-02    0.595E-03
DAV:   7    -0.132188386516E+03    0.20201E-04   -0.11036E-05  2070   0.202E-02    0.824E-03
DAV:   8    -0.132188366231E+03    0.20285E-04   -0.14438E-05  2186   0.377E-02    0.452E-03
DAV:   9    -0.132188350239E+03    0.15992E-04   -0.34404E-05  2730   0.564E-02    0.760E-03
DAV:  10    -0.132188341037E+03    0.92021E-05   -0.10726E-05  1910   0.339E-02
   3 F= -.13218834E+03 E0= -.13218637E+03  d E =-.309420E-02
       N       E                     dE             d eps       ncg     rms          rms(c)
DAV:   1    -0.132189450151E+03   -0.10999E-02   -0.25089E-01  2652   0.201E+00    0.629E-02
DAV:   2    -0.132189871698E+03   -0.42155E-03   -0.50213E-03  2880   0.264E-01    0.346E-02
DAV:   3    -0.132189838051E+03    0.33647E-04   -0.86076E-05  2954   0.492E-02    0.231E-02
DAV:   4    -0.132189813501E+03    0.24550E-04   -0.34360E-05  2806   0.415E-02    0.106E-02
DAV:   5    -0.132189802493E+03    0.11008E-04   -0.24139E-05  2462   0.406E-02    0.531E-03
DAV:   6    -0.132189799979E+03    0.25147E-05   -0.18029E-05  1876   0.280E-02
   4 F= -.13218980E+03 E0= -.13218784E+03  d E =-.145894E-02
       N       E                     dE             d eps       ncg     rms          rms(c)
DAV:   1    -0.132188802171E+03    0.10003E-02   -0.22566E+00  2656   0.603E+00    0.185E-01
DAV:   2    -0.132192603377E+03   -0.38012E-02   -0.44817E-02  2856   0.779E-01    0.106E-01
DAV:   3    -0.132192293553E+03    0.30982E-03   -0.60536E-04  3040   0.136E-01    0.693E-02
DAV:   4    -0.132192071387E+03    0.22217E-03   -0.41073E-04  3038   0.140E-01    0.248E-02
DAV:   5    -0.132192037515E+03    0.33873E-04   -0.25762E-04  3002   0.992E-02    0.128E-02
DAV:   6    -0.132192028159E+03    0.93557E-05   -0.62629E-05  2806   0.442E-02
   5 F= -.13219203E+03 E0= -.13219007E+03  d E =-.368712E-02
       N       E                     dE             d eps       ncg     rms          rms(c)
DAV:   1    -0.132192923193E+03   -0.88568E-03   -0.62922E-01  2664   0.328E+00    0.108E-01
DAV:   2    -0.132194210372E+03   -0.12872E-02   -0.14404E-02  2862   0.460E-01    0.618E-02
DAV:   3    -0.132194140247E+03    0.70125E-04   -0.19522E-04  2974   0.653E-02    0.458E-02
DAV:   4    -0.132194090531E+03    0.49717E-04   -0.30496E-04  2926   0.876E-02    0.189E-02
DAV:   5    -0.132194088185E+03    0.23457E-05   -0.66577E-05  2640   0.342E-02    0.200E-02
DAV:   6    -0.132194080261E+03    0.79244E-05   -0.37827E-05  2624   0.279E-02
   6 F= -.13219408E+03 E0= -.13219213E+03  d E =-.205210E-02
       N       E                     dE             d eps       ncg     rms          rms(c)
DAV:   1    -0.132192562512E+03    0.15257E-02   -0.16642E+00  2664   0.534E+00    0.172E-01
DAV:   2    -0.132195959872E+03   -0.33974E-02   -0.38166E-02  2856   0.753E-01    0.103E-01
DAV:   3    -0.132195748573E+03    0.21130E-03   -0.50115E-04  2998   0.109E-01    0.764E-02
DAV:   4    -0.132195555386E+03    0.19319E-03   -0.80441E-04  2934   0.157E-01    0.309E-02
DAV:   5    -0.132195528494E+03    0.26892E-04   -0.25129E-04  2858   0.787E-02    0.351E-02
DAV:   6    -0.132195491141E+03    0.37353E-04   -0.83930E-05  2822   0.462E-02    0.162E-02
DAV:   7    -0.132195449246E+03    0.41895E-04   -0.62463E-05  2952   0.604E-02    0.124E-02
DAV:   8    -0.132195396888E+03    0.52358E-04   -0.41946E-05  2952   0.864E-02    0.189E-02
DAV:   9    -0.132195361524E+03    0.35364E-04   -0.56357E-05  3098   0.642E-02    0.141E-02
DAV:  10    -0.132195308726E+03    0.52798E-04   -0.50942E-05  3088   0.860E-02    0.987E-03
DAV:  11    -0.132195257451E+03    0.51274E-04   -0.89977E-05  3322   0.133E-01    0.225E-02
DAV:  12    -0.132195222560E+03    0.34891E-04   -0.13416E-04  3570   0.151E-01    0.129E-02
DAV:  13    -0.132195236253E+03   -0.13693E-04   -0.22135E-04  2830   0.669E-02    0.149E-02
DAV:  14    -0.132195234872E+03    0.13806E-05   -0.19494E-05  2018   0.183E-02
   7 F= -.13219523E+03 E0= -.13219330E+03  d E =-.320671E-02
       N       E                     dE             d eps       ncg     rms          rms(c)
DAV:   1    -0.132195876628E+03   -0.64037E-03   -0.33939E-01  2616   0.240E+00    0.742E-02
DAV:   2    -0.132196525401E+03   -0.64877E-03   -0.71062E-03  2838   0.321E-01    0.406E-02
DAV:   3    -0.132196495175E+03    0.30226E-04   -0.98510E-05  2994   0.488E-02    0.286E-02
DAV:   4    -0.132196475582E+03    0.19593E-04   -0.93078E-05  2900   0.525E-02    0.120E-02
DAV:   5    -0.132196475343E+03    0.23993E-06   -0.29477E-05  2328   0.261E-02    0.112E-02
DAV:   6    -0.132196473283E+03    0.20591E-05   -0.10328E-05  1500   0.181E-02
   8 F= -.13219647E+03 E0= -.13219456E+03  d E =-.123841E-02
       N       E                     dE             d eps       ncg     rms          rms(c)
DAV:   1    -0.132193716610E+03    0.27587E-02   -0.30518E+00  2612   0.722E+00    0.223E-01
DAV:   2    -0.132199580411E+03   -0.58638E-02   -0.63970E-02  2820   0.962E-01    0.123E-01
DAV:   3    -0.132199292905E+03    0.28751E-03   -0.78436E-04  3070   0.137E-01    0.854E-02
DAV:   4    -0.132199113928E+03    0.17898E-03   -0.10219E-03  2970   0.177E-01    0.346E-02
DAV:   5    -0.132199126161E+03   -0.12233E-04   -0.30805E-04  2874   0.758E-02    0.379E-02
DAV:   6    -0.132199108098E+03    0.18063E-04   -0.89547E-05  2752   0.446E-02    0.180E-02
DAV:   7    -0.132199105011E+03    0.30872E-05   -0.52081E-05  2782   0.377E-02
   9 F= -.13219911E+03 E0= -.13219730E+03  d E =-.387014E-02
       N       E                     dE             d eps       ncg     rms          rms(c)
DAV:   1    -0.132177578337E+03    0.21530E-01   -0.12206E+01  2620   0.145E+01    0.446E-01
DAV:   2    -0.132201252012E+03   -0.23674E-01   -0.25795E-01  2812   0.194E+00    0.251E-01
DAV:   3    -0.132200067724E+03    0.11843E-02   -0.32629E-03  3040   0.274E-01    0.170E-01
DAV:   4    -0.132199333495E+03    0.73423E-03   -0.37611E-03  3072   0.337E-01    0.668E-02
DAV:   5    -0.132199361248E+03   -0.27753E-04   -0.10371E-03  2868   0.141E-01    0.663E-02
DAV:   6    -0.132199300022E+03    0.61226E-04   -0.54483E-04  2984   0.112E-01    0.252E-02
DAV:   7    -0.132199296806E+03    0.32153E-05   -0.11032E-04  2868   0.569E-02    0.248E-02
DAV:   8    -0.132199273642E+03    0.23164E-04   -0.27492E-05  2284   0.432E-02    0.130E-02
DAV:   9    -0.132199253876E+03    0.19766E-04   -0.23324E-05  2374   0.456E-02    0.426E-03
DAV:  10    -0.132199243660E+03    0.10216E-04   -0.19110E-05  2076   0.370E-02    0.727E-03
DAV:  11    -0.132199230583E+03    0.13077E-04   -0.48387E-06  1702   0.373E-02    0.329E-03
DAV:  12    -0.132199200308E+03    0.30275E-04   -0.74809E-05  3168   0.137E-01    0.141E-02
DAV:  13    -0.132199193583E+03    0.67242E-05   -0.58986E-05  2920   0.565E-02
  10 F= -.13219919E+03 E0= -.13219765E+03  d E =-.395871E-02
       N       E                     dE             d eps       ncg     rms          rms(c)
DAV:   1    -0.132195098560E+03    0.41017E-02   -0.28421E+00  2612   0.706E+00    0.212E-01
DAV:   2    -0.132200456565E+03   -0.53580E-02   -0.58863E-02  2794   0.947E-01    0.119E-01
DAV:   3    -0.132200192415E+03    0.26415E-03   -0.78037E-04  3072   0.139E-01    0.844E-02
DAV:   4    -0.132200025023E+03    0.16739E-03   -0.10503E-03  2938   0.179E-01    0.359E-02
DAV:   5    -0.132200035956E+03   -0.10933E-04   -0.29355E-04  2864   0.750E-02    0.389E-02
DAV:   6    -0.132200015048E+03    0.20907E-04   -0.10027E-04  2770   0.476E-02    0.164E-02
DAV:   7    -0.132200013685E+03    0.13631E-05   -0.44157E-05  2756   0.336E-02
  11 F= -.13220001E+03 E0= -.13219835E+03  d E =-.477881E-02
       N       E                     dE             d eps       ncg     rms          rms(c)
DAV:   1    -0.132200880865E+03   -0.86582E-03   -0.10408E+00  2620   0.430E+00    0.131E-01
DAV:   2    -0.132202926619E+03   -0.20458E-02   -0.22288E-02  2852   0.590E-01    0.742E-02
DAV:   3    -0.132202814457E+03    0.11216E-03   -0.28124E-04  3062   0.788E-02    0.504E-02
DAV:   4    -0.132202731986E+03    0.82471E-04   -0.33011E-04  2966   0.109E-01    0.200E-02
DAV:   5    -0.132202732963E+03   -0.97702E-06   -0.12526E-04  2918   0.531E-02    0.202E-02
DAV:   6    -0.132202727368E+03    0.55947E-05   -0.24895E-05  2092   0.232E-02
  12 F= -.13220273E+03 E0= -.13220117E+03  d E =-.271368E-02
       N       E                     dE             d eps       ncg     rms          rms(c)
DAV:   1    -0.132202091935E+03    0.64103E-03   -0.12265E+00  2620   0.466E+00    0.144E-01
DAV:   2    -0.132204535485E+03   -0.24435E-02   -0.26496E-02  2872   0.642E-01    0.808E-02
DAV:   3    -0.132204404854E+03    0.13063E-03   -0.32157E-04  3070   0.871E-02    0.554E-02
DAV:   4    -0.132204306251E+03    0.98604E-04   -0.46802E-04  2966   0.129E-01    0.236E-02
DAV:   5    -0.132204308347E+03   -0.20964E-05   -0.16564E-04  2934   0.603E-02    0.248E-02
DAV:   6    -0.132204301057E+03    0.72903E-05   -0.30777E-05  2296   0.245E-02
  13 F= -.13220430E+03 E0= -.13220285E+03  d E =-.428737E-02
       N       E                     dE             d eps       ncg     rms          rms(c)
DAV:   1    -0.132194277153E+03    0.10031E-01   -0.49040E+00  2628   0.931E+00    0.288E-01
DAV:   2    -0.132204051427E+03   -0.97743E-02   -0.10597E-01  2854   0.128E+00    0.163E-01
DAV:   3    -0.132203531200E+03    0.52023E-03   -0.13208E-03  3048   0.171E-01    0.110E-01
DAV:   4    -0.132203150664E+03    0.38054E-03   -0.17569E-03  2984   0.241E-01    0.453E-02
DAV:   5    -0.132203156681E+03   -0.60173E-05   -0.56590E-04  2972   0.110E-01    0.447E-02
DAV:   6    -0.132203129382E+03    0.27300E-04   -0.13107E-04  2848   0.504E-02    0.235E-02
DAV:   7    -0.132203109799E+03    0.19583E-04   -0.36527E-05  2676   0.422E-02    0.104E-02
DAV:   8    -0.132203092783E+03    0.17016E-04   -0.20778E-05  2272   0.558E-02    0.102E-02
DAV:   9    -0.132203082165E+03    0.10618E-04   -0.29105E-05  2288   0.449E-02    0.907E-03
DAV:  10    -0.132203072028E+03    0.10137E-04   -0.30354E-05  2516   0.447E-02    0.825E-03
DAV:  11    -0.132203056223E+03    0.15805E-04   -0.97951E-06  2000   0.595E-02    0.117E-02
DAV:  12    -0.132203048590E+03    0.76327E-05   -0.19477E-05  2246   0.432E-02
  14 F= -.13220305E+03 E0= -.13220177E+03  d E =-.303491E-02
       N       E                     dE             d eps       ncg     rms          rms(c)
DAV:   1    -0.132200051560E+03    0.30047E-02   -0.24838E+00  2628   0.663E+00    0.205E-01
DAV:   2    -0.132204954232E+03   -0.49027E-02   -0.53342E-02  2864   0.908E-01    0.112E-01
DAV:   3    -0.132204697883E+03    0.25635E-03   -0.64931E-04  3116   0.120E-01    0.770E-02
DAV:   4    -0.132204522938E+03    0.17495E-03   -0.90799E-04  2982   0.171E-01    0.316E-02
DAV:   5    -0.132204531704E+03   -0.87667E-05   -0.27741E-04  2900   0.729E-02    0.336E-02
DAV:   6    -0.132204519696E+03    0.12009E-04   -0.60164E-05  2664   0.333E-02    0.186E-02
DAV:   7    -0.132204514562E+03    0.51338E-05   -0.25334E-05  2106   0.246E-02
  15 F= -.13220451E+03 E0= -.13220312E+03  d E =-.450088E-02
       N       E                     dE             d eps       ncg     rms          rms(c)
DAV:   1    -0.132204866594E+03   -0.34690E-03   -0.13867E+00  2620   0.493E+00    0.152E-01
DAV:   2    -0.132207310550E+03   -0.24440E-02   -0.27882E-02  2880   0.663E-01    0.823E-02
DAV:   3    -0.132207164455E+03    0.14610E-03   -0.45784E-04  3118   0.101E-01    0.552E-02
DAV:   4    -0.132207058217E+03    0.10624E-03   -0.30993E-04  2980   0.988E-02    0.253E-02
DAV:   5    -0.132207043282E+03    0.14935E-04   -0.12485E-04  2998   0.622E-02    0.204E-02
DAV:   6    -0.132207030566E+03    0.12716E-04   -0.54954E-05  2732   0.438E-02    0.102E-02
DAV:   7    -0.132207021517E+03    0.90489E-05   -0.92808E-06  1822   0.301E-02
  16 F= -.13220702E+03 E0= -.13220571E+03  d E =-.250696E-02
       N       E                     dE             d eps       ncg     rms          rms(c)
DAV:   1    -0.132205382184E+03    0.16484E-02   -0.15530E+00  2612   0.522E+00    0.157E-01
DAV:   2    -0.132208147587E+03   -0.27654E-02   -0.31385E-02  2886   0.700E-01    0.873E-02
DAV:   3    -0.132207976012E+03    0.17157E-03   -0.49456E-04  3112   0.108E-01    0.584E-02
DAV:   4    -0.132207835271E+03    0.14074E-03   -0.35782E-04  2988   0.109E-01    0.262E-02
DAV:   5    -0.132207811432E+03    0.23838E-04   -0.15154E-04  2974   0.714E-02    0.222E-02
DAV:   6    -0.132207791938E+03    0.19494E-04   -0.75603E-05  2812   0.504E-02    0.116E-02
DAV:   7    -0.132207770538E+03    0.21400E-04   -0.78419E-06  1944   0.394E-02    0.705E-03
DAV:   8    -0.132207745468E+03    0.25070E-04   -0.10300E-05  2128   0.526E-02    0.635E-03
DAV:   9    -0.132207716361E+03    0.29107E-04   -0.20184E-05  2448   0.707E-02    0.403E-03
DAV:  10    -0.132207683687E+03    0.32673E-04   -0.51744E-05  3058   0.123E-01    0.977E-03
DAV:  11    -0.132207679584E+03    0.41039E-05   -0.56325E-05  2756   0.585E-02
  17 F= -.13220768E+03 E0= -.13220645E+03  d E =-.316502E-02
       N       E                     dE             d eps       ncg     rms          rms(c)
DAV:   1    -0.132205793299E+03    0.18904E-02   -0.20853E+00  2620   0.608E+00    0.188E-01
DAV:   2    -0.132209906803E+03   -0.41135E-02   -0.45559E-02  2866   0.843E-01    0.108E-01
DAV:   3    -0.132209682917E+03    0.22389E-03   -0.67613E-04  3102   0.126E-01    0.779E-02
DAV:   4    -0.132209507547E+03    0.17537E-03   -0.65238E-04  2930   0.144E-01    0.328E-02
DAV:   5    -0.132209489410E+03    0.18137E-04   -0.24834E-04  2990   0.847E-02    0.325E-02
DAV:   6    -0.132209466144E+03    0.23266E-04   -0.10274E-04  2866   0.530E-02    0.134E-02
DAV:   7    -0.132209454328E+03    0.11816E-04   -0.26649E-05  2450   0.384E-02    0.857E-03
DAV:   8    -0.132209442090E+03    0.12238E-04   -0.97135E-06  2006   0.461E-02    0.105E-02
DAV:   9    -0.132209427894E+03    0.14196E-04   -0.20618E-05  2316   0.576E-02    0.475E-03
DAV:  10    -0.132209416861E+03    0.11033E-04   -0.10504E-05  1996   0.582E-02    0.567E-03
DAV:  11    -0.132209407952E+03    0.89096E-05   -0.17772E-05  2216   0.680E-02
  18 F= -.13220941E+03 E0= -.13220822E+03  d E =-.172837E-02
       N       E                     dE             d eps       ncg     rms          rms(c)
DAV:   1    -0.132208535410E+03    0.88145E-03   -0.59937E-01  2620   0.326E+00    0.102E-01
DAV:   2    -0.132209701247E+03   -0.11658E-02   -0.13055E-02  2872   0.453E-01    0.565E-02
DAV:   3    -0.132209641621E+03    0.59626E-04   -0.21212E-04  3052   0.677E-02    0.415E-02
DAV:   4    -0.132209593775E+03    0.47846E-04   -0.14065E-04  2876   0.694E-02    0.187E-02
DAV:   5    -0.132209582350E+03    0.11425E-04   -0.70171E-05  2830   0.504E-02    0.155E-02
DAV:   6    -0.132209574268E+03    0.80823E-05   -0.30220E-05  2438   0.323E-02
  19 F= -.13220957E+03 E0= -.13220841E+03  d E =-.189468E-02
       N       E                     dE             d eps       ncg     rms          rms(c)
DAV:   1    -0.132208885942E+03    0.69641E-03   -0.10444E+00  2628   0.419E+00    0.124E-01
DAV:   2    -0.132210763384E+03   -0.18774E-02   -0.21404E-02  2868   0.564E-01    0.793E-02
DAV:   3    -0.132210604154E+03    0.15923E-03   -0.25886E-04  3050   0.889E-02    0.555E-02
DAV:   4    -0.132210449654E+03    0.15450E-03   -0.58190E-04  3052   0.154E-01    0.221E-02
DAV:   5    -0.132210450958E+03   -0.13046E-05   -0.23200E-04  2834   0.646E-02    0.245E-02
DAV:   6    -0.132210443662E+03    0.72962E-05   -0.14522E-05  1576   0.162E-02
  20 F= -.13221044E+03 E0= -.13220930E+03  d E =-.869394E-03
       N       E                     dE             d eps       ncg     rms          rms(c)
DAV:   1    -0.132210413500E+03    0.37459E-04   -0.49238E-04  2816   0.941E-02    0.107E-02
DAV:   2    -0.132210399053E+03    0.14447E-04   -0.26606E-05  2366   0.381E-02    0.632E-03
DAV:   3    -0.132210387887E+03    0.11166E-04   -0.12861E-05  1638   0.280E-02    0.495E-03
DAV:   4    -0.132210374509E+03    0.13378E-04   -0.29066E-06  1694   0.230E-02    0.389E-03
DAV:   5    -0.132210310337E+03    0.64172E-04   -0.54545E-05  2946   0.131E-01    0.671E-03
DAV:   6    -0.132210290762E+03    0.19575E-04   -0.68962E-05  3104   0.806E-02    0.523E-03
DAV:   7    -0.132210281026E+03    0.97366E-05   -0.41543E-05  2752   0.697E-02
  21 F= -.13221028E+03 E0= -.13220912E+03  d E =-.706758E-03
       N       E                     dE             d eps       ncg     rms          rms(c)
DAV:   1    -0.132210281586E+03    0.91764E-05   -0.41084E-04  2634   0.891E-02    0.555E-03
DAV:   2    -0.132210282702E+03   -0.11155E-05   -0.26492E-05  2314   0.213E-02    0.616E-03
DAV:   3    -0.132210282086E+03    0.61507E-06   -0.19966E-06  1536   0.679E-03    0.453E-03
DAV:   4    -0.132210281271E+03    0.81561E-06   -0.18828E-06  1482   0.708E-03    0.205E-03
DAV:   5    -0.132210280748E+03    0.52300E-06   -0.15264E-06  1536   0.826E-03    0.202E-03
DAV:   6    -0.132210280503E+03    0.24491E-06   -0.10661E-06  1482   0.656E-03
  22 F= -.13221028E+03 E0= -.13220912E+03  d E =-.706235E-03
       N       E                     dE             d eps       ncg     rms          rms(c)
DAV:   1    -0.132210280759E+03   -0.10817E-07   -0.38099E-06  1476   0.947E-03    0.149E-03
DAV:   2    -0.132210280672E+03    0.86911E-07   -0.73121E-07  1440   0.434E-03    0.949E-04
DAV:   3    -0.132210280570E+03    0.10215E-06   -0.22145E-07  1380   0.241E-03    0.532E-04
DAV:   4    -0.132210280474E+03    0.95412E-07   -0.68351E-08  1392   0.206E-03    0.375E-04
DAV:   5    -0.132210280203E+03    0.27131E-06   -0.13146E-07  1512   0.614E-03    0.413E-04
DAV:   6    -0.132210280030E+03    0.17299E-06   -0.28274E-07  1482   0.610E-03
  23 F= -.13221028E+03 E0= -.13220911E+03  d E =-.705762E-03
       N       E                     dE             d eps       ncg     rms          rms(c)
DAV:   1    -0.132210279933E+03    0.27028E-06   -0.34639E-07  1576   0.843E-03    0.370E-04
DAV:   2    -0.132210279968E+03   -0.35813E-07   -0.56850E-07  1428   0.264E-03    0.713E-04
DAV:   3    -0.132210279964E+03    0.45611E-08   -0.62443E-08  1362   0.834E-04    0.702E-04
DAV:   4    -0.132210279955E+03    0.93214E-08   -0.13438E-08  1338   0.532E-04    0.563E-04
DAV:   5    -0.132210279942E+03    0.12661E-07   -0.21204E-07  1320   0.277E-03    0.740E-04
DAV:   6    -0.132210279930E+03    0.11478E-07   -0.80133E-08  1314   0.113E-03
  24 F= -.13221028E+03 E0= -.13220911E+03  d E =-.705663E-03
       N       E                     dE             d eps       ncg     rms          rms(c)
DAV:   1    -0.132210279925E+03    0.17061E-07   -0.89322E-09  1302   0.920E-04    0.787E-04
DAV:   2    -0.132210279912E+03    0.12510E-07   -0.96932E-08  1302   0.169E-03    0.138E-04
DAV:   3    -0.132210279916E+03   -0.35125E-08   -0.25918E-08  1302   0.765E-04    0.121E-04
DAV:   4    -0.132210279913E+03    0.30786E-08   -0.30676E-09  1302   0.319E-04    0.830E-05
DAV:   5    -0.132210279905E+03    0.75479E-08   -0.20484E-09  1302   0.602E-04    0.708E-05
DAV:   6    -0.132210279889E+03    0.16616E-07   -0.97218E-09  1320   0.178E-03
  25 F= -.13221028E+03 E0= -.13220911E+03  d E =-.705621E-03
       N       E                     dE             d eps       ncg     rms          rms(c)
DAV:   1    -0.132210279885E+03    0.20339E-07   -0.20142E-08  1314   0.110E-03    0.161E-04
DAV:   2    -0.132210279885E+03   -0.34652E-09   -0.15763E-08  1302   0.515E-04    0.102E-04
DAV:   3    -0.132210279884E+03    0.69576E-09   -0.24061E-09  1302   0.191E-04    0.672E-05
DAV:   4    -0.132210279884E+03    0.11005E-09   -0.80348E-10  1302   0.117E-04    0.276E-05
DAV:   5    -0.132210279885E+03   -0.17099E-09   -0.56931E-10  1302   0.234E-04    0.396E-05
DAV:   6    -0.132210279885E+03   -0.40109E-09   -0.56977E-10  1302   0.275E-04
  26 F= -.13221028E+03 E0= -.13220911E+03  d E =-.705617E-03
       N       E                     dE             d eps       ncg     rms          rms(c)
DAV:   1    -0.132210279884E+03    0.34379E-09   -0.11971E-09  1302   0.524E-04    0.333E-05
DAV:   2    -0.132210279883E+03    0.86857E-09   -0.18660E-09  1302   0.149E-04    0.494E-05
DAV:   3    -0.132210279883E+03    0.38744E-09   -0.23097E-10  1302   0.476E-05    0.524E-05
DAV:   4    -0.132210279883E+03    0.21646E-09   -0.75618E-11  1302   0.277E-05    0.580E-05
DAV:   5    -0.132210279883E+03   -0.12551E-09   -0.41722E-10  1302   0.122E-04    0.365E-05
DAV:   6    -0.132210279884E+03   -0.97225E-09   -0.64604E-09  1302   0.354E-04
  27 F= -.13221028E+03 E0= -.13220911E+03  d E =-.705616E-03
       N       E                     dE             d eps       ncg     rms          rms(c)
DAV:   1    -0.132208107126E+03    0.21728E-02   -0.10445E+00  2748   0.419E+00    0.122E-01
DAV:   2    -0.132209958083E+03   -0.18510E-02   -0.21233E-02  2854   0.563E-01    0.799E-02
DAV:   3    -0.132209801337E+03    0.15675E-03   -0.28260E-04  3048   0.903E-02    0.565E-02
DAV:   4    -0.132209655720E+03    0.14562E-03   -0.57837E-04  2950   0.146E-01    0.231E-02
DAV:   5    -0.132209656204E+03   -0.48389E-06   -0.22890E-04  2876   0.661E-02    0.259E-02
DAV:   6    -0.132209649381E+03    0.68226E-05   -0.20707E-05  1898   0.191E-02
  28 F= -.13220965E+03 E0= -.13220846E+03  d E =-.751134E-04
