 vasp.5.3.5 31Mar14 (build Apr 08 2024 10:12:10) complex                        
  
 executed on             LinuxIFC date 2024.07.29  21:18:40
 running on    8 total cores
 distrk:  each k-point on    8 cores,    1 groups
 distr:  one band on NCORES_PER_BAND=   4 cores,    2 groups


--------------------------------------------------------------------------------------------------------


 INCAR:
 POTCAR:    PAW_PBE O 08Apr2002                   
 POTCAR:    PAW_PBE Mg 13Apr2007                  
 POTCAR:    PAW_PBE Al 04Jan2001                  
 POTCAR:    PAW_PBE O 08Apr2002                   
   VRHFIN =O: s2p4                                                              
   LEXCH  = PE                                                                  
   EATOM  =   432.3788 eV,   31.7789 Ry                                         
                                                                                
   TITEL  = PAW_PBE O 08Apr2002                                                 
   LULTRA =        F    use ultrasoft PP ?                                      
   IUNSCR =        1    unscreen: 0-lin 1-nonlin 2-no                           
   RPACOR =    1.200    partial core radius                                     
   POMASS =   16.000; ZVAL   =    6.000    mass and valenz                      
   RCORE  =    1.520    outmost cutoff radius                                   
   RWIGS  =    1.550; RWIGS  =    0.820    wigner-seitz radius (au A)           
   ENMAX  =  400.000; ENMIN  =  300.000 eV                                      
   ICORE  =        2    local potential                                         
   LCOR   =        T    correct aug charges                                     
   LPAW   =        T    paw PP                                                  
   EAUG   =  605.392                                                            
   DEXC   =    0.000                                                            
   RMAX   =    1.553    core radius for proj-oper                               
   RAUG   =    1.300    factor for augmentation sphere                          
   RDEP   =    1.550    radius for radial grids                                 
   RDEPT  =    1.329    core radius for aug-charge                              
                                                                                
   Atomic configuration                                                         
    4 entries                                                                   
     n  l   j            E        occ.                                          
     1  0  0.50      -514.6923   2.0000                                         
     2  0  0.50       -23.9615   2.0000                                         
     2  1  0.50        -9.0305   4.0000                                         
     3  2  1.50        -9.5241   0.0000                                         
   Description                                                                  
     l       E           TYP  RCUT    TYP  RCUT                                 
     0    -23.9615318     23  1.200                                             
     0     -9.5240782     23  1.200                                             
     1     -9.0304911     23  1.520                                             
     1      8.1634956     23  1.520                                             
     2     -9.5240782      7  1.500                                             
  local pseudopotential read in
  partial core-charges read in
  partial kinetic energy density read in
  kinetic energy density of atom read in
  atomic valenz-charges read in
  non local Contribution for L=           0  read in
    real space projection operators read in
  non local Contribution for L=           0  read in
    real space projection operators read in
  non local Contribution for L=           1  read in
    real space projection operators read in
  non local Contribution for L=           1  read in
    real space projection operators read in
    PAW grid and wavefunctions read in
 
   number of l-projection  operators is LMAX  =           4
   number of lm-projection operators is LMMAX =           8
 
 POTCAR:    PAW_PBE Mg 13Apr2007                  
   VRHFIN =Mg: s2p0                                                             
   LEXCH  = PE                                                                  
   EATOM  =    23.0369 eV,    1.6932 Ry                                         
                                                                                
   TITEL  = PAW_PBE Mg 13Apr2007                                                
   LULTRA =        F    use ultrasoft PP ?                                      
   IUNSCR =        1    unscreen: 0-lin 1-nonlin 2-no                           
   RPACOR =    1.500    partial core radius                                     
   POMASS =   24.305; ZVAL   =    2.000    mass and valenz                      
   RCORE  =    2.000    outmost cutoff radius                                   
   RWIGS  =    2.880; RWIGS  =    1.524    wigner-seitz radius (au A)           
   ENMAX  =  200.000; ENMIN  =  100.000 eV                                      
   RCLOC  =    1.506    cutoff for local pot                                    
   LCOR   =        T    correct aug charges                                     
   LPAW   =        T    paw PP                                                  
   EAUG   =  454.734                                                            
   DEXC   =    0.000                                                            
   RMAX   =    2.045    core radius for proj-oper                               
   RAUG   =    1.300    factor for augmentation sphere                          
   RDEP   =    2.025    radius for radial grids                                 
   RDEPT  =    1.942    core radius for aug-charge                              
                                                                                
   Atomic configuration                                                         
    6 entries                                                                   
     n  l   j            E        occ.                                          
     1  0  0.50     -1259.6230   2.0000                                         
     2  0  0.50       -79.8442   2.0000                                         
     2  1  1.50       -46.6121   6.0000                                         
     3  0  0.50        -4.7055   2.0000                                         
     3  1  0.50        -1.3660   0.0000                                         
     3  2  1.50        -1.3606   0.0000                                         
   Description                                                                  
     l       E           TYP  RCUT    TYP  RCUT                                 
     0     -4.7054661     23  2.000                                             
     0     27.2116520     23  2.000                                             
     1      1.3605826     23  2.000                                             
     1     27.2116520     23  2.000                                             
     2     -1.3605826     23  2.000                                             
  local pseudopotential read in
  partial core-charges read in
  partial kinetic energy density read in
  atomic valenz-charges read in
  non local Contribution for L=           0  read in
    real space projection operators read in
  non local Contribution for L=           0  read in
    real space projection operators read in
  non local Contribution for L=           1  read in
    real space projection operators read in
  non local Contribution for L=           1  read in
    real space projection operators read in
  non local Contribution for L=           2  read in
    real space projection operators read in
    PAW grid and wavefunctions read in
 
   number of l-projection  operators is LMAX  =           5
   number of lm-projection operators is LMMAX =          13
 
 POTCAR:    PAW_PBE Al 04Jan2001                  
   VRHFIN =Al: s2p1                                                             
   LEXCH  = PE                                                                  
   EATOM  =    53.5387 eV,    3.9350 Ry                                         
                                                                                
   TITEL  = PAW_PBE Al 04Jan2001                                                
   LULTRA =        F    use ultrasoft PP ?                                      
   IUNSCR =        1    unscreen: 0-lin 1-nonlin 2-no                           
   RPACOR =    1.500    partial core radius                                     
   POMASS =   26.981; ZVAL   =    3.000    mass and valenz                      
   RCORE  =    1.900    outmost cutoff radius                                   
   RWIGS  =    2.650; RWIGS  =    1.402    wigner-seitz radius (au A)           
   ENMAX  =  240.300; ENMIN  =  180.225 eV                                      
   ICORE  =        2    local potential                                         
   LCOR   =        T    correct aug charges                                     
   LPAW   =        T    paw PP                                                  
   EAUG   =  291.052                                                            
   DEXC   =    0.000                                                            
   RMAX   =    1.939    core radius for proj-oper                               
   RAUG   =    1.300    factor for augmentation sphere                          
   RDEP   =    1.966    radius for radial grids                                 
   RDEPT  =    1.856    core radius for aug-charge                              
                                                                                
   Atomic configuration                                                         
    6 entries                                                                   
     n  l   j            E        occ.                                          
     1  0  0.50     -1511.1048   2.0000                                         
     2  0  0.50      -108.1629   2.0000                                         
     2  1  1.50       -69.6402   6.0000                                         
     3  0  0.50        -7.7528   2.0000                                         
     3  1  1.50        -2.7121   1.0000                                         
     3  2  2.50        -2.7212   0.0000                                         
   Description                                                                  
     l       E           TYP  RCUT    TYP  RCUT                                 
     0     -7.7528455     23  1.900                                             
     0     -3.3096929     23  1.900                                             
     1     -2.7120682     23  1.900                                             
     1     13.6058260     23  1.900                                             
     2     -2.7211652      7  1.900                                             
  local pseudopotential read in
  partial core-charges read in
  partial kinetic energy density read in
  atomic valenz-charges read in
  non local Contribution for L=           0  read in
    real space projection operators read in
  non local Contribution for L=           0  read in
    real space projection operators read in
  non local Contribution for L=           1  read in
    real space projection operators read in
  non local Contribution for L=           1  read in
    real space projection operators read in
    PAW grid and wavefunctions read in
 
   number of l-projection  operators is LMAX  =           4
   number of lm-projection operators is LMMAX =           8
 

 ----------------------------------------------------------------------------- 
|                                                                             |
|  ADVICE TO THIS USER RUNNING 'VASP/VAMP'   (HEAR YOUR MASTER'S VOICE ...):  |
|                                                                             |
|      You have a (more or less) 'large supercell' and for larger cells       |
|      it might be more efficient to use real space projection opertators     |
|      So try LREAL= Auto  in the INCAR   file.                               |
|      Mind: At the moment your POTCAR file does not contain real space       |
|       projectors, and has to be modified,  BUT if you                       |
|      want to do an extremely  accurate calculation you might also keep the  |
|      reciprocal projection scheme          (i.e. LREAL=.FALSE.)             |
|                                                                             |
 ----------------------------------------------------------------------------- 

  PAW_PBE O 08Apr2002                   :
 energy of atom  1       EATOM= -432.3788
 kinetic energy error for atom=    0.0208 (will be added to EATOM!!)
  PAW_PBE Mg 13Apr2007                  :
 energy of atom  2       EATOM=  -23.0369
 kinetic energy error for atom=    0.0000 (will be added to EATOM!!)
  PAW_PBE Al 04Jan2001                  :
 energy of atom  3       EATOM=  -53.5387
 kinetic energy error for atom=    0.0002 (will be added to EATOM!!)
 
 
 POSCAR: Layer                                   
  positions in direct lattice
  velocities in cartesian coordinates
 exchange correlation table for  LEXCH =        8
   RHO(1)=    0.500       N(1)  =     2000
   RHO(2)=  100.500       N(2)  =     4000
 


--------------------------------------------------------------------------------------------------------


 ion  position               nearest neighbor table
   1  0.000  0.000  0.366-  17 2.13  17 2.13  17 2.13  14 2.13  14 2.13  14 2.13
   2  0.333  0.667  0.419-  14 2.13  14 2.13  14 2.13  11 2.13  11 2.13  11 2.13
   3  0.000  0.000  0.526-  18 2.13  18 2.13  18 2.13  15 2.13  15 2.13  15 2.13
   4  0.333  0.667  0.579-  15 2.13  15 2.13  15 2.13  12 2.13  12 2.13  12 2.13
   5  0.000  0.000  0.685-  16 2.13  16 2.13  16 2.13  19 2.13  19 2.13  19 2.13
   6  0.333  0.667  0.738-  16 2.13  16 2.13  16 2.13  13 2.16  13 2.16  13 2.16
   7  0.667  0.333  0.313-  17 2.13  17 2.13  17 2.13  10 2.16  10 2.16  10 2.16
   8  0.667  0.333  0.473-  18 2.13  18 2.13  18 2.13  11 2.13  11 2.13  11 2.13
   9  0.667  0.333  0.632-  19 2.13  19 2.13  19 2.13  12 2.13  12 2.13  12 2.13
  10  0.000  0.000  0.285-   7 2.16   7 2.16   7 2.16  17 3.06  17 3.06  17 3.06
  11  0.000  0.000  0.446-   2 2.13   2 2.13   2 2.13   8 2.13   8 2.13   8 2.13  14 3.03  14 3.03
                            14 3.03  18 3.03  18 3.03  18 3.03
  12  0.000  0.000  0.606-   9 2.13   9 2.13   9 2.13   4 2.13   4 2.13   4 2.13  19 3.03  19 3.03
                            19 3.03  15 3.03  15 3.03  15 3.03
  13  0.000  0.000  0.766-   6 2.16   6 2.16   6 2.16  16 3.07  16 3.07  16 3.07
  14  0.667  0.333  0.393-   2 2.13   2 2.13   2 2.13   1 2.13   1 2.13   1 2.13  17 3.03  17 3.03
                            17 3.03  11 3.03  11 3.03  11 3.03
  15  0.667  0.333  0.552-   4 2.13   4 2.13   4 2.13   3 2.13   3 2.13   3 2.13  12 3.03  12 3.03
                            12 3.03  18 3.03  18 3.03  18 3.03
  16  0.667  0.333  0.712-   6 2.13   6 2.13   6 2.13   5 2.13   5 2.13   5 2.13  19 3.03  19 3.03
                            19 3.03  13 3.07  13 3.07  13 3.07
  17  0.333  0.667  0.340-   7 2.13   7 2.13   7 2.13   1 2.13   1 2.13   1 2.13  14 3.03  14 3.03
                            14 3.03  10 3.06  10 3.06  10 3.06
  18  0.333  0.667  0.499-   8 2.13   8 2.13   8 2.13   3 2.13   3 2.13   3 2.13  11 3.03  11 3.03
                            11 3.03  15 3.03  15 3.03  15 3.03
  19  0.333  0.667  0.659-   9 2.13   9 2.13   9 2.13   5 2.13   5 2.13   5 2.13  16 3.03  16 3.03
                            16 3.03  12 3.03  12 3.03  12 3.03
  20  0.000  0.000  0.026-  23 2.83  23 2.83  23 2.83  25 2.83  25 2.83  25 2.83
  21  0.000  0.000  0.171-  22 2.86  22 2.86  22 2.86
  22  0.667  0.333  0.122-  23 2.84  23 2.84  23 2.84  21 2.86  21 2.86  21 2.86
  23  0.333  0.667  0.074-  20 2.83  20 2.83  20 2.83  22 2.84  22 2.84  22 2.84
  24  0.000  0.000  0.881-  26 2.86  26 2.86  26 2.86
  25  0.667  0.333  0.978-  20 2.83  20 2.83  20 2.83  26 2.84  26 2.84  26 2.84
  26  0.333  0.667  0.929-  25 2.84  25 2.84  25 2.84  24 2.86  24 2.86  24 2.86
 
  LATTYP: Found a hexagonal cell.
 ALAT       =     2.9929628358
 C/A-ratio  =    15.6185372508
  
  Lattice vectors:
  
 A1 = (   2.5919820457,  -1.4964810762,   0.0000000000)
 A2 = (   0.0000000000,   2.9929621524,   0.0000000000)
 A3 = (   0.0000000000,  -0.0000000000,  46.7457015411)


Analysis of symmetry for initial positions (statically):
=====================================================================
 Subroutine PRICEL returns:
 Original cell was already a primitive cell.
 

 Routine SETGRP: Setting up the symmetry group for a 
 hexagonal supercell.


 Subroutine GETGRP returns: Found  6 space group operations
 (whereof  6 operations were pure point group operations)
 out of a pool of 24 trial point group operations.


The static configuration has the point symmetry C_3v.


Analysis of symmetry for dynamics (positions and initial velocities):
=====================================================================
 Subroutine PRICEL returns:
 Original cell was already a primitive cell.
 

 Routine SETGRP: Setting up the symmetry group for a 
 hexagonal supercell.


 Subroutine GETGRP returns: Found  6 space group operations
 (whereof  6 operations were pure point group operations)
 out of a pool of 24 trial point group operations.


The dynamic configuration has the point symmetry C_3v.


Analysis of constrained symmetry for selective dynamics:
=====================================================================
 Subroutine PRICEL returns:
 Original cell was already a primitive cell.
 

 Routine SETGRP: Setting up the symmetry group for a 
 hexagonal supercell.


 Subroutine GETGRP returns: Found  6 space group operations
 (whereof  6 operations were pure point group operations)
 out of a pool of 24 trial point group operations.


The constrained configuration has the point symmetry C_3v.
 
 
 KPOINTS: K-Spacing Value to Generate K-Mesh: 0.02

Automatic generation of k-mesh.
Space group operators:
 irot       det(A)        alpha          n_x          n_y          n_z        tau_x        tau_y        tau_z
    1     1.000000     0.000000     1.000000     0.000000     0.000000     0.000000     0.000000     0.000000
    2     1.000000   120.000000    -0.000000     0.000000    -1.000000     0.000000     0.000000     0.000000
    3     1.000000   120.000000    -0.000000    -0.000000     1.000000     0.000000     0.000000     0.000000
    4    -1.000000   180.000000    -0.866025     0.500000     0.000000     0.000000     0.000000     0.000000
    5    -1.000000   180.000000     0.000000     1.000000     0.000000     0.000000     0.000000     0.000000
    6    -1.000000   180.000000    -0.866025    -0.500000    -0.000000     0.000000     0.000000     0.000000
 
 Subroutine IBZKPT returns following result:
 ===========================================
 
 Found     21 irreducible k-points:
 
 Following reciprocal coordinates:
            Coordinates               Weight
  0.000000  0.000000  0.000000      1.000000
  0.076923  0.000000  0.000000      6.000000
  0.153846  0.000000  0.000000      6.000000
  0.230769  0.000000  0.000000      6.000000
  0.307692  0.000000  0.000000      6.000000
  0.384615  0.000000  0.000000      6.000000
  0.461538  0.000000  0.000000      6.000000
  0.076923  0.076923 -0.000000      6.000000
  0.153846  0.076923  0.000000     12.000000
  0.230769  0.076923 -0.000000     12.000000
  0.307692  0.076923 -0.000000     12.000000
  0.384615  0.076923 -0.000000     12.000000
  0.461538  0.076923  0.000000      6.000000
  0.153846  0.153846  0.000000      6.000000
  0.230769  0.153846  0.000000     12.000000
  0.307692  0.153846  0.000000     12.000000
  0.384615  0.153846  0.000000     12.000000
  0.230769  0.230769  0.000000      6.000000
  0.307692  0.230769  0.000000     12.000000
  0.384615  0.230769  0.000000      6.000000
  0.307692  0.307692  0.000000      6.000000
 
 Following cartesian coordinates:
            Coordinates               Weight
  0.000000  0.000000  0.000000      1.000000
  0.029677 -0.000000 -0.000000      6.000000
  0.059355 -0.000000 -0.000000      6.000000
  0.089032 -0.000000 -0.000000      6.000000
  0.118709 -0.000000 -0.000000      6.000000
  0.148387 -0.000000 -0.000000      6.000000
  0.178064 -0.000000 -0.000000      6.000000
  0.044516  0.025701  0.000000      6.000000
  0.074193  0.025701  0.000000     12.000000
  0.103871  0.025701  0.000000     12.000000
  0.133548  0.025701  0.000000     12.000000
  0.163225  0.025701  0.000000     12.000000
  0.192903  0.025701  0.000000      6.000000
  0.089032  0.051403  0.000000      6.000000
  0.118709  0.051403  0.000000     12.000000
  0.148387  0.051403  0.000000     12.000000
  0.178064  0.051403  0.000000     12.000000
  0.133548  0.077104  0.000000      6.000000
  0.163225  0.077104  0.000000     12.000000
  0.192903  0.077104  0.000000      6.000000
  0.178064  0.102805  0.000000      6.000000
 


--------------------------------------------------------------------------------------------------------




 Dimension of arrays:
   k-points           NKPTS =     21   k-points in BZ     NKDIM =     21   number of bands    NBANDS=     62
   number of dos      NEDOS =    301   number of ions     NIONS =     26
   non local maximal  LDIM  =      5   non local SUM 2l+1 LMDIM =     13
   total plane-waves  NPLWV = 201600
   max r-space proj   IRMAX =      1   max aug-charges    IRDMAX= 189102
   dimension x,y,z NGX =    24 NGY =   24 NGZ =  350
   dimension x,y,z NGXF=    48 NGYF=   48 NGZF=  700
   support grid    NGXF=    96 NGYF=   96 NGZF= 1400
   ions per type =               9  10   7
 NGX,Y,Z   is equivalent  to a cutoff of  13.33, 13.33, 12.45 a.u.
 NGXF,Y,Z  is equivalent  to a cutoff of  26.66, 26.66, 24.89 a.u.


 I would recommend the setting:
   dimension x,y,z NGX =    22 NGY =   22 NGZ =  348
 SYSTEM =  unknown system                          
 POSCAR =  Layer                                   

 Startparameter for this run:
   NWRITE =      2    write-flag & timer
   PREC   = accura    normal or accurate (medium, high low for compatibility)
   ISTART =      0    job   : 0-new  1-cont  2-samecut
   ICHARG =      2    charge: 1-file 2-atom 10-const
   ISPIN  =      1    spin polarized calculation?
   LNONCOLLINEAR =      F non collinear calculations
   LSORBIT =      F    spin-orbit coupling
   INIWAV =      1    electr: 0-lowe 1-rand  2-diag
   LASPH  =      F    aspherical Exc in radial PAW
   METAGGA=      F    non-selfconsistent MetaGGA calc.

 Electronic Relaxation 1
   ENCUT  =  520.0 eV  38.22 Ry    6.18 a.u.   5.56  5.56 86.92*2*pi/ulx,y,z
   ENINI  =  520.0     initial cutoff
   ENAUG  =  605.4 eV  augmentation charge cutoff
   NELM   =    100;   NELMIN=  6; NELMDL=  0     # of ELM steps 
   EDIFF  = 0.1E-04   stopping-criterion for ELM
   LREAL  =      F    real-space projection
   NLSPLINE    = F    spline interpolate recip. space projectors
   LCOMPAT=      F    compatible to vasp.4.4
   GGA_COMPAT  = T    GGA compatible to vasp.4.4-vasp.4.6
   LMAXPAW     = -100 max onsite density
   LMAXMIX     =    2 max onsite mixed and CHGCAR
   VOSKOWN=      0    Vosko Wilk Nusair interpolation
   ROPT   =    0.00000   0.00000   0.00000
 Ionic relaxation
   EDIFFG = -.2E-01   stopping-criterion for IOM
   NSW    =    500    number of steps for IOM
   NBLOCK =      1;   KBLOCK =    500    inner block; outer block 
   IBRION =      2    ionic relax: 0-MD 1-quasi-New 2-CG
   NFREE  =      1    steps in history (QN), initial steepest desc. (CG)
   ISIF   =      2    stress and relaxation
   IWAVPR =     11    prediction:  0-non 1-charg 2-wave 3-comb
   ISYM   =      2    0-nonsym 1-usesym 2-fastsym
   LCORR  =      T    Harris-Foulkes like correction to forces

   POTIM  = 0.5000    time-step for ionic-motion
   TEIN   =    0.0    initial temperature
   TEBEG  =    0.0;   TEEND  =   0.0 temperature during run
   SMASS  =  -3.00    Nose mass-parameter (am)
   estimated Nose-frequenzy (Omega)   =  0.10E-29 period in steps =****** mass=  -0.205E-27a.u.
   SCALEE = 1.0000    scale energy and forces
   NPACO  =    256;   APACO  = 16.0  distance and # of slots for P.C.
   PSTRESS=    0.0 pullay stress

  Mass of Ions in am
   POMASS =  16.00 24.30 26.98
  Ionic Valenz
   ZVAL   =   6.00  2.00  3.00
  Atomic Wigner-Seitz radii
   RWIGS  =  -1.00 -1.00 -1.00
  virtual crystal weights 
   VCA    =   1.00  1.00  1.00
   NELECT =      95.0000    total number of electrons
   NUPDOWN=      -1.0000    fix difference up-down

 DOS related values:
   EMIN   =  10.00;   EMAX   =-10.00  energy-range for DOS
   EFERMI =   0.00
   ISMEAR =     0;   SIGMA  =   0.05  broadening in eV -4-tet -1-fermi 0-gaus

 Electronic relaxation 2 (details)
   IALGO  =     38    algorithm
   LDIAG  =      T    sub-space diagonalisation (order eigenvalues)
   LSUBROT=      F    optimize rotation matrix (better conditioning)
   TURBO    =      0    0=normal 1=particle mesh
   IRESTART =      0    0=no restart 2=restart with 2 vectors
   NREBOOT  =      0    no. of reboots
   NMIN     =      0    reboot dimension
   EREF     =   0.00    reference energy to select bands
   IMIX   =      4    mixing-type and parameters
     AMIX     =   0.40;   BMIX     =  1.00
     AMIX_MAG =   1.60;   BMIX_MAG =  1.00
     AMIN     =   0.01
     WC   =   100.;   INIMIX=   1;  MIXPRE=   1;  MAXMIX= -45

 Intra band minimization:
   WEIMIN = 0.0010     energy-eigenvalue tresh-hold
   EBREAK =  0.40E-07  absolut break condition
   DEPER  =   0.30     relativ break condition  

   TIME   =   0.40     timestep for ELM

  volume/ion in A,a.u.               =      13.95        94.12
  Fermi-wavevector in a.u.,A,eV,Ry     =   1.047509  1.979505 14.929332  1.097275
  Thomas-Fermi vector in A             =   2.182392
 
 Write flags
   LWAVE  =      F    write WAVECAR
   LCHARG =      T    write CHGCAR
   LVTOT  =      F    write LOCPOT, total local potential
   LVHAR  =      F    write LOCPOT, Hartree potential only
   LELF   =      F    write electronic localiz. function (ELF)
   LORBIT =      0    0 simple, 1 ext, 2 COOP (PROOUT)


 Dipole corrections
   LMONO  =      F    monopole corrections only (constant potential shift)
   LDIPOL =      F    correct potential (dipole corrections)
   IDIPOL =      0    1-x, 2-y, 3-z, 4-all directions 
   EPSILON=  1.0000000 bulk dielectric constant

 Exchange correlation treatment:
   GGA     =    --    GGA type
   LEXCH   =     8    internal setting for exchange type
   VOSKOWN=      0    Vosko Wilk Nusair interpolation
   LHFCALC =     F    Hartree Fock is set to
   LHFONE  =     F    Hartree Fock one center treatment
   AEXX    =    0.0000 exact exchange contribution

 Linear response parameters
   LEPSILON=     F    determine dielectric tensor
   LRPA    =     F    only Hartree local field effects (RPA)
   LNABLA  =     F    use nabla operator in PAW spheres
   LVEL    =     F    velocity operator in full k-point grid
   LINTERFAST=   F  fast interpolation
   KINTER  =     0    interpolate to denser k-point grid
   CSHIFT  =0.1000    complex shift for real part using Kramers Kronig
   OMEGAMAX=  -1.0    maximum frequency
   DEG_THRESHOLD= 0.2000000E-02 threshold for treating states as degnerate
   RTIME   =    0.100 relaxation time in fs

 Orbital magnetization related:
   ORBITALMAG=     F  switch on orbital magnetization
   LCHIMAG   =     F  perturbation theory with respect to B field
   DQ        =  0.001000  dq finite difference perturbation B field



--------------------------------------------------------------------------------------------------------


 conjugate gradient relaxation of ions
   using selective dynamics as specified on POSCAR
 charge density and potential will be updated during run
 non-spin polarized calculation
 Variant of blocked Davidson
 Davidson routine will perform the subspace rotation
 perform sub-space diagonalisation
    after iterative eigenvector-optimisation
 modified Broyden-mixing scheme, WC =      100.0
 initial mixing is a Kerker type mixing with AMIX =  0.4000 and BMIX =      1.0000
 Hartree-type preconditioning will be used
 using additional bands           14
 reciprocal scheme for non local part
 use partial core corrections
 calculate Harris-corrections to forces 
   (improved forces if not selfconsistent)
 use gradient corrections 
 use of overlap-Matrix (Vanderbilt PP)
 Gauss-broadening in eV      SIGMA  =   0.05


--------------------------------------------------------------------------------------------------------


  energy-cutoff  :      520.00
  volume of cell :      362.64
      direct lattice vectors                 reciprocal lattice vectors
     2.591982046 -1.496481076  0.000000000     0.385805142 -0.000000000 -0.000000000
     0.000000000  2.992962152  0.000000000     0.192902571  0.334117155  0.000000000
     0.000000000 -0.000000000 46.745701541     0.000000000  0.000000000  0.021392341

  length of vectors
     2.992962836  2.992962152 46.745701541     0.385805142  0.385805230  0.021392341


 
 k-points in units of 2pi/SCALE and weight: K-Spacing Value to Generate K-Mesh: 0.02
   0.00000000  0.00000000  0.00000000       0.006
   0.02967732 -0.00000000 -0.00000000       0.036
   0.05935464 -0.00000000 -0.00000000       0.036
   0.08903196 -0.00000000 -0.00000000       0.036
   0.11870927 -0.00000000 -0.00000000       0.036
   0.14838659 -0.00000000 -0.00000000       0.036
   0.17806391 -0.00000000 -0.00000000       0.036
   0.04451598  0.02570132  0.00000000       0.036
   0.07419330  0.02570132  0.00000000       0.071
   0.10387062  0.02570132  0.00000000       0.071
   0.13354793  0.02570132  0.00000000       0.071
   0.16322525  0.02570132  0.00000000       0.071
   0.19290257  0.02570132  0.00000000       0.036
   0.08903196  0.05140264  0.00000000       0.036
   0.11870927  0.05140264  0.00000000       0.071
   0.14838659  0.05140264  0.00000000       0.071
   0.17806391  0.05140264  0.00000000       0.071
   0.13354793  0.07710396  0.00000000       0.036
   0.16322525  0.07710396  0.00000000       0.071
   0.19290257  0.07710396  0.00000000       0.036
   0.17806391  0.10280528  0.00000000       0.036
 
 k-points in reciprocal lattice and weights: K-Spacing Value to Generate K-Mesh: 0.02
   0.00000000  0.00000000  0.00000000       0.006
   0.07692308  0.00000000  0.00000000       0.036
   0.15384615  0.00000000  0.00000000       0.036
   0.23076923  0.00000000  0.00000000       0.036
   0.30769231  0.00000000  0.00000000       0.036
   0.38461538  0.00000000  0.00000000       0.036
   0.46153846  0.00000000  0.00000000       0.036
   0.07692308  0.07692308 -0.00000000       0.036
   0.15384615  0.07692308  0.00000000       0.071
   0.23076923  0.07692308 -0.00000000       0.071
   0.30769231  0.07692308 -0.00000000       0.071
   0.38461538  0.07692308 -0.00000000       0.071
   0.46153846  0.07692308  0.00000000       0.036
   0.15384615  0.15384615  0.00000000       0.036
   0.23076923  0.15384615  0.00000000       0.071
   0.30769231  0.15384615  0.00000000       0.071
   0.38461538  0.15384615  0.00000000       0.071
   0.23076923  0.23076923  0.00000000       0.036
   0.30769231  0.23076923  0.00000000       0.071
   0.38461538  0.23076923  0.00000000       0.036
   0.30769231  0.30769231  0.00000000       0.036
 
 position of ions in fractional coordinates (direct lattice) 
   0.00000000  0.00000000  0.36622610
   0.33333300  0.66666700  0.41938817
   0.00000000  0.00000000  0.52579234
   0.33333300  0.66666700  0.57900035
   0.00000000  0.00000000  0.68537046
   0.33333300  0.66666700  0.73842744
   0.66666700  0.33333300  0.31316137
   0.66666700  0.33333300  0.47258742
   0.66666700  0.33333300  0.63220169
   0.00000000  0.00000000  0.28549593
   0.00000000  0.00000000  0.44598429
   0.00000000  0.00000000  0.60560493
   0.00000000  0.00000000  0.76609695
   0.66666700  0.33333300  0.39281388
   0.66666700  0.33333300  0.55239875
   0.66666700  0.33333300  0.71194002
   0.33333300  0.66666700  0.33964432
   0.33333300  0.66666700  0.49918755
   0.33333300  0.66666700  0.65877563
   0.00000000  0.00000000  0.02577415
   0.00000000  0.00000000  0.17079481
   0.66666700  0.33333300  0.12208643
   0.33333300  0.66666700  0.07381856
   0.00000000  0.00000000  0.88075242
   0.66666700  0.33333300  0.97772962
   0.33333300  0.66666700  0.92946143
 
 position of ions in cartesian coordinates  (Angst):
   0.00000000 -0.00000000 17.11949615
   0.86399315  1.49648257 19.60459419
   0.00000000 -0.00000000 24.57853162
   0.86399315  1.49648257 27.06577755
   0.00000000 -0.00000000 32.03812284
   0.86399315  1.49648257 34.51830853
   1.72798889 -0.00000150 14.63894799
   1.72798889 -0.00000150 22.09143057
   1.72798889 -0.00000150 29.55271149
   0.00000000 -0.00000000 13.34570750
   0.00000000 -0.00000000 20.84784846
   0.00000000 -0.00000000 28.30942743
   0.00000000 -0.00000000 35.81173952
   1.72798889 -0.00000150 18.36236042
   1.72798889 -0.00000150 25.82226723
   1.72798889 -0.00000150 33.28013552
   0.86399315  1.49648257 15.87691193
   0.86399315  1.49648257 23.33487207
   0.86399315  1.49648257 30.79492881
   0.00000000 -0.00000000  1.20483068
   0.00000000 -0.00000000  7.98392301
   1.72798889 -0.00000150  5.70701602
   0.86399315  1.49648257  3.45070016
   0.00000000 -0.00000000 41.17138991
   1.72798889 -0.00000150 45.70465691
   0.86399315  1.49648257 43.44832682
 


--------------------------------------------------------------------------------------------------------


 k-point  1 :   0.0000 0.0000 0.0000  plane waves:    9917
 k-point  2 :   0.0769 0.0000 0.0000  plane waves:    9895
 k-point  3 :   0.1538 0.0000 0.0000  plane waves:    9863
 k-point  4 :   0.2308 0.0000 0.0000  plane waves:    9830
 k-point  5 :   0.3077 0.0000 0.0000  plane waves:    9758
 k-point  6 :   0.3846 0.0000 0.0000  plane waves:    9710
 k-point  7 :   0.4615 0.0000 0.0000  plane waves:    9712
 k-point  8 :   0.0769 0.0769-0.0000  plane waves:    9869
 k-point  9 :   0.1538 0.0769 0.0000  plane waves:    9844
 k-point 10 :   0.2308 0.0769-0.0000  plane waves:    9787
 k-point 11 :   0.3077 0.0769-0.0000  plane waves:    9746
 k-point 12 :   0.3846 0.0769-0.0000  plane waves:    9712
 k-point 13 :   0.4615 0.0769 0.0000  plane waves:    9680
 k-point 14 :   0.1538 0.1538 0.0000  plane waves:    9803
 k-point 15 :   0.2308 0.1538 0.0000  plane waves:    9762
 k-point 16 :   0.3077 0.1538 0.0000  plane waves:    9730
 k-point 17 :   0.3846 0.1538 0.0000  plane waves:    9704
 k-point 18 :   0.2308 0.2308 0.0000  plane waves:    9756
 k-point 19 :   0.3077 0.2308 0.0000  plane waves:    9717
 k-point 20 :   0.3846 0.2308 0.0000  plane waves:    9724
 k-point 21 :   0.3077 0.3077 0.0000  plane waves:    9762

 maximum and minimum number of plane-waves per node :      2497     2397

 maximum number of plane-waves:      9917
 maximum index in each direction: 
   IXMAX=    5   IYMAX=    5   IZMAX=   86
   IXMIN=   -6   IYMIN=   -5   IZMIN=  -86

 NGX is ok and might be reduce to  24
 NGY is ok and might be reduce to  22
 NGZ is ok and might be reduce to 346

 parallel 3D FFT for wavefunctions:
    minimum data exchange during FFTs selected (reduces bandwidth)
 parallel 3D FFT for charge:
    minimum data exchange during FFTs selected (reduces bandwidth)


 total amount of memory used by VASP on root node   158320. kBytes
========================================================================

   base      :      30000. kBytes
   nonl-proj :      17224. kBytes
   fftplans  :      60350. kBytes
   grid      :      24192. kBytes
   one-center:         56. kBytes
   wavefun   :      26498. kBytes
 
     INWAV:  cpu time    0.00: real time    0.00
 Broyden mixing: mesh for mixing (old mesh)
   NGX = 11   NGY = 11   NGZ =173
  (NGX  = 48   NGY  = 48   NGZ  =700)
  gives a total of  20933 points

 initial charge density was supplied:
 charge density of overlapping atoms calculated
 number of electron      95.0000000 magnetization 
 keeping initial charge density in first step


--------------------------------------------------------------------------------------------------------


 Maximum index for augmentation-charges        22774 (set IRDMAX)


--------------------------------------------------------------------------------------------------------


 First call to EWALD:  gamma=   0.249
 Maximum number of real-space cells 7x 7x 1
 Maximum number of reciprocal cells 1x 1x15

 FEWALD executed in parallel
    FEWALD:  cpu time    0.00: real time    0.00


----------------------------------------- Iteration    1(   1)  ---------------------------------------


    POTLOK:  cpu time    0.11: real time    0.11
    SETDIJ:  cpu time    0.11: real time    0.11
     EDDAV:  cpu time    4.78: real time    4.81
       DOS:  cpu time    0.00: real time    0.00
    --------------------------------------------
      LOOP:  cpu time    5.01: real time    5.04

 eigenvalue-minimisations  :  2628
 total energy-change (2. order) : 0.5090756E+03  (-0.4078782E+04)
 number of electron      95.0000000 magnetization 
 augmentation part       95.0000000 magnetization 

 Free energy of the ion-electron system (eV)
  ---------------------------------------------------
  alpha Z        PSCENC =       111.49972831
  Ewald energy   TEWEN  =     23919.13236046
  -Hartree energ DENC   =    -28544.08309419
  -exchange      EXHF   =         0.00000000
  -V(xc)+E(xc)   XCENC  =      -419.42870519
  PAW double counting   =      4235.41334458    -3509.29226066
  entropy T*S    EENTRO =        -0.00600257
  eigenvalues    EBANDS =       219.48048481
  atomic energy  EATOM  =      4496.35971583
  ---------------------------------------------------
  free energy    TOTEN  =       509.07557138 eV

  energy without entropy =      509.08157395  energy(sigma->0) =      509.07857266


--------------------------------------------------------------------------------------------------------




----------------------------------------- Iteration    1(   2)  ---------------------------------------


     EDDAV:  cpu time    5.67: real time    5.67
       DOS:  cpu time    0.00: real time    0.00
    --------------------------------------------
      LOOP:  cpu time    5.67: real time    5.68

 eigenvalue-minimisations  :  3420
 total energy-change (2. order) :-0.5907981E+03  (-0.5605008E+03)
 number of electron      95.0000000 magnetization 
 augmentation part       95.0000000 magnetization 

 Free energy of the ion-electron system (eV)
  ---------------------------------------------------
  alpha Z        PSCENC =       111.49972831
  Ewald energy   TEWEN  =     23919.13236046
  -Hartree energ DENC   =    -28544.08309419
  -exchange      EXHF   =         0.00000000
  -V(xc)+E(xc)   XCENC  =      -419.42870519
  PAW double counting   =      4235.41334458    -3509.29226066
  entropy T*S    EENTRO =        -0.00592815
  eigenvalues    EBANDS =      -371.31771955
  atomic energy  EATOM  =      4496.35971583
  ---------------------------------------------------
  free energy    TOTEN  =       -81.72255856 eV

  energy without entropy =      -81.71663041  energy(sigma->0) =      -81.71959449


--------------------------------------------------------------------------------------------------------




----------------------------------------- Iteration    1(   3)  ---------------------------------------


     EDDAV:  cpu time    5.35: real time    5.36
       DOS:  cpu time    0.00: real time    0.00
    --------------------------------------------
      LOOP:  cpu time    5.35: real time    5.36

 eigenvalue-minimisations  :  3056
 total energy-change (2. order) :-0.6529385E+02  (-0.6484563E+02)
 number of electron      95.0000000 magnetization 
 augmentation part       95.0000000 magnetization 

 Free energy of the ion-electron system (eV)
  ---------------------------------------------------
  alpha Z        PSCENC =       111.49972831
  Ewald energy   TEWEN  =     23919.13236046
  -Hartree energ DENC   =    -28544.08309419
  -exchange      EXHF   =         0.00000000
  -V(xc)+E(xc)   XCENC  =      -419.42870519
  PAW double counting   =      4235.41334458    -3509.29226066
  entropy T*S    EENTRO =        -0.00744400
  eigenvalues    EBANDS =      -436.61005134
  atomic energy  EATOM  =      4496.35971583
  ---------------------------------------------------
  free energy    TOTEN  =      -147.01640620 eV

  energy without entropy =     -147.00896220  energy(sigma->0) =     -147.01268420


--------------------------------------------------------------------------------------------------------




----------------------------------------- Iteration    1(   4)  ---------------------------------------


     EDDAV:  cpu time    5.24: real time    5.25
       DOS:  cpu time    0.00: real time    0.00
    --------------------------------------------
      LOOP:  cpu time    5.25: real time    5.25

 eigenvalue-minimisations  :  3056
 total energy-change (2. order) :-0.1295059E+01  (-0.1291911E+01)
 number of electron      95.0000000 magnetization 
 augmentation part       95.0000000 magnetization 

 Free energy of the ion-electron system (eV)
  ---------------------------------------------------
  alpha Z        PSCENC =       111.49972831
  Ewald energy   TEWEN  =     23919.13236046
  -Hartree energ DENC   =    -28544.08309419
  -exchange      EXHF   =         0.00000000
  -V(xc)+E(xc)   XCENC  =      -419.42870519
  PAW double counting   =      4235.41334458    -3509.29226066
  entropy T*S    EENTRO =        -0.00744823
  eigenvalues    EBANDS =      -437.90510570
  atomic energy  EATOM  =      4496.35971583
  ---------------------------------------------------
  free energy    TOTEN  =      -148.31146480 eV

  energy without entropy =     -148.30401657  energy(sigma->0) =     -148.30774068


--------------------------------------------------------------------------------------------------------




----------------------------------------- Iteration    1(   5)  ---------------------------------------


     EDDAV:  cpu time    5.52: real time    5.52
       DOS:  cpu time    0.00: real time    0.00
    CHARGE:  cpu time    0.45: real time    0.45
    MIXING:  cpu time    0.02: real time    0.02
    --------------------------------------------
      LOOP:  cpu time    5.98: real time    5.99

 eigenvalue-minimisations  :  3298
 total energy-change (2. order) :-0.3240638E-01  (-0.3238347E-01)
 number of electron      95.0000001 magnetization 
 augmentation part        6.9262078 magnetization 

 Broyden mixing:
  rms(total) = 0.22136E+01    rms(broyden)= 0.22131E+01
  rms(prec ) = 0.22928E+01
  weight for this iteration     100.00

 Free energy of the ion-electron system (eV)
  ---------------------------------------------------
  alpha Z        PSCENC =       111.49972831
  Ewald energy   TEWEN  =     23919.13236046
  -Hartree energ DENC   =    -28544.08309419
  -exchange      EXHF   =         0.00000000
  -V(xc)+E(xc)   XCENC  =      -419.42870519
  PAW double counting   =      4235.41334458    -3509.29226066
  entropy T*S    EENTRO =        -0.00745863
  eigenvalues    EBANDS =      -437.93750168
  atomic energy  EATOM  =      4496.35971583
  ---------------------------------------------------
  free energy    TOTEN  =      -148.34387118 eV

  energy without entropy =     -148.33641254  energy(sigma->0) =     -148.34014186


--------------------------------------------------------------------------------------------------------




----------------------------------------- Iteration    1(   6)  ---------------------------------------


    POTLOK:  cpu time    0.12: real time    0.12
    SETDIJ:  cpu time    0.12: real time    0.12
     EDDAV:  cpu time    5.04: real time    5.05
       DOS:  cpu time    0.00: real time    0.00
    CHARGE:  cpu time    0.42: real time    0.42
    MIXING:  cpu time    0.01: real time    0.01
    --------------------------------------------
      LOOP:  cpu time    5.71: real time    5.72

 eigenvalue-minimisations  :  2872
 total energy-change (2. order) : 0.1592545E+02  (-0.8677982E+01)
 number of electron      95.0000001 magnetization 
 augmentation part        5.6211729 magnetization 

 Broyden mixing:
  rms(total) = 0.73396E+00    rms(broyden)= 0.73297E+00
  rms(prec ) = 0.74002E+00
  weight for this iteration     100.00

 eigenvalues of (default mixing * dielectric matrix)
  average eigenvalue GAMMA=   0.8491
  0.8491

 Free energy of the ion-electron system (eV)
  ---------------------------------------------------
  alpha Z        PSCENC =       111.49972831
  Ewald energy   TEWEN  =     23919.13236046
  -Hartree energ DENC   =    -28720.92456294
  -exchange      EXHF   =         0.00000000
  -V(xc)+E(xc)   XCENC  =      -407.23661102
  PAW double counting   =      5050.39899321    -4327.44107510
  entropy T*S    EENTRO =        -0.00480240
  eigenvalues    EBANDS =      -254.20216555
  atomic energy  EATOM  =      4496.35971583
  ---------------------------------------------------
  free energy    TOTEN  =      -132.41841921 eV

  energy without entropy =     -132.41361680  energy(sigma->0) =     -132.41601800


--------------------------------------------------------------------------------------------------------




----------------------------------------- Iteration    1(   7)  ---------------------------------------


    POTLOK:  cpu time    0.11: real time    0.11
    SETDIJ:  cpu time    0.12: real time    0.12
     EDDAV:  cpu time    5.11: real time    5.12
       DOS:  cpu time    0.00: real time    0.00
    CHARGE:  cpu time    0.41: real time    0.41
    MIXING:  cpu time    0.00: real time    0.00
    --------------------------------------------
      LOOP:  cpu time    5.76: real time    5.77

 eigenvalue-minimisations  :  2916
 total energy-change (2. order) : 0.1053358E+00  (-0.1774409E+00)
 number of electron      95.0000001 magnetization 
 augmentation part        5.6561485 magnetization 

 Broyden mixing:
  rms(total) = 0.44918E+00    rms(broyden)= 0.44917E+00
  rms(prec ) = 0.45371E+00
  weight for this iteration     100.00

 eigenvalues of (default mixing * dielectric matrix)
  average eigenvalue GAMMA=   1.6374
  0.9816  2.2932

 Free energy of the ion-electron system (eV)
  ---------------------------------------------------
  alpha Z        PSCENC =       111.49972831
  Ewald energy   TEWEN  =     23919.13236046
  -Hartree energ DENC   =    -28722.68070784
  -exchange      EXHF   =         0.00000000
  -V(xc)+E(xc)   XCENC  =      -406.77269674
  PAW double counting   =      5342.78169587    -4619.40878825
  entropy T*S    EENTRO =        -0.00304158
  eigenvalues    EBANDS =      -253.22134942
  atomic energy  EATOM  =      4496.35971583
  ---------------------------------------------------
  free energy    TOTEN  =      -132.31308336 eV

  energy without entropy =     -132.31004178  energy(sigma->0) =     -132.31156257


--------------------------------------------------------------------------------------------------------




----------------------------------------- Iteration    1(   8)  ---------------------------------------


    POTLOK:  cpu time    0.11: real time    0.11
    SETDIJ:  cpu time    0.11: real time    0.11
     EDDAV:  cpu time    5.18: real time    5.18
       DOS:  cpu time    0.00: real time    0.00
    CHARGE:  cpu time    0.44: real time    0.44
    MIXING:  cpu time    0.01: real time    0.01
    --------------------------------------------
      LOOP:  cpu time    5.84: real time    5.85

 eigenvalue-minimisations  :  2996
 total energy-change (2. order) : 0.1057959E+00  (-0.4380088E-01)
 number of electron      95.0000001 magnetization 
 augmentation part        5.6912815 magnetization 

 Broyden mixing:
  rms(total) = 0.77692E-01    rms(broyden)= 0.77663E-01
  rms(prec ) = 0.95720E-01
  weight for this iteration     100.00

 eigenvalues of (default mixing * dielectric matrix)
  average eigenvalue GAMMA=   1.3642
  2.4197  0.9470  0.7261

 Free energy of the ion-electron system (eV)
  ---------------------------------------------------
  alpha Z        PSCENC =       111.49972831
  Ewald energy   TEWEN  =     23919.13236046
  -Hartree energ DENC   =    -28733.97736086
  -exchange      EXHF   =         0.00000000
  -V(xc)+E(xc)   XCENC  =      -405.32235995
  PAW double counting   =      5842.56535912    -5118.91527841
  entropy T*S    EENTRO =        -0.00504922
  eigenvalues    EBANDS =      -243.54440277
  atomic energy  EATOM  =      4496.35971583
  ---------------------------------------------------
  free energy    TOTEN  =      -132.20728748 eV

  energy without entropy =     -132.20223826  energy(sigma->0) =     -132.20476287


--------------------------------------------------------------------------------------------------------




----------------------------------------- Iteration    1(   9)  ---------------------------------------


    POTLOK:  cpu time    0.11: real time    0.11
    SETDIJ:  cpu time    0.11: real time    0.11
     EDDAV:  cpu time    5.08: real time    5.09
       DOS:  cpu time    0.00: real time    0.00
    CHARGE:  cpu time    0.41: real time    0.41
    MIXING:  cpu time    0.01: real time    0.01
    --------------------------------------------
      LOOP:  cpu time    5.72: real time    5.73

 eigenvalue-minimisations  :  2956
 total energy-change (2. order) : 0.1836427E-01  (-0.5635596E-02)
 number of electron      95.0000001 magnetization 
 augmentation part        5.6761936 magnetization 

 Broyden mixing:
  rms(total) = 0.39794E-01    rms(broyden)= 0.39792E-01
  rms(prec ) = 0.42176E-01
  weight for this iteration     100.00

 eigenvalues of (default mixing * dielectric matrix)
  average eigenvalue GAMMA=   1.4328
  2.5195  1.5103  0.9744  0.7268

 Free energy of the ion-electron system (eV)
  ---------------------------------------------------
  alpha Z        PSCENC =       111.49972831
  Ewald energy   TEWEN  =     23919.13236046
  -Hartree energ DENC   =    -28738.04814065
  -exchange      EXHF   =         0.00000000
  -V(xc)+E(xc)   XCENC  =      -404.99950944
  PAW double counting   =      5866.18450147    -5142.56456760
  entropy T*S    EENTRO =        -0.00384359
  eigenvalues    EBANDS =      -239.74916799
  atomic energy  EATOM  =      4496.35971583
  ---------------------------------------------------
  free energy    TOTEN  =      -132.18892321 eV

  energy without entropy =     -132.18507962  energy(sigma->0) =     -132.18700142


--------------------------------------------------------------------------------------------------------




----------------------------------------- Iteration    1(  10)  ---------------------------------------


    POTLOK:  cpu time    0.11: real time    0.11
    SETDIJ:  cpu time    0.11: real time    0.11
     EDDAV:  cpu time    5.46: real time    5.47
       DOS:  cpu time    0.00: real time    0.00
    CHARGE:  cpu time    0.41: real time    0.41
    MIXING:  cpu time    0.01: real time    0.01
    --------------------------------------------
      LOOP:  cpu time    6.10: real time    6.11

 eigenvalue-minimisations  :  3144
 total energy-change (2. order) :-0.1762252E-02  (-0.3105816E-02)
 number of electron      95.0000001 magnetization 
 augmentation part        5.6589071 magnetization 

 Broyden mixing:
  rms(total) = 0.27796E-01    rms(broyden)= 0.27786E-01
  rms(prec ) = 0.30433E-01
  weight for this iteration     100.00

 eigenvalues of (default mixing * dielectric matrix)
  average eigenvalue GAMMA=   1.3730
  2.5689  2.0460  0.9390  0.6593  0.6518

 Free energy of the ion-electron system (eV)
  ---------------------------------------------------
  alpha Z        PSCENC =       111.49972831
  Ewald energy   TEWEN  =     23919.13236046
  -Hartree energ DENC   =    -28742.06006905
  -exchange      EXHF   =         0.00000000
  -V(xc)+E(xc)   XCENC  =      -404.74565389
  PAW double counting   =      5843.44840684    -5119.86971649
  entropy T*S    EENTRO =        -0.00371005
  eigenvalues    EBANDS =      -235.95174742
  atomic energy  EATOM  =      4496.35971583
  ---------------------------------------------------
  free energy    TOTEN  =      -132.19068546 eV

  energy without entropy =     -132.18697541  energy(sigma->0) =     -132.18883044


--------------------------------------------------------------------------------------------------------




----------------------------------------- Iteration    1(  11)  ---------------------------------------


    POTLOK:  cpu time    0.11: real time    0.11
    SETDIJ:  cpu time    0.11: real time    0.11
     EDDAV:  cpu time    5.61: real time    5.62
       DOS:  cpu time    0.00: real time    0.00
    CHARGE:  cpu time    0.41: real time    0.41
    MIXING:  cpu time    0.00: real time    0.00
    --------------------------------------------
      LOOP:  cpu time    6.24: real time    6.25

 eigenvalue-minimisations  :  3340
 total energy-change (2. order) : 0.3087413E-03  (-0.2037154E-03)
 number of electron      95.0000001 magnetization 
 augmentation part        5.6607293 magnetization 

 Broyden mixing:
  rms(total) = 0.17151E-01    rms(broyden)= 0.17151E-01
  rms(prec ) = 0.20040E-01
  weight for this iteration     100.00

 eigenvalues of (default mixing * dielectric matrix)
  average eigenvalue GAMMA=   1.4896
  3.0187  2.4831  0.9634  0.9164  0.9164  0.6398

 Free energy of the ion-electron system (eV)
  ---------------------------------------------------
  alpha Z        PSCENC =       111.49972831
  Ewald energy   TEWEN  =     23919.13236046
  -Hartree energ DENC   =    -28742.71275107
  -exchange      EXHF   =         0.00000000
  -V(xc)+E(xc)   XCENC  =      -404.73462398
  PAW double counting   =      5818.47468584    -5094.89877431
  entropy T*S    EENTRO =        -0.00366373
  eigenvalues    EBANDS =      -235.30705408
  atomic energy  EATOM  =      4496.35971583
  ---------------------------------------------------
  free energy    TOTEN  =      -132.19037672 eV

  energy without entropy =     -132.18671299  energy(sigma->0) =     -132.18854486


--------------------------------------------------------------------------------------------------------




----------------------------------------- Iteration    1(  12)  ---------------------------------------


    POTLOK:  cpu time    0.11: real time    0.11
    SETDIJ:  cpu time    0.11: real time    0.11
     EDDAV:  cpu time    5.79: real time    5.80
       DOS:  cpu time    0.00: real time    0.00
    CHARGE:  cpu time    0.41: real time    0.41
    MIXING:  cpu time    0.01: real time    0.01
    --------------------------------------------
      LOOP:  cpu time    6.43: real time    6.44

 eigenvalue-minimisations  :  3470
 total energy-change (2. order) : 0.7616343E-03  (-0.2679903E-03)
 number of electron      95.0000001 magnetization 
 augmentation part        5.6638214 magnetization 

 Broyden mixing:
  rms(total) = 0.51600E-02    rms(broyden)= 0.51557E-02
  rms(prec ) = 0.10241E-01
  weight for this iteration     100.00

 eigenvalues of (default mixing * dielectric matrix)
  average eigenvalue GAMMA=   1.4374
  2.9342  2.5324  1.0328  1.0328  0.9444  0.9444  0.6405

 Free energy of the ion-electron system (eV)
  ---------------------------------------------------
  alpha Z        PSCENC =       111.49972831
  Ewald energy   TEWEN  =     23919.13236046
  -Hartree energ DENC   =    -28743.86697787
  -exchange      EXHF   =         0.00000000
  -V(xc)+E(xc)   XCENC  =      -404.72923583
  PAW double counting   =      5790.27369985    -5066.70190703
  entropy T*S    EENTRO =        -0.00368871
  eigenvalues    EBANDS =      -234.15331010
  atomic energy  EATOM  =      4496.35971583
  ---------------------------------------------------
  free energy    TOTEN  =      -132.18961509 eV

  energy without entropy =     -132.18592638  energy(sigma->0) =     -132.18777073


--------------------------------------------------------------------------------------------------------




----------------------------------------- Iteration    1(  13)  ---------------------------------------


    POTLOK:  cpu time    0.11: real time    0.11
    SETDIJ:  cpu time    0.11: real time    0.11
     EDDAV:  cpu time    5.22: real time    5.23
       DOS:  cpu time    0.00: real time    0.00
    CHARGE:  cpu time    0.41: real time    0.41
    MIXING:  cpu time    0.01: real time    0.01
    --------------------------------------------
      LOOP:  cpu time    5.86: real time    5.87

 eigenvalue-minimisations  :  3042
 total energy-change (2. order) : 0.4357547E-03  (-0.6483402E-04)
 number of electron      95.0000001 magnetization 
 augmentation part        5.6641301 magnetization 

 Broyden mixing:
  rms(total) = 0.36494E-02    rms(broyden)= 0.36489E-02
  rms(prec ) = 0.92731E-02
  weight for this iteration     100.00

 eigenvalues of (default mixing * dielectric matrix)
  average eigenvalue GAMMA=   1.4816
  3.2081  2.5862  1.4464  1.0085  1.0085  1.0573  0.6618  0.8760

 Free energy of the ion-electron system (eV)
  ---------------------------------------------------
  alpha Z        PSCENC =       111.49972831
  Ewald energy   TEWEN  =     23919.13236046
  -Hartree energ DENC   =    -28744.40925921
  -exchange      EXHF   =         0.00000000
  -V(xc)+E(xc)   XCENC  =      -404.73836772
  PAW double counting   =      5788.87220971    -5065.29987816
  entropy T*S    EENTRO =        -0.00372596
  eigenvalues    EBANDS =      -233.60196260
  atomic energy  EATOM  =      4496.35971583
  ---------------------------------------------------
  free energy    TOTEN  =      -132.18917933 eV

  energy without entropy =     -132.18545337  energy(sigma->0) =     -132.18731635


--------------------------------------------------------------------------------------------------------




----------------------------------------- Iteration    1(  14)  ---------------------------------------


    POTLOK:  cpu time    0.11: real time    0.11
    SETDIJ:  cpu time    0.11: real time    0.11
     EDDAV:  cpu time    5.51: real time    5.52
       DOS:  cpu time    0.00: real time    0.00
    CHARGE:  cpu time    0.43: real time    0.43
    MIXING:  cpu time    0.01: real time    0.01
    --------------------------------------------
      LOOP:  cpu time    6.16: real time    6.17

 eigenvalue-minimisations  :  3316
 total energy-change (2. order) : 0.1079754E-02  (-0.5004701E-04)
 number of electron      95.0000001 magnetization 
 augmentation part        5.6641472 magnetization 

 Broyden mixing:
  rms(total) = 0.44431E-02    rms(broyden)= 0.44426E-02
  rms(prec ) = 0.84668E-02
  weight for this iteration     100.00

 eigenvalues of (default mixing * dielectric matrix)
  average eigenvalue GAMMA=   1.4580
  3.2239  2.5329  2.0646  0.9543  0.9543  0.9969  0.9969  0.6599  0.7380

 Free energy of the ion-electron system (eV)
  ---------------------------------------------------
  alpha Z        PSCENC =       111.49972831
  Ewald energy   TEWEN  =     23919.13236046
  -Hartree energ DENC   =    -28745.97334774
  -exchange      EXHF   =         0.00000000
  -V(xc)+E(xc)   XCENC  =      -404.74320486
  PAW double counting   =      5784.38103952    -5060.80766334
  entropy T*S    EENTRO =        -0.00376790
  eigenvalues    EBANDS =      -232.03295986
  atomic energy  EATOM  =      4496.35971583
  ---------------------------------------------------
  free energy    TOTEN  =      -132.18809958 eV

  energy without entropy =     -132.18433168  energy(sigma->0) =     -132.18621563


--------------------------------------------------------------------------------------------------------




----------------------------------------- Iteration    1(  15)  ---------------------------------------


    POTLOK:  cpu time    0.11: real time    0.11
    SETDIJ:  cpu time    0.12: real time    0.12
     EDDAV:  cpu time    5.63: real time    5.64
       DOS:  cpu time    0.00: real time    0.00
    CHARGE:  cpu time    0.42: real time    0.42
    MIXING:  cpu time    0.01: real time    0.01
    --------------------------------------------
      LOOP:  cpu time    6.29: real time    6.31

 eigenvalue-minimisations  :  3396
 total energy-change (2. order) : 0.5057157E-03  (-0.2938484E-04)
 number of electron      95.0000001 magnetization 
 augmentation part        5.6641271 magnetization 

 Broyden mixing:
  rms(total) = 0.42159E-02    rms(broyden)= 0.42157E-02
  rms(prec ) = 0.77320E-02
  weight for this iteration     100.00

 eigenvalues of (default mixing * dielectric matrix)
  average eigenvalue GAMMA=   1.4555
  3.5070  2.6023  2.1585  0.6567  0.9714  0.9714  0.9150  0.9150  0.9288  0.9288

 Free energy of the ion-electron system (eV)
  ---------------------------------------------------
  alpha Z        PSCENC =       111.49972831
  Ewald energy   TEWEN  =     23919.13236046
  -Hartree energ DENC   =    -28746.77679565
  -exchange      EXHF   =         0.00000000
  -V(xc)+E(xc)   XCENC  =      -404.74215458
  PAW double counting   =      5786.17968702    -5062.60590740
  entropy T*S    EENTRO =        -0.00378795
  eigenvalues    EBANDS =      -231.23043990
  atomic energy  EATOM  =      4496.35971583
  ---------------------------------------------------
  free energy    TOTEN  =      -132.18759386 eV

  energy without entropy =     -132.18380592  energy(sigma->0) =     -132.18569989


--------------------------------------------------------------------------------------------------------




----------------------------------------- Iteration    1(  16)  ---------------------------------------


    POTLOK:  cpu time    0.11: real time    0.11
    SETDIJ:  cpu time    0.12: real time    0.12
     EDDAV:  cpu time    6.76: real time    6.77
       DOS:  cpu time    0.00: real time    0.00
    CHARGE:  cpu time    0.40: real time    0.40
    MIXING:  cpu time    0.01: real time    0.01
    --------------------------------------------
      LOOP:  cpu time    7.40: real time    7.41

 eigenvalue-minimisations  :  4270
 total energy-change (2. order) : 0.2092195E-02  (-0.2860356E-03)
 number of electron      95.0000001 magnetization 
 augmentation part        5.6637586 magnetization 

 Broyden mixing:
  rms(total) = 0.45964E-02    rms(broyden)= 0.45944E-02
  rms(prec ) = 0.55682E-02
  weight for this iteration     100.00

 eigenvalues of (default mixing * dielectric matrix)
  average eigenvalue GAMMA=   1.6239
  4.6461  2.7608  2.2641  1.7170  1.0292  1.0292  1.0341  1.0341  0.9532  0.6657
  0.7292

 Free energy of the ion-electron system (eV)
  ---------------------------------------------------
  alpha Z        PSCENC =       111.49972831
  Ewald energy   TEWEN  =     23919.13236046
  -Hartree energ DENC   =    -28751.14892295
  -exchange      EXHF   =         0.00000000
  -V(xc)+E(xc)   XCENC  =      -404.74742331
  PAW double counting   =      5781.87401612    -5058.30128811
  entropy T*S    EENTRO =        -0.00392893
  eigenvalues    EBANDS =      -226.84975911
  atomic energy  EATOM  =      4496.35971583
  ---------------------------------------------------
  free energy    TOTEN  =      -132.18550167 eV

  energy without entropy =     -132.18157274  energy(sigma->0) =     -132.18353721


--------------------------------------------------------------------------------------------------------




----------------------------------------- Iteration    1(  17)  ---------------------------------------


    POTLOK:  cpu time    0.11: real time    0.11
    SETDIJ:  cpu time    0.12: real time    0.12
     EDDAV:  cpu time    5.47: real time    5.48
       DOS:  cpu time    0.00: real time    0.00
    CHARGE:  cpu time    0.41: real time    0.41
    MIXING:  cpu time    0.01: real time    0.01
    --------------------------------------------
      LOOP:  cpu time    6.12: real time    6.13

 eigenvalue-minimisations  :  3104
 total energy-change (2. order) : 0.7385490E-04  (-0.2558406E-03)
 number of electron      95.0000001 magnetization 
 augmentation part        5.6644230 magnetization 

 Broyden mixing:
  rms(total) = 0.62438E-02    rms(broyden)= 0.62426E-02
  rms(prec ) = 0.65706E-02
  weight for this iteration     100.00

 eigenvalues of (default mixing * dielectric matrix)
  average eigenvalue GAMMA=   1.5105
  4.6433  2.7701  2.2970  1.6736  1.0579  1.0579  1.0322  1.0322  0.9647  0.6669
  0.7360  0.1941

 Free energy of the ion-electron system (eV)
  ---------------------------------------------------
  alpha Z        PSCENC =       111.49972831
  Ewald energy   TEWEN  =     23919.13236046
  -Hartree energ DENC   =    -28752.21092845
  -exchange      EXHF   =         0.00000000
  -V(xc)+E(xc)   XCENC  =      -404.75386524
  PAW double counting   =      5783.79294820    -5060.21835138
  entropy T*S    EENTRO =        -0.00396630
  eigenvalues    EBANDS =      -225.78306925
  atomic energy  EATOM  =      4496.35971583
  ---------------------------------------------------
  free energy    TOTEN  =      -132.18542781 eV

  energy without entropy =     -132.18146152  energy(sigma->0) =     -132.18344467


--------------------------------------------------------------------------------------------------------




----------------------------------------- Iteration    1(  18)  ---------------------------------------


    POTLOK:  cpu time    0.11: real time    0.11
    SETDIJ:  cpu time    0.11: real time    0.11
     EDDAV:  cpu time    5.03: real time    5.04
       DOS:  cpu time    0.00: real time    0.00
    CHARGE:  cpu time    0.41: real time    0.41
    MIXING:  cpu time    0.01: real time    0.01
    --------------------------------------------
      LOOP:  cpu time    5.67: real time    5.67

 eigenvalue-minimisations  :  2886
 total energy-change (2. order) : 0.7034838E-05  (-0.6635579E-04)
 number of electron      95.0000001 magnetization 
 augmentation part        5.6646813 magnetization 

 Broyden mixing:
  rms(total) = 0.59120E-02    rms(broyden)= 0.59115E-02
  rms(prec ) = 0.62004E-02
  weight for this iteration     100.00

 eigenvalues of (default mixing * dielectric matrix)
  average eigenvalue GAMMA=   1.5024
  4.5076  2.9063  2.1969  2.1969  1.1613  1.1613  1.0431  1.0431  0.8547  0.8547
  0.6609  0.4721  0.4721

 Free energy of the ion-electron system (eV)
  ---------------------------------------------------
  alpha Z        PSCENC =       111.49972831
  Ewald energy   TEWEN  =     23919.13236046
  -Hartree energ DENC   =    -28752.22621888
  -exchange      EXHF   =         0.00000000
  -V(xc)+E(xc)   XCENC  =      -404.75567336
  PAW double counting   =      5784.77000101    -5061.19462888
  entropy T*S    EENTRO =        -0.00397142
  eigenvalues    EBANDS =      -225.76673385
  atomic energy  EATOM  =      4496.35971583
  ---------------------------------------------------
  free energy    TOTEN  =      -132.18542078 eV

  energy without entropy =     -132.18144936  energy(sigma->0) =     -132.18343507


--------------------------------------------------------------------------------------------------------




----------------------------------------- Iteration    1(  19)  ---------------------------------------


    POTLOK:  cpu time    0.11: real time    0.11
    SETDIJ:  cpu time    0.11: real time    0.11
     EDDAV:  cpu time    5.38: real time    5.38
       DOS:  cpu time    0.00: real time    0.00
    CHARGE:  cpu time    0.41: real time    0.41
    MIXING:  cpu time    0.01: real time    0.01
    --------------------------------------------
      LOOP:  cpu time    6.01: real time    6.02

 eigenvalue-minimisations  :  3142
 total energy-change (2. order) : 0.1162917E-03  (-0.4357822E-04)
 number of electron      95.0000001 magnetization 
 augmentation part        5.6649386 magnetization 

 Broyden mixing:
  rms(total) = 0.16229E-02    rms(broyden)= 0.16207E-02
  rms(prec ) = 0.20101E-02
  weight for this iteration     100.00

 eigenvalues of (default mixing * dielectric matrix)
  average eigenvalue GAMMA=   1.6681
  6.4421  3.2062  2.6595  2.4044  1.0703  1.0703  1.1210  1.0459  1.0459  0.7897
  0.6593  0.6983  0.6983  0.4416

 Free energy of the ion-electron system (eV)
  ---------------------------------------------------
  alpha Z        PSCENC =       111.49972831
  Ewald energy   TEWEN  =     23919.13236046
  -Hartree energ DENC   =    -28752.61295011
  -exchange      EXHF   =         0.00000000
  -V(xc)+E(xc)   XCENC  =      -404.76272012
  PAW double counting   =      5786.09541720    -5062.51819670
  entropy T*S    EENTRO =        -0.00399846
  eigenvalues    EBANDS =      -225.37466089
  atomic energy  EATOM  =      4496.35971583
  ---------------------------------------------------
  free energy    TOTEN  =      -132.18530449 eV

  energy without entropy =     -132.18130603  energy(sigma->0) =     -132.18330526


--------------------------------------------------------------------------------------------------------




----------------------------------------- Iteration    1(  20)  ---------------------------------------


    POTLOK:  cpu time    0.11: real time    0.11
    SETDIJ:  cpu time    0.11: real time    0.11
     EDDAV:  cpu time    5.85: real time    5.86
       DOS:  cpu time    0.00: real time    0.00
    CHARGE:  cpu time    0.41: real time    0.41
    MIXING:  cpu time    0.01: real time    0.01
    --------------------------------------------
      LOOP:  cpu time    6.49: real time    6.50

 eigenvalue-minimisations  :  3526
 total energy-change (2. order) : 0.2887773E-04  (-0.2341362E-04)
 number of electron      95.0000001 magnetization 
 augmentation part        5.6645996 magnetization 

 Broyden mixing:
  rms(total) = 0.32033E-02    rms(broyden)= 0.32025E-02
  rms(prec ) = 0.33230E-02
  weight for this iteration     100.00

 eigenvalues of (default mixing * dielectric matrix)
  average eigenvalue GAMMA=   1.9467
 10.1465  3.8473  2.7146  2.3349  1.5098  1.0988  1.0988  1.0469  0.9798  0.9798
  0.8638  0.8638  0.6576  0.5287  0.5287

 Free energy of the ion-electron system (eV)
  ---------------------------------------------------
  alpha Z        PSCENC =       111.49972831
  Ewald energy   TEWEN  =     23919.13236046
  -Hartree energ DENC   =    -28753.17646256
  -exchange      EXHF   =         0.00000000
  -V(xc)+E(xc)   XCENC  =      -404.75711221
  PAW double counting   =      5788.15013384    -5064.57445408
  entropy T*S    EENTRO =        -0.00402566
  eigenvalues    EBANDS =      -224.81515954
  atomic energy  EATOM  =      4496.35971583
  ---------------------------------------------------
  free energy    TOTEN  =      -132.18527561 eV

  energy without entropy =     -132.18124996  energy(sigma->0) =     -132.18326278


--------------------------------------------------------------------------------------------------------




----------------------------------------- Iteration    1(  21)  ---------------------------------------


    POTLOK:  cpu time    0.11: real time    0.11
    SETDIJ:  cpu time    0.11: real time    0.11
     EDDAV:  cpu time    6.00: real time    6.00
       DOS:  cpu time    0.00: real time    0.00
    CHARGE:  cpu time    0.41: real time    0.41
    MIXING:  cpu time    0.01: real time    0.01
    --------------------------------------------
      LOOP:  cpu time    6.63: real time    6.64

 eigenvalue-minimisations  :  3642
 total energy-change (2. order) : 0.3617696E-04  (-0.1986379E-04)
 number of electron      95.0000001 magnetization 
 augmentation part        5.6641623 magnetization 

 Broyden mixing:
  rms(total) = 0.12453E-02    rms(broyden)= 0.12448E-02
  rms(prec ) = 0.13202E-02
  weight for this iteration     100.00

 eigenvalues of (default mixing * dielectric matrix)
  average eigenvalue GAMMA=   2.1777
 13.7815  4.4221  2.6970  2.5976  1.6393  1.1481  1.1481  1.1337  1.0059  1.0059
  0.9027  0.9027  0.6587  0.7118  0.5443  0.5443

 Free energy of the ion-electron system (eV)
  ---------------------------------------------------
  alpha Z        PSCENC =       111.49972831
  Ewald energy   TEWEN  =     23919.13236046
  -Hartree energ DENC   =    -28753.47608920
  -exchange      EXHF   =         0.00000000
  -V(xc)+E(xc)   XCENC  =      -404.75332516
  PAW double counting   =      5788.38870388    -5064.81519797
  entropy T*S    EENTRO =        -0.00403404
  eigenvalues    EBANDS =      -224.51710155
  atomic energy  EATOM  =      4496.35971583
  ---------------------------------------------------
  free energy    TOTEN  =      -132.18523943 eV

  energy without entropy =     -132.18120540  energy(sigma->0) =     -132.18322241


--------------------------------------------------------------------------------------------------------




----------------------------------------- Iteration    1(  22)  ---------------------------------------


    POTLOK:  cpu time    0.11: real time    0.11
    SETDIJ:  cpu time    0.10: real time    0.10
     EDDAV:  cpu time    5.13: real time    5.14
       DOS:  cpu time    0.00: real time    0.00
    CHARGE:  cpu time    0.42: real time    0.42
    MIXING:  cpu time    0.01: real time    0.01
    --------------------------------------------
      LOOP:  cpu time    5.78: real time    5.79

 eigenvalue-minimisations  :  2946
 total energy-change (2. order) :-0.8628404E-05  (-0.1653721E-04)
 number of electron      95.0000001 magnetization 
 augmentation part        5.6646027 magnetization 

 Broyden mixing:
  rms(total) = 0.20131E-02    rms(broyden)= 0.20125E-02
  rms(prec ) = 0.20507E-02
  weight for this iteration     100.00

 eigenvalues of (default mixing * dielectric matrix)
  average eigenvalue GAMMA=   2.2155
 15.1443  4.5227  2.8625  2.5226  1.8580  1.1723  1.1723  1.1084  1.1084  1.0206
  1.0206  0.8976  0.6572  0.7424  0.7424  0.5554  0.5554

 Free energy of the ion-electron system (eV)
  ---------------------------------------------------
  alpha Z        PSCENC =       111.49972831
  Ewald energy   TEWEN  =     23919.13236046
  -Hartree energ DENC   =    -28753.55769987
  -exchange      EXHF   =         0.00000000
  -V(xc)+E(xc)   XCENC  =      -404.75628025
  PAW double counting   =      5787.43357024    -5063.85920299
  entropy T*S    EENTRO =        -0.00403288
  eigenvalues    EBANDS =      -224.43340691
  atomic energy  EATOM  =      4496.35971583
  ---------------------------------------------------
  free energy    TOTEN  =      -132.18524806 eV

  energy without entropy =     -132.18121518  energy(sigma->0) =     -132.18323162


--------------------------------------------------------------------------------------------------------




----------------------------------------- Iteration    1(  23)  ---------------------------------------


    POTLOK:  cpu time    0.11: real time    0.11
    SETDIJ:  cpu time    0.12: real time    0.12
     EDDAV:  cpu time    4.35: real time    4.35
       DOS:  cpu time    0.00: real time    0.00
    --------------------------------------------
      LOOP:  cpu time    4.58: real time    4.59

 eigenvalue-minimisations  :  2334
 total energy-change (2. order) : 0.1226987E-05  (-0.3408242E-05)
 number of electron      95.0000001 magnetization 
 augmentation part        5.6646027 magnetization 

 Free energy of the ion-electron system (eV)
  ---------------------------------------------------
  alpha Z        PSCENC =       111.49972831
  Ewald energy   TEWEN  =     23919.13236046
  -Hartree energ DENC   =    -28753.60571941
  -exchange      EXHF   =         0.00000000
  -V(xc)+E(xc)   XCENC  =      -404.75646211
  PAW double counting   =      5786.85167783    -5063.27715495
  entropy T*S    EENTRO =        -0.00402857
  eigenvalues    EBANDS =      -224.38536422
  atomic energy  EATOM  =      4496.35971583
  ---------------------------------------------------
  free energy    TOTEN  =      -132.18524683 eV

  energy without entropy =     -132.18121826  energy(sigma->0) =     -132.18323255


--------------------------------------------------------------------------------------------------------




 average (electrostatic) potential at core
  the test charge radii are     0.7215  1.0714  1.0406
  (the norm of the test charge is              1.0000)
       1 -70.8544       2 -70.8536       3 -70.8526       4 -70.8541       5 -70.8569
       6 -70.9752       7 -70.9777       8 -70.8525       9 -70.8568      10 -36.9258
      11 -36.4318      12 -36.4343      13 -36.9245      14 -36.4246      15 -36.4339
      16 -36.4460      17 -36.4474      18 -36.4328      19 -36.4279      20 -75.4259
      21 -75.5391      22 -75.4419      23 -75.4296      24 -75.5390      25 -75.4295
      26 -75.4418
 
 
 
 E-fermi :   5.1983     XC(G=0):  -9.6157     alpha+bet :-11.3116


 k-point     1 :       0.0000    0.0000    0.0000
  band No.  band energies     occupation 
      1     -15.1879      2.00000
      2     -15.1250      2.00000
      3     -15.0172      2.00000
      4     -14.8717      2.00000
      5     -14.6978      2.00000
      6     -14.5105      2.00000
      7     -14.3303      2.00000
      8     -14.1802      2.00000
      9     -14.0795      2.00000
     10      -5.3501      2.00000
     11      -4.9207      2.00000
     12      -4.2640      2.00000
     13      -3.3749      2.00000
     14      -2.5922      2.00000
     15      -2.4120      2.00000
     16      -2.2566      2.00000
     17      -2.0968      2.00000
     18      -1.6486      2.00000
     19      -1.0852      2.00000
     20      -0.9127      2.00000
     21      -0.4348      2.00000
     22       0.2626      2.00000
     23       0.7246      2.00000
     24       0.9561      2.00000
     25       1.3596      2.00000
     26       1.3596      2.00000
     27       1.3910      2.00000
     28       1.3910      2.00000
     29       1.4475      2.00000
     30       1.4475      2.00000
     31       1.5229      2.00000
     32       1.5229      2.00000
     33       1.5402      2.00000
     34       1.6123      2.00000
     35       1.6123      2.00000
     36       1.7080      2.00000
     37       1.7080      2.00000
     38       1.7982      2.00000
     39       1.7982      2.00000
     40       1.8712      2.00000
     41       1.8712      2.00000
     42       1.9207      2.00000
     43       1.9207      2.00000
     44       2.0664      2.00000
     45       2.9606      2.00000
     46       3.0036      2.00000
     47       4.1339      2.00000
     48       5.9628      0.00000
     49       6.4728      0.00000
     50       6.9244      0.00000
     51       7.2321      0.00000
     52       7.8861      0.00000
     53       7.8907      0.00000
     54       8.6080      0.00000
     55       8.8177      0.00000
     56       9.3219      0.00000
     57       9.4970      0.00000
     58       9.6703      0.00000
     59       9.7701      0.00000
     60      10.6592      0.00000
     61      11.6744      0.00000
     62      13.0240      0.00000

 k-point     2 :       0.0769    0.0000    0.0000
  band No.  band energies     occupation 
      1     -15.1345      2.00000
      2     -15.0732      2.00000
      3     -14.9680      2.00000
      4     -14.8261      2.00000
      5     -14.6566      2.00000
      6     -14.4741      2.00000
      7     -14.2988      2.00000
      8     -14.1532      2.00000
      9     -14.0555      2.00000
     10      -5.2200      2.00000
     11      -4.7908      2.00000
     12      -4.1346      2.00000
     13      -3.2462      2.00000
     14      -2.5117      2.00000
[...]
      8     -13.8357      2.00000
      9     -13.7782      2.00000
     10      -1.9483      2.00000
     11      -1.8136      2.00000
     12      -1.8064      2.00000
     13      -1.7483      2.00000
     14      -1.7420      2.00000
     15      -1.6255      2.00000
     16      -1.6095      2.00000
     17      -1.5138      2.00000
     18      -1.5060      2.00000
     19      -1.4302      2.00000
     20      -1.1950      2.00000
     21      -0.9901      2.00000
     22      -0.8622      2.00000
     23      -0.7026      2.00000
     24      -0.4309      2.00000
     25      -0.1608      2.00000
     26       0.0264      2.00000
     27       0.1005      2.00000
     28       0.1362      2.00000
     29       0.1450      2.00000
     30       0.2155      2.00000
     31       0.3066      2.00000
     32       0.3395      2.00000
     33       0.3498      2.00000
     34       0.4333      2.00000
     35       0.5597      2.00000
     36       0.7275      2.00000
     37       0.8404      2.00000
     38       0.9508      2.00000
     39       1.1029      2.00000
     40       1.1444      2.00000
     41       1.2430      2.00000
     42       2.4697      2.00000
     43       4.0473      2.00000
     44       4.4721      2.00000
     45       4.4999      2.00000
     46       4.7855      2.00000
     47       4.9935      2.00000
     48       5.3771      0.00000
     49       5.5992      0.00000
     50       5.6429      0.00000
     51       5.6836      0.00000
     52       5.9165      0.00000
     53       6.3889      0.00000
     54       6.5772      0.00000
     55       7.4139      0.00000
     56       7.6650      0.00000
     57       7.9822      0.00000
     58       8.8745      0.00000
     59       9.0980      0.00000
     60       9.5704      0.00000
     61      10.1351      0.00000
     62      10.2336      0.00000

 k-point    19 :       0.3077    0.2308    0.0000
  band No.  band energies     occupation 
      1     -14.0621      2.00000
      2     -14.0556      2.00000
      3     -14.0075      2.00000
      4     -13.9744      2.00000
      5     -13.9333      2.00000
      6     -13.8989      2.00000
      7     -13.8489      2.00000
      8     -13.8111      2.00000
      9     -13.7696      2.00000
     10      -2.0131      2.00000
     11      -1.9354      2.00000
     12      -1.7938      2.00000
     13      -1.7651      2.00000
     14      -1.7247      2.00000
     15      -1.6427      2.00000
     16      -1.6126      2.00000
     17      -1.4585      2.00000
     18      -1.2856      2.00000
     19      -0.8802      2.00000
     20      -0.7425      2.00000
     21      -0.6812      2.00000
     22      -0.5920      2.00000
     23      -0.4179      2.00000
     24      -0.2797      2.00000
     25      -0.2506      2.00000
     26      -0.2257      2.00000
     27      -0.1622      2.00000
     28      -0.0862      2.00000
     29       0.0727      2.00000
     30       0.1764      2.00000
     31       0.2319      2.00000
     32       0.3938      2.00000
     33       0.4059      2.00000
     34       0.5782      2.00000
     35       0.7033      2.00000
     36       0.7657      2.00000
     37       0.8748      2.00000
     38       0.9636      2.00000
     39       1.0847      2.00000
     40       1.2694      2.00000
     41       2.3551      2.00000
     42       2.5624      2.00000
     43       2.9707      2.00000
     44       3.4256      2.00000
     45       3.8036      2.00000
     46       4.1476      2.00000
     47       4.4814      2.00000
     48       4.6130      2.00000
     49       5.0905      1.99881
     50       5.4314      0.00000
     51       5.8013      0.00000
     52       6.2470      0.00000
     53       6.5436      0.00000
     54       6.5886      0.00000
     55       6.7578      0.00000
     56       7.0564      0.00000
     57       7.4504      0.00000
     58       8.5956      0.00000
     59       8.6458      0.00000
     60       9.0002      0.00000
     61       9.3529      0.00000
     62       9.3743      0.00000

 k-point    20 :       0.3846    0.2308    0.0000
  band No.  band energies     occupation 
      1     -13.9850      2.00000
      2     -13.9838      2.00000
      3     -13.9303      2.00000
      4     -13.9089      2.00000
      5     -13.8970      2.00000
      6     -13.8751      2.00000
      7     -13.8433      2.00000
      8     -13.8163      2.00000
      9     -13.7863      2.00000
     10      -2.0968      2.00000
     11      -2.0110      2.00000
     12      -1.8464      2.00000
     13      -1.6689      2.00000
     14      -1.6410      2.00000
     15      -1.6199      2.00000
     16      -1.5872      2.00000
     17      -1.5222      2.00000
     18      -1.5103      2.00000
     19      -0.7159      2.00000
     20      -0.7020      2.00000
     21      -0.6154      2.00000
     22      -0.5773      2.00000
     23      -0.5482      2.00000
     24      -0.5026      2.00000
     25      -0.3817      2.00000
     26      -0.1985      2.00000
     27       0.0022      2.00000
     28       0.2773      2.00000
     29       0.2981      2.00000
     30       0.5065      2.00000
     31       0.5476      2.00000
     32       0.6356      2.00000
     33       0.7167      2.00000
     34       0.8240      2.00000
     35       0.8248      2.00000
     36       0.8547      2.00000
     37       0.9480      2.00000
     38       0.9666      2.00000
     39       1.2447      2.00000
     40       1.2496      2.00000
     41       1.8515      2.00000
     42       1.9094      2.00000
     43       2.6642      2.00000
     44       2.7742      2.00000
     45       3.6551      2.00000
     46       4.0239      2.00000
     47       4.1346      2.00000
     48       4.4259      2.00000
     49       4.8973      2.00000
     50       5.0837      1.99941
     51       5.5715      0.00000
     52       6.1680      0.00000
     53       6.8500      0.00000
     54       7.2193      0.00000
     55       7.2812      0.00000
     56       7.2918      0.00000
     57       7.3112      0.00000
     58       7.9394      0.00000
     59       8.3648      0.00000
     60       8.5527      0.00000
     61       8.6161      0.00000
     62       8.6328      0.00000

 k-point    21 :       0.3077    0.3077    0.0000
  band No.  band energies     occupation 
      1     -13.9604      2.00000
      2     -13.9568      2.00000
      3     -13.9035      2.00000
      4     -13.8837      2.00000
      5     -13.8778      2.00000
      6     -13.8556      2.00000
      7     -13.8361      2.00000
      8     -13.8109      2.00000
      9     -13.7895      2.00000
     10      -1.7439      2.00000
     11      -1.7404      2.00000
     12      -1.6721      2.00000
     13      -1.6585      2.00000
     14      -1.5402      2.00000
     15      -1.5133      2.00000
     16      -1.3450      2.00000
     17      -1.3385      2.00000
     18      -1.2499      2.00000
     19      -1.1263      2.00000
     20      -1.0782      2.00000
     21      -0.8994      2.00000
     22      -0.8713      2.00000
     23      -0.7668      2.00000
     24      -0.6386      2.00000
     25      -0.6252      2.00000
     26      -0.4471      2.00000
     27      -0.4442      2.00000
     28       0.2865      2.00000
     29       0.3018      2.00000
     30       0.5301      2.00000
     31       0.6513      2.00000
     32       0.7001      2.00000
     33       0.7076      2.00000
     34       0.7770      2.00000
     35       0.7819      2.00000
     36       0.7975      2.00000
     37       0.9187      2.00000
     38       1.1251      2.00000
     39       1.7572      2.00000
     40       2.3124      2.00000
     41       2.3136      2.00000
     42       2.6024      2.00000
     43       2.7299      2.00000
     44       2.7327      2.00000
     45       3.3196      2.00000
     46       3.3445      2.00000
     47       3.5753      2.00000
     48       4.0747      2.00000
     49       4.4363      2.00000
     50       4.9669      2.00000
     51       5.5585      0.00000
     52       5.7534      0.00000
     53       6.7552      0.00000
     54       6.8871      0.00000
     55       6.9620      0.00000
     56       7.4456      0.00000
     57       7.4589      0.00000
     58       8.0453      0.00000
     59       8.3367      0.00000
     60       8.6380      0.00000
     61       9.1479      0.00000
     62       9.1654      0.00000


--------------------------------------------------------------------------------------------------------


 soft charge-density along one line, spin component           1
         0         1         2         3         4         5         6         7         8         9
 total charge-density along one line
 
 pseudopotential strength for first ion, spin component:           1
 12.305   0.000 -14.982   0.000   0.000   0.000  -0.000   0.000  -0.000   0.000  -0.000   0.000   0.000   0.000   0.000   0.000
-14.982   0.000  18.261   0.000  -0.000   0.000   0.000   0.000   0.000   0.000   0.000   0.000  -0.000   0.000  -0.000   0.000
  0.000   0.000  -0.000   0.000  -8.477   0.000  -0.000   0.000   0.000   0.000  10.182   0.000   0.000   0.000  -0.000   0.000
 -0.000   0.000   0.000   0.000  -0.000   0.000  -8.478   0.000   0.000   0.000   0.000   0.000  10.184   0.000  -0.000   0.000
 -0.000   0.000   0.000   0.000   0.000   0.000   0.000   0.000  -8.477   0.000  -0.000   0.000  -0.000   0.000  10.182   0.000
 -0.000   0.000   0.000   0.000  10.182   0.000   0.000   0.000  -0.000   0.000 -12.076   0.000  -0.000   0.000   0.000   0.000
  0.000   0.000  -0.000   0.000   0.000   0.000  10.184   0.000  -0.000   0.000  -0.000   0.000 -12.078   0.000   0.000   0.000
  0.000   0.000  -0.000   0.000  -0.000   0.000  -0.000   0.000  10.182   0.000   0.000   0.000   0.000   0.000 -12.076   0.000
 total augmentation occupancy for first ion, spin component:           1
  2.609   0.367   0.000  -0.000  -0.000   0.000  -0.000   0.000
  0.367   0.069   0.000   0.000  -0.000   0.000  -0.000   0.000
  0.000   0.000   2.167  -0.000   0.000   0.262  -0.000   0.000
 -0.000   0.000  -0.000   2.166  -0.000  -0.000   0.263   0.000
 -0.000  -0.000   0.000   0.000   2.167   0.000   0.000   0.262
  0.000   0.000   0.262  -0.000   0.000   0.034  -0.000   0.000
 -0.000  -0.000  -0.000   0.263   0.000  -0.000   0.035  -0.000
  0.000   0.000   0.000   0.000   0.262   0.000  -0.000   0.034


------------------------ aborting loop because EDIFF is reached ----------------------------------------


    CHARGE:  cpu time    0.42: real time    0.42
    FORLOC:  cpu time    0.04: real time    0.04
    FORNL :  cpu time    3.30: real time    3.30
    STRESS:  cpu time    4.42: real time    4.42
    FORCOR:  cpu time    0.14: real time    0.14
    FORHAR:  cpu time    0.06: real time    0.06
    MIXING:  cpu time    0.00: real time    0.00
    OFIELD:  cpu time    0.00: real time    0.00

  FORCE on cell =-STRESS in cart. coord.  units (eV):
  Direction    XX          YY          ZZ          XY          YZ          ZX
  --------------------------------------------------------------------------------------
  Alpha Z   111.49973   111.49973   111.49973
  Ewald   27196.07955 27196.07984-29673.99900    -0.00002    -0.00003    -0.00013
  Hartree 28686.22976 28686.22968-27830.57041    -0.00000    -0.00000     0.00004
  E(xc)    -389.37553  -389.37554  -389.88172    -0.00000     0.00000    -0.00000
  Local  -57009.47249-57009.47201 56375.61669    -0.00016     0.00003     0.00004
  n-local   -24.58769   -34.83834   -26.72898     2.63693    -1.65936     5.34569
  augment    53.68850    53.68827    53.37751     0.00016    -0.00000     0.00000
  Kinetic  1400.82470  1356.80171  1379.37483     0.13613    -0.31747     1.01065
  Fock        0.00000     0.00000     0.00000     0.00000     0.00000     0.00000
  -------------------------------------------------------------------------------------
  Total      -2.25007    -2.25007    -1.31135    -0.00000     0.00000    -0.00000
  in kB      -9.94105    -9.94104    -5.79369    -0.00000     0.00000    -0.00000
  external pressure =       -8.56 kB  Pullay stress =        0.00 kB


 VOLUME and BASIS-vectors are now :
 -----------------------------------------------------------------------------
  energy-cutoff  :      520.00
  volume of cell :      362.64
      direct lattice vectors                 reciprocal lattice vectors
     2.591982046 -1.496481076  0.000000000     0.385805142 -0.000000000 -0.000000000
     0.000000000  2.992962152  0.000000000     0.192902571  0.334117155  0.000000000
     0.000000000 -0.000000000 46.745701541     0.000000000  0.000000000  0.021392341

  length of vectors
     2.992962836  2.992962152 46.745701541     0.385805142  0.385805230  0.021392341


 FORCES acting on ions
    electron-ion (+dipol)            ewald-force                    non-local-force                 convergence-correction
 -----------------------------------------------------------------------------------------------
   -.101E-06 0.126E-07 0.126E+04   0.797E-07 -.460E-07 -.126E+04   0.754E-18 -.248E-19 0.695E-01   -.285E-09 -.213E-08 0.120E+00
   0.106E-02 -.184E-02 0.838E+03   0.586E-04 -.102E-03 -.838E+03   -.618E-19 0.228E-18 -.107E+00   -.293E-07 0.520E-07 0.161E+00
   -.897E-09 -.384E-09 -.211E+00   -.172E-06 0.194E-06 0.788E-01   0.165E-20 -.520E-19 0.222E-01   0.146E-08 -.170E-08 0.131E+00
   0.106E-02 -.184E-02 -.418E+03   0.588E-04 -.102E-03 0.418E+03   0.121E-19 -.449E-19 -.262E-01   0.128E-07 -.189E-07 0.133E-01
   0.107E-06 -.129E-07 -.126E+04   0.190E-06 -.259E-06 0.126E+04   0.183E-18 -.825E-18 -.119E+00   -.714E-09 0.269E-08 -.203E+00
   0.107E-02 -.185E-02 -.167E+04   0.534E-04 -.888E-04 0.167E+04   -.125E-17 0.229E-17 -.156E+01   0.622E-07 -.108E-06 -.205E+00
   -.107E-02 0.185E-02 0.167E+04   -.534E-04 0.890E-04 -.167E+04   -.483E-18 -.552E-18 0.155E+01   -.606E-07 0.105E-06 0.109E+00
   -.106E-02 0.184E-02 0.418E+03   -.588E-04 0.102E-03 -.418E+03   -.877E-19 -.763E-19 0.619E-01   -.486E-07 0.820E-07 0.176E+00
   -.106E-02 0.184E-02 -.838E+03   -.587E-04 0.102E-03 0.838E+03   0.489E-19 -.198E-18 0.997E-01   0.474E-07 -.838E-07 -.132E+00
   -.983E-05 0.265E-05 0.610E+03   0.237E-04 -.251E-04 -.609E+03   -.354E-17 0.255E-18 -.715E+00   0.385E-08 -.703E-08 0.344E-01
   -.775E-07 0.369E-07 0.209E+03   0.189E-06 -.213E-06 -.209E+03   0.207E-18 -.424E-18 -.275E-01   0.681E-08 -.121E-07 0.603E-01
   0.261E-07 -.133E-07 -.209E+03   -.582E-07 0.660E-07 0.209E+03   -.306E-19 0.212E-18 0.129E-01   -.555E-08 0.987E-08 -.224E-01
   0.987E-05 -.268E-05 -.610E+03   -.238E-04 0.252E-04 0.609E+03   0.700E-17 -.141E-16 0.722E+00   -.247E-08 0.465E-08 -.603E-01
   0.443E-04 -.767E-04 0.349E+03   -.499E-04 0.864E-04 -.349E+03   -.218E-18 0.318E-18 0.191E-01   -.594E-08 0.108E-07 0.424E-01
   0.441E-04 -.765E-04 -.697E+02   -.498E-04 0.864E-04 0.697E+02   -.319E-18 0.448E-18 -.388E-01   0.109E-07 -.200E-07 0.291E-01
   0.449E-04 -.778E-04 -.489E+03   -.506E-04 0.877E-04 0.489E+03   -.298E-17 -.177E-17 0.870E-01   -.108E-08 0.148E-08 -.719E-01
   -.448E-04 0.778E-04 0.490E+03   0.506E-04 -.878E-04 -.490E+03   0.319E-18 0.349E-17 -.548E-01   -.693E-09 0.155E-08 0.384E-01
   -.442E-04 0.766E-04 0.696E+02   0.498E-04 -.863E-04 -.696E+02   0.210E-19 0.529E-19 0.361E-02   -.108E-07 0.200E-07 0.498E-01
   -.442E-04 0.766E-04 -.349E+03   0.499E-04 -.864E-04 0.349E+03   -.396E-19 -.737E-21 0.207E-02   0.458E-08 -.856E-08 -.551E-01
   0.116E-09 -.939E-10 -.121E+00   -.205E-09 0.206E-09 0.125E+00   0.950E-21 -.384E-21 -.112E-03   0.283E-11 -.414E-11 -.459E-02
   -.402E-06 -.370E-07 0.323E+03   0.245E-05 -.230E-05 -.324E+03   0.514E-16 -.112E-15 0.168E+01   -.223E-10 0.272E-10 0.203E-01
   0.150E-04 -.260E-04 0.213E+03   -.409E-05 0.714E-05 -.213E+03   -.109E-17 -.139E-16 -.769E-01   -.118E-10 -.367E-10 0.123E-01
   -.150E-04 0.260E-04 0.105E+03   0.427E-05 -.734E-05 -.105E+03   0.208E-17 -.171E-17 -.607E-01   -.206E-10 0.874E-11 0.465E-02
   0.402E-06 0.373E-07 -.323E+03   -.245E-05 0.230E-05 0.325E+03   0.111E-16 -.549E-16 -.168E+01   0.274E-10 -.308E-10 -.353E-01
   0.150E-04 -.260E-04 -.106E+03   -.427E-05 0.734E-05 0.106E+03   -.348E-18 0.171E-17 0.610E-01   0.274E-10 -.201E-10 -.145E-01
   -.150E-04 0.260E-04 -.213E+03   0.409E-05 -.713E-05 0.213E+03   0.109E-17 -.278E-16 0.770E-01   0.496E-11 0.522E-10 -.242E-01
 -----------------------------------------------------------------------------------------------
   0.787E-07 -.872E-07 -.172E+00   0.558E-13 -.451E-14 -.512E-12   0.637E-16 -.219E-15 0.611E-04   -.160E-07 0.271E-07 0.173E+00
 
 
 POSITION                                       TOTAL-FORCE (eV/Angst)
 -----------------------------------------------------------------------------------
     -0.00000     -0.00000     17.18914        -0.000000     -0.000000      0.019283
      0.86399      1.49648     19.65384         0.000000      0.000000     -0.049693
     -0.00000     -0.00000     24.57767        -0.000000     -0.000000      0.020257
      0.86399      1.49648     27.04513         0.000000     -0.000000     -0.018092
     -0.00000     -0.00000     31.96982        -0.000000      0.000000     -0.055324
      0.86399      1.49648     34.41874        -0.000000      0.000000      0.028438
      1.72799     -0.00000     14.73981        -0.000000      0.000000     -0.046389
      1.72799     -0.00000     22.11084        -0.000000     -0.000000      0.047728
      1.72799     -0.00000     29.50376         0.000000     -0.000000      0.044366
     -0.00000     -0.00000     13.45907        -0.000000      0.000000     -0.002557
     -0.00000     -0.00000     20.88436        -0.000000      0.000000     -0.027889
     -0.00000     -0.00000     28.27379        -0.000000     -0.000000      0.009371
     -0.00000     -0.00000     35.69806        -0.000000      0.000000      0.002728
      1.72799     -0.00000     18.41941        -0.000000     -0.000000      0.065237
      1.72799     -0.00000     25.81446        -0.000000      0.000000     -0.069458
      1.72799     -0.00000     33.19364        -0.000000     -0.000000      0.011995
      0.86399      1.49648     15.96207        -0.000000     -0.000000      0.026828
      0.86399      1.49648     23.34463        -0.000000     -0.000000      0.030206
      0.86399      1.49648     30.73677        -0.000000      0.000000     -0.036510
     -0.00000     -0.00000      1.20473        -0.000000      0.000000     -0.000151
     -0.00000     -0.00000      7.90501        -0.000000      0.000000      0.000615
      1.72799     -0.00000      5.65452        -0.000000      0.000000     -0.005374
      0.86399      1.49648      3.42248        -0.000000     -0.000000      0.023640
     -0.00000     -0.00000     41.25002        -0.000000      0.000000     -0.000747
      1.72799     -0.00000     45.73264        -0.000000      0.000000     -0.023755
      0.86399      1.49648     43.50056        -0.000000      0.000000      0.005245
 -----------------------------------------------------------------------------------
    total drift:                                0.000000     -0.000000      0.001455


--------------------------------------------------------------------------------------------------------



  FREE ENERGIE OF THE ION-ELECTRON SYSTEM (eV)
  ---------------------------------------------------
  free  energy   TOTEN  =      -132.20964938 eV

  energy  without entropy=     -132.20727120  energy(sigma->0) =     -132.20846029
 
 d Force =-0.5884355E-03[-0.147E-02, 0.292E-03]  d Energy =-0.6305027E-03 0.421E-04
 d Force = 0.3679383E+02[ 0.368E+02, 0.368E+02]  d Ewald  = 0.3679383E+02-0.482E-06


--------------------------------------------------------------------------------------------------------


    POTLOK:  cpu time    0.22: real time    0.23


--------------------------------------------------------------------------------------------------------


