       N       E                     dE             d eps       ncg     rms          rms(c)
DAV:   1     0.176810547051E+03    0.17681E+03   -0.10087E+04   800   0.918E+02
DAV:   2    -0.154879603130E+02   -0.19230E+03   -0.18520E+03  1030   0.226E+02
DAV:   3    -0.405676455233E+02   -0.25080E+02   -0.24982E+02   860   0.938E+01
DAV:   4    -0.409655861521E+02   -0.39794E+00   -0.39706E+00  1170   0.143E+01
DAV:   5    -0.409699579099E+02   -0.43718E-02   -0.43716E-02   920   0.133E+00
DAV:   6    -0.409700331944E+02   -0.75284E-04   -0.75281E-04  1160   0.177E-01
DAV:   7    -0.409700349015E+02   -0.17071E-05   -0.17071E-05  1060   0.242E-02
DAV:   8    -0.409700349522E+02   -0.50763E-07   -0.50792E-07   970   0.425E-03    0.132E+01
RMM:   9    -0.356657479570E+02    0.53043E+01   -0.21804E+01   801   0.248E+01    0.431E+00
RMM:  10    -0.355217765223E+02    0.14397E+00   -0.18344E-01   804   0.280E+00    0.267E+00
RMM:  11    -0.354817875320E+02    0.39989E-01   -0.17910E-01   800   0.384E+00    0.470E-01
RMM:  12    -0.354769667022E+02    0.48208E-02   -0.17346E-02   801   0.684E-01    0.164E-01
RMM:  13    -0.354800010429E+02   -0.30343E-02   -0.79203E-03   800   0.471E-01    0.226E-01
RMM:  14    -0.354780517083E+02    0.19493E-02   -0.67446E-04   800   0.134E-01    0.189E-01
RMM:  15    -0.354773211368E+02    0.73057E-03   -0.25002E-03   800   0.275E-01    0.272E-02
RMM:  16    -0.354773187520E+02    0.23848E-05   -0.11930E-04   793   0.612E-02    0.794E-03
RMM:  17    -0.354773179556E+02    0.79637E-06   -0.46407E-06   491   0.115E-02
   1 F= -.35477318E+02 E0= -.35475560E+02  d E =-.354773E+02
       N       E                     dE             d eps       ncg     rms          rms(c)
DAV:   1    -0.354908070471E+02   -0.13488E-01   -0.22347E+00   930   0.111E+01
DAV:   2    -0.354950599613E+02   -0.42529E-02   -0.42529E-02  1030   0.127E+00
DAV:   3    -0.354950760379E+02   -0.16077E-04   -0.16076E-04  1140   0.862E-02
DAV:   4    -0.354950762352E+02   -0.19733E-06   -0.19741E-06   800   0.817E-03
DAV:   5    -0.354950762701E+02   -0.34939E-07   -0.34909E-07   850   0.318E-03
DAV:   6    -0.354950762804E+02   -0.10225E-07   -0.10299E-07   720   0.162E-03
DAV:   7    -0.354950762838E+02   -0.34281E-08   -0.33223E-08   700   0.887E-04
DAV:   8    -0.354950762848E+02   -0.10366E-08   -0.10977E-08   540   0.484E-04    0.201E-01
RMM:   9    -0.355112799742E+02   -0.16204E-01   -0.61631E-03   800   0.303E-01    0.305E-01
RMM:  10    -0.354917873815E+02    0.19493E-01   -0.22299E-03   800   0.182E-01    0.149E-01
RMM:  11    -0.355035430655E+02   -0.11756E-01   -0.54845E-03   800   0.282E-01    0.207E-01
RMM:  12    -0.354943646830E+02    0.91784E-02   -0.50314E-04   783   0.856E-02    0.186E-01
RMM:  13    -0.354901671751E+02    0.41975E-02   -0.57659E-04   741   0.810E-02    0.355E-02
RMM:  14    -0.354900869692E+02    0.80206E-04   -0.22566E-05   563   0.226E-02    0.933E-03
RMM:  15    -0.354903752750E+02   -0.28831E-03   -0.41148E-05   679   0.242E-02    0.684E-02
RMM:  16    -0.354901142750E+02    0.26100E-03   -0.68612E-06   521   0.117E-02    0.235E-02
RMM:  17    -0.354900955710E+02    0.18704E-04   -0.98398E-06   470   0.118E-02    0.149E-02
RMM:  18    -0.354900868055E+02    0.87655E-05   -0.73153E-07   381   0.564E-03
   2 F= -.35490087E+02 E0= -.35488365E+02  d E =-.127688E-01
       N       E                     dE             d eps       ncg     rms          rms(c)
DAV:   1    -0.354910493733E+02   -0.95380E-03   -0.24369E-01   970   0.354E+00
DAV:   2    -0.354913904972E+02   -0.34112E-03   -0.34112E-03   980   0.367E-01
DAV:   3    -0.354913916092E+02   -0.11120E-05   -0.11120E-05  1060   0.220E-02
DAV:   4    -0.354913916736E+02   -0.64463E-07   -0.64510E-07   820   0.443E-03
DAV:   5    -0.354913916875E+02   -0.13847E-07   -0.13825E-07   740   0.188E-03
DAV:   6    -0.354913916911E+02   -0.35777E-08   -0.36518E-08   580   0.923E-04
DAV:   7    -0.354913916921E+02   -0.10589E-08   -0.10479E-08   550   0.479E-04
DAV:   8    -0.354913916924E+02   -0.32355E-09   -0.31764E-09   500   0.255E-04    0.650E-02
RMM:   9    -0.354947016339E+02   -0.33099E-02   -0.63834E-04   800   0.977E-02    0.223E-01
RMM:  10    -0.354909708243E+02    0.37308E-02   -0.31398E-04   740   0.678E-02    0.251E-02
RMM:  11    -0.354908981930E+02    0.72631E-04   -0.19355E-04   756   0.616E-02    0.828E-03
RMM:  12    -0.354908900188E+02    0.81743E-05   -0.16519E-05   559   0.173E-02
   3 F= -.35490890E+02 E0= -.35489176E+02  d E =-.135721E-01
       N       E                     dE             d eps       ncg     rms          rms(c)
DAV:   1    -0.354908898151E+02    0.83780E-05   -0.72463E-05   960   0.596E-02
DAV:   2    -0.354908899906E+02   -0.17552E-06   -0.17556E-06   770   0.884E-03
DAV:   3    -0.354908899981E+02   -0.74729E-08   -0.74361E-08   770   0.169E-03
DAV:   4    -0.354908899992E+02   -0.11457E-08   -0.11162E-08   580   0.598E-04
DAV:   5    -0.354908899994E+02   -0.20964E-09   -0.25874E-09   490   0.267E-04
DAV:   6    -0.354908899995E+02   -0.11778E-09   -0.69871E-10   460   0.131E-04
DAV:   7    -0.354908899996E+02   -0.56161E-10   -0.20699E-10   460   0.685E-05
DAV:   8    -0.354908899995E+02    0.47748E-10   -0.63978E-11   420   0.362E-05    0.333E-03
RMM:   9    -0.354909013868E+02   -0.11387E-04   -0.13736E-06   388   0.535E-03    0.131E-02
RMM:  10    -0.354908903019E+02    0.11085E-04   -0.10068E-07   183   0.338E-03    0.125E-03
RMM:  11    -0.354908908712E+02   -0.56922E-06   -0.18441E-07   194   0.367E-03
   4 F= -.35490891E+02 E0= -.35489175E+02  d E =-.135729E-01
       N       E                     dE             d eps       ncg     rms          rms(c)
DAV:   1    -0.354907442857E+02    0.14602E-03   -0.59037E-02   800   0.172E+00
DAV:   2    -0.354908315718E+02   -0.87286E-04   -0.87286E-04  1120   0.186E-01
DAV:   3    -0.354908318050E+02   -0.23315E-06   -0.23314E-06   820   0.103E-02
DAV:   4    -0.354908318337E+02   -0.28790E-07   -0.28872E-07   610   0.321E-03
DAV:   5    -0.354908318403E+02   -0.65738E-08   -0.65539E-08   480   0.144E-03
DAV:   6    -0.354908318421E+02   -0.17371E-08   -0.17186E-08   400   0.698E-04
DAV:   7    -0.354908318426E+02   -0.57207E-09   -0.48643E-09   400   0.355E-04
DAV:   8    -0.354908318427E+02   -0.90495E-10   -0.14550E-09   400   0.186E-04    0.351E-02
RMM:   9    -0.354920811407E+02   -0.12493E-02   -0.20850E-04   743   0.546E-02    0.134E-01
RMM:  10    -0.354907181259E+02    0.13630E-02   -0.11282E-04   740   0.405E-02    0.127E-02
RMM:  11    -0.354907046948E+02    0.13431E-04   -0.47783E-05   691   0.312E-02    0.463E-03
RMM:  12    -0.354907031797E+02    0.15151E-05   -0.42893E-06   504   0.970E-03
   5 F= -.35490703E+02 E0= -.35488979E+02  d E =-.133852E-01
       N       E                     dE             d eps       ncg     rms          rms(c)
DAV:   1    -0.354909398308E+02   -0.23514E-03   -0.48131E-02   900   0.156E+00
DAV:   2    -0.354910052811E+02   -0.65450E-04   -0.65450E-04  1060   0.161E-01
DAV:   3    -0.354910054787E+02   -0.19766E-06   -0.19761E-06   930   0.947E-03
DAV:   4    -0.354910055021E+02   -0.23327E-07   -0.23317E-07   570   0.290E-03
DAV:   5    -0.354910055074E+02   -0.52937E-08   -0.52670E-08   520   0.130E-03
DAV:   6    -0.354910055087E+02   -0.13265E-08   -0.13855E-08   470   0.632E-04
DAV:   7    -0.354910055091E+02   -0.40836E-09   -0.39629E-09   460   0.322E-04
DAV:   8    -0.354910055092E+02   -0.11755E-09   -0.11976E-09   460   0.170E-04    0.320E-02
RMM:   9    -0.354920820906E+02   -0.10766E-02   -0.16937E-04   744   0.497E-02    0.137E-01
RMM:  10    -0.354909069850E+02    0.11751E-02   -0.93576E-05   740   0.371E-02    0.116E-02
RMM:  11    -0.354908975664E+02    0.94186E-05   -0.36105E-05   667   0.278E-02
   6 F= -.35490898E+02 E0= -.35489179E+02  d E =-.135796E-01
       N       E                     dE             d eps       ncg     rms          rms(c)
DAV:   1    -0.354908960899E+02    0.10895E-04   -0.10197E-04  1000   0.726E-02
DAV:   2    -0.354908962420E+02   -0.15212E-06   -0.15210E-06   810   0.860E-03
DAV:   3    -0.354908962479E+02   -0.58608E-08   -0.58907E-08   750   0.159E-03
DAV:   4    -0.354908962486E+02   -0.69736E-09   -0.71257E-09   530   0.524E-04
DAV:   5    -0.354908962488E+02   -0.16894E-09   -0.13858E-09   460   0.216E-04
DAV:   6    -0.354908962488E+02   -0.63210E-10   -0.32203E-10   460   0.992E-05
DAV:   7    -0.354908962489E+02   -0.31378E-10   -0.85352E-11   460   0.486E-05
DAV:   8    -0.354908962488E+02    0.74806E-10   -0.25415E-11   460   0.248E-05    0.275E-03
RMM:   9    -0.354908993743E+02   -0.31255E-05   -0.11265E-08   170   0.289E-03
   7 F= -.35490899E+02 E0= -.35489169E+02  d E =-.135814E-01
       N       E                     dE             d eps       ncg     rms          rms(c)
DAV:   1    -0.354908955660E+02    0.68274E-06   -0.46295E-05   960   0.383E-02
DAV:   2    -0.354908956297E+02   -0.63706E-07   -0.63754E-07   450   0.539E-03
DAV:   3    -0.354908956333E+02   -0.35498E-08   -0.35167E-08   400   0.123E-03
DAV:   4    -0.354908956337E+02   -0.42428E-09   -0.45944E-09   400   0.433E-04
DAV:   5    -0.354908956339E+02   -0.16007E-09   -0.87651E-10   400   0.174E-04
DAV:   6    -0.354908956338E+02    0.29559E-10   -0.19824E-10   400   0.810E-05
DAV:   7    -0.354908956339E+02   -0.45247E-10   -0.53239E-11   400   0.389E-05
DAV:   8    -0.354908956339E+02    0.17508E-10   -0.14144E-11   400   0.200E-05    0.177E-03
RMM:   9    -0.354908958370E+02   -0.20316E-06    0.00000E+00   125   0.162E-03
   8 F= -.35490896E+02 E0= -.35489182E+02  d E =-.135779E-01
       N       E                     dE             d eps       ncg     rms          rms(c)
DAV:   1    -0.354911372757E+02   -0.24164E-03   -0.16620E-02   800   0.925E-01
DAV:   2    -0.354911645878E+02   -0.27312E-04   -0.27312E-04  1090   0.109E-01
DAV:   3    -0.354911646476E+02   -0.59754E-07   -0.59733E-07   770   0.531E-03
DAV:   4    -0.354911646542E+02   -0.66393E-08   -0.67108E-08   500   0.166E-03
DAV:   5    -0.354911646557E+02   -0.15100E-08   -0.14592E-08   440   0.708E-04
DAV:   6    -0.354911646560E+02   -0.33128E-09   -0.37710E-09   400   0.349E-04
DAV:   7    -0.354911646561E+02   -0.99590E-10   -0.10708E-09   400   0.175E-04
DAV:   8    -0.354911646562E+02   -0.70258E-10   -0.32513E-10   400   0.930E-05    0.115E-02
RMM:   9    -0.354912010434E+02   -0.36387E-04   -0.12045E-05   507   0.151E-02    0.273E-02
RMM:  10    -0.354911570184E+02    0.44025E-04   -0.27458E-06   417   0.814E-03    0.610E-03
RMM:  11    -0.354911552872E+02    0.17312E-05   -0.50438E-06   480   0.114E-02
   9 F= -.35491155E+02 E0= -.35489444E+02  d E =-.259450E-03
       N       E                     dE             d eps       ncg     rms          rms(c)
DAV:   1    -0.354914143864E+02   -0.25737E-03   -0.14970E-01   800   0.278E+00
DAV:   2    -0.354916605382E+02   -0.24615E-03   -0.24615E-03  1100   0.326E-01
DAV:   3    -0.354916610846E+02   -0.54641E-06   -0.54641E-06   860   0.159E-02
DAV:   4    -0.354916611426E+02   -0.57925E-07   -0.57953E-07   830   0.476E-03
DAV:   5    -0.354916611552E+02   -0.12653E-07   -0.12612E-07   620   0.202E-03
DAV:   6    -0.354916611584E+02   -0.32219E-08   -0.32501E-08   520   0.996E-04
DAV:   7    -0.354916611594E+02   -0.94019E-09   -0.92022E-09   480   0.497E-04
DAV:   8    -0.354916611597E+02   -0.30764E-09   -0.27907E-09   430   0.264E-04    0.344E-02
RMM:   9    -0.354920961796E+02   -0.43502E-03   -0.12737E-04   740   0.465E-02    0.914E-02
RMM:  10    -0.354915955754E+02    0.50060E-03   -0.35311E-05   663   0.231E-02    0.179E-02
RMM:  11    -0.354915822652E+02    0.13310E-04   -0.34060E-05   694   0.297E-02    0.698E-03
RMM:  12    -0.354915807534E+02    0.15118E-05   -0.50265E-06   505   0.120E-02
  10 F= -.35491581E+02 E0= -.35489883E+02  d E =-.684916E-03
       N       E                     dE             d eps       ncg     rms          rms(c)
DAV:   1    -0.354917917207E+02   -0.20946E-03   -0.39705E-02   800   0.142E+00
DAV:   2    -0.354918338928E+02   -0.42172E-04   -0.42172E-04  1160   0.132E-01
DAV:   3    -0.354918339874E+02   -0.94607E-07   -0.94582E-07   830   0.655E-03
DAV:   4    -0.354918339990E+02   -0.11648E-07   -0.11660E-07   700   0.207E-03
DAV:   5    -0.354918340016E+02   -0.25555E-08   -0.25720E-08   540   0.909E-04
DAV:   6    -0.354918340023E+02   -0.68303E-09   -0.66335E-09   460   0.443E-04
DAV:   7    -0.354918340025E+02   -0.23556E-09   -0.18669E-09   440   0.224E-04
DAV:   8    -0.354918340025E+02    0.10459E-10   -0.56245E-10   430   0.118E-04    0.166E-02
RMM:   9    -0.354918326557E+02    0.13468E-05   -0.23664E-05   573   0.219E-02
  11 F= -.35491833E+02 E0= -.35490104E+02  d E =-.251902E-03
       N       E                     dE             d eps       ncg     rms          rms(c)
DAV:   1    -0.354919558946E+02   -0.12189E-03   -0.35528E-01   800   0.424E+00
DAV:   2    -0.354923258100E+02   -0.36992E-03   -0.36991E-03  1080   0.394E-01
DAV:   3    -0.354923266859E+02   -0.87597E-06   -0.87598E-06   870   0.203E-02
DAV:   4    -0.354923267655E+02   -0.79596E-07   -0.79577E-07   850   0.551E-03
DAV:   5    -0.354923267819E+02   -0.16380E-07   -0.16413E-07   560   0.235E-03
DAV:   6    -0.354923267860E+02   -0.40625E-08   -0.40041E-08   490   0.111E-03
DAV:   7    -0.354923267870E+02   -0.10127E-08   -0.10700E-08   460   0.552E-04
DAV:   8    -0.354923267873E+02   -0.31037E-09   -0.30611E-09   400   0.285E-04    0.561E-02
RMM:   9    -0.354925317850E+02   -0.20500E-03   -0.31412E-04   778   0.755E-02    0.872E-02
RMM:  10    -0.354921494351E+02    0.38235E-03   -0.32505E-05   655   0.232E-02    0.257E-02
RMM:  11    -0.354921108917E+02    0.38543E-04   -0.11445E-04   727   0.472E-02    0.840E-03
RMM:  12    -0.354921097816E+02    0.11100E-05   -0.87733E-06   514   0.145E-02
  12 F= -.35492110E+02 E0= -.35490401E+02  d E =-.529028E-03
       N       E                     dE             d eps       ncg     rms          rms(c)
DAV:   1    -0.354921139833E+02   -0.30916E-05   -0.16059E-03   980   0.284E-01
DAV:   2    -0.354921157575E+02   -0.17742E-05   -0.17741E-05  1010   0.273E-02
DAV:   3    -0.354921157629E+02   -0.54015E-08   -0.53732E-08   690   0.159E-03
DAV:   4    -0.354921157635E+02   -0.66416E-09   -0.72471E-09   530   0.536E-04
DAV:   5    -0.354921157637E+02   -0.19577E-09   -0.17380E-09   460   0.247E-04
DAV:   6    -0.354921157637E+02    0.22737E-12   -0.48284E-10   460   0.124E-04
DAV:   7    -0.354921157638E+02   -0.49795E-10   -0.14687E-10   460   0.645E-05
DAV:   8    -0.354921157638E+02   -0.97771E-11   -0.47368E-11   460   0.347E-05    0.342E-03
RMM:   9    -0.354921165664E+02   -0.80262E-06   -0.83873E-07   258   0.464E-03
  13 F= -.35492117E+02 E0= -.35490419E+02  d E =-.535813E-03
       N       E                     dE             d eps       ncg     rms          rms(c)
DAV:   1    -0.354919991877E+02    0.11658E-03   -0.77187E-02   800   0.197E+00
DAV:   2    -0.354920749053E+02   -0.75718E-04   -0.75718E-04  1070   0.180E-01
DAV:   3    -0.354920750924E+02   -0.18708E-06   -0.18711E-06   810   0.943E-03
DAV:   4    -0.354920751119E+02   -0.19433E-07   -0.19405E-07   520   0.275E-03
DAV:   5    -0.354920751160E+02   -0.41225E-08   -0.41394E-08   470   0.119E-03
DAV:   6    -0.354920751170E+02   -0.10718E-08   -0.10406E-08   430   0.568E-04
DAV:   7    -0.354920751173E+02   -0.25716E-09   -0.28526E-09   410   0.283E-04
DAV:   8    -0.354920751174E+02   -0.68212E-10   -0.83433E-10   400   0.147E-04    0.244E-02
RMM:   9    -0.354920842295E+02   -0.91121E-05   -0.54999E-05   665   0.326E-02
  14 F= -.35492084E+02 E0= -.35490454E+02  d E =-.503476E-03
       N       E                     dE             d eps       ncg     rms          rms(c)
DAV:   1    -0.354920588020E+02    0.16315E-04   -0.53522E-02   800   0.165E+00
DAV:   2    -0.354921214780E+02   -0.62676E-04   -0.62676E-04  1130   0.162E-01
DAV:   3    -0.354921216038E+02   -0.12581E-06   -0.12580E-06   770   0.785E-03
DAV:   4    -0.354921216184E+02   -0.14559E-07   -0.14567E-07   550   0.236E-03
DAV:   5    -0.354921216215E+02   -0.30993E-08   -0.31330E-08   460   0.101E-03
DAV:   6    -0.354921216223E+02   -0.85720E-09   -0.79213E-09   430   0.486E-04
DAV:   7    -0.354921216225E+02   -0.22828E-09   -0.21942E-09   430   0.243E-04
DAV:   8    -0.354921216225E+02    0.25693E-10   -0.65028E-10   430   0.127E-04    0.129E-02
RMM:   9    -0.354921434685E+02   -0.21846E-04   -0.14514E-05   503   0.196E-02    0.205E-02
RMM:  10    -0.354921176042E+02    0.25864E-04   -0.31365E-06   435   0.801E-03    0.591E-03
RMM:  11    -0.354921159940E+02    0.16102E-05   -0.13919E-06   359   0.629E-03
  15 F= -.35492116E+02 E0= -.35490410E+02  d E =-.535241E-03
       N       E                     dE             d eps       ncg     rms          rms(c)
DAV:   1    -0.354921167811E+02    0.82312E-06   -0.82721E-04   820   0.205E-01
DAV:   2    -0.354921176969E+02   -0.91585E-06   -0.91582E-06  1050   0.198E-02
DAV:   3    -0.354921177143E+02   -0.17360E-07   -0.17410E-07   450   0.237E-03
DAV:   4    -0.354921177164E+02   -0.21455E-08   -0.20683E-08   430   0.818E-04
DAV:   5    -0.354921177169E+02   -0.43065E-09   -0.36285E-09   410   0.335E-04
DAV:   6    -0.354921177169E+02    0.10004E-10   -0.78057E-10   400   0.155E-04
DAV:   7    -0.354921177169E+02   -0.85038E-10   -0.19335E-10   400   0.741E-05
DAV:   8    -0.354921177168E+02    0.14256E-09   -0.56132E-11   400   0.377E-05    0.273E-03
RMM:   9    -0.354921174865E+02    0.23034E-06   -0.32364E-07   132   0.355E-03
  16 F= -.35492117E+02 E0= -.35490408E+02  d E =-.536733E-03
       N       E                     dE             d eps       ncg     rms          rms(c)
DAV:   1    -0.354921176633E+02    0.53498E-07   -0.67312E-05   940   0.575E-02
DAV:   2    -0.354921177361E+02   -0.72792E-07   -0.72701E-07   430   0.576E-03
DAV:   3    -0.354921177394E+02   -0.33024E-08   -0.33560E-08   400   0.127E-03
DAV:   4    -0.354921177399E+02   -0.46771E-09   -0.40340E-09   400   0.428E-04
DAV:   5    -0.354921177398E+02    0.73442E-10   -0.72179E-10   400   0.169E-04
DAV:   6    -0.354921177399E+02   -0.14143E-09   -0.15721E-10   400   0.763E-05
DAV:   7    -0.354921177399E+02   -0.72760E-11   -0.39530E-11   400   0.360E-05
DAV:   8    -0.354921177399E+02    0.11369E-11   -0.86898E-12   400   0.182E-05    0.214E-03
RMM:   9    -0.354921229890E+02   -0.52491E-05   -0.60685E-07   249   0.382E-03
  17 F= -.35492123E+02 E0= -.35490398E+02  d E =-.542236E-03
       N       E                     dE             d eps       ncg     rms          rms(c)
DAV:   1    -0.354921285568E+02   -0.10817E-04   -0.20231E-02   800   0.101E+00
DAV:   2    -0.354921594380E+02   -0.30881E-04   -0.30881E-04  1020   0.112E-01
DAV:   3    -0.354921595234E+02   -0.85424E-07   -0.85511E-07   750   0.634E-03
DAV:   4    -0.354921595324E+02   -0.90365E-08   -0.89841E-08   490   0.192E-03
DAV:   5    -0.354921595343E+02   -0.19029E-08   -0.19265E-08   450   0.832E-04
DAV:   6    -0.354921595348E+02   -0.52592E-09   -0.48266E-09   400   0.404E-04
DAV:   7    -0.354921595349E+02   -0.79353E-10   -0.13210E-09   400   0.202E-04
DAV:   8    -0.354921595350E+02   -0.97316E-10   -0.39021E-10   400   0.106E-04    0.120E-02
RMM:   9    -0.354921567498E+02    0.27852E-05   -0.10483E-05   446   0.150E-02
  18 F= -.35492157E+02 E0= -.35490435E+02  d E =-.337608E-04
       N       E                     dE             d eps       ncg     rms          rms(c)
DAV:   1    -0.354920665660E+02    0.92969E-04   -0.91189E-02   800   0.215E+00
DAV:   2    -0.354922064580E+02   -0.13989E-03   -0.13989E-03  1030   0.240E-01
DAV:   3    -0.354922068214E+02   -0.36343E-06   -0.36337E-06   890   0.129E-02
DAV:   4    -0.354922068576E+02   -0.36144E-07   -0.36220E-07   760   0.369E-03
DAV:   5    -0.354922068654E+02   -0.78596E-08   -0.78427E-08   520   0.160E-03
DAV:   6    -0.354922068674E+02   -0.19618E-08   -0.19827E-08   460   0.780E-04
DAV:   7    -0.354922068679E+02   -0.53410E-09   -0.54791E-09   440   0.390E-04
DAV:   8    -0.354922068682E+02   -0.22965E-09   -0.16245E-09   430   0.205E-04    0.299E-02
RMM:   9    -0.354923196041E+02   -0.11274E-03   -0.85390E-05   731   0.395E-02    0.530E-02
RMM:  10    -0.354921614629E+02    0.15814E-03   -0.11063E-05   505   0.141E-02    0.149E-02
RMM:  11    -0.354921549875E+02    0.64753E-05   -0.30080E-05   619   0.263E-02
  19 F= -.35492155E+02 E0= -.35490455E+02  d E =-.319985E-04
       N       E                     dE             d eps       ncg     rms          rms(c)
DAV:   1    -0.354921527420E+02    0.87208E-05   -0.11154E-02   800   0.754E-01
DAV:   2    -0.354921713226E+02   -0.18581E-04   -0.18580E-04  1130   0.872E-02
DAV:   3    -0.354921713585E+02   -0.35829E-07   -0.35842E-07   600   0.407E-03
DAV:   4    -0.354921713631E+02   -0.46771E-08   -0.46650E-08   460   0.136E-03
DAV:   5    -0.354921713642E+02   -0.10361E-08   -0.10301E-08   410   0.596E-04
DAV:   6    -0.354921713644E+02   -0.27262E-09   -0.27088E-09   400   0.296E-04
DAV:   7    -0.354921713644E+02    0.68212E-11   -0.77842E-10   400   0.150E-04
DAV:   8    -0.354921713646E+02   -0.14575E-09   -0.23762E-10   400   0.803E-05    0.858E-03
RMM:   9    -0.354921707201E+02    0.64443E-06   -0.67256E-06   435   0.116E-02
  20 F= -.35492171E+02 E0= -.35490487E+02  d E =-.477312E-04
       N       E                     dE             d eps       ncg     rms          rms(c)
DAV:   1    -0.354921609510E+02    0.10414E-04   -0.66886E-03   800   0.582E-01
DAV:   2    -0.354921714722E+02   -0.10521E-04   -0.10521E-04  1160   0.657E-02
DAV:   3    -0.354921714949E+02   -0.22696E-07   -0.22651E-07   610   0.317E-03
DAV:   4    -0.354921714978E+02   -0.28726E-08   -0.29657E-08   430   0.107E-03
DAV:   5    -0.354921714984E+02   -0.65961E-09   -0.64590E-09   410   0.471E-04
DAV:   6    -0.354921714986E+02   -0.17735E-09   -0.16509E-09   400   0.232E-04
DAV:   7    -0.354921714987E+02   -0.86857E-10   -0.46343E-10   400   0.117E-04
DAV:   8    -0.354921714987E+02    0.32287E-10   -0.13840E-10   400   0.618E-05    0.105E-02
RMM:   9    -0.354921979202E+02   -0.26422E-04   -0.11782E-05   486   0.148E-02    0.230E-02
RMM:  10    -0.354921651177E+02    0.32802E-04   -0.20801E-06   402   0.729E-03    0.495E-03
RMM:  11    -0.354921648480E+02    0.26968E-06   -0.47401E-06   443   0.107E-02
  21 F= -.35492165E+02 E0= -.35490461E+02  d E =-.418590E-04
