 vasp.5.4.4.18Apr17-6-g9f103f2a35 (build Nov 15 2019 10:10:58) complex          
  
 executed on             LinuxIFC date 2024.06.26  20:23:12
 running on   20 total cores
 distrk:  each k-point on   20 cores,    1 groups
 distr:  one band on NCORES_PER_BAND=   4 cores,    5 groups


--------------------------------------------------------------------------------------------------------


 INCAR:
 POTCAR:    PAW_PBE Mg 13Apr2007                  
 POTCAR:    PAW_PBE O 08Apr2002                   
 POTCAR:    PAW_PBE Mg 13Apr2007                  
   VRHFIN =Mg: s2p0                                                             
   LEXCH  = PE                                                                  
   EATOM  =    23.0369 eV,    1.6932 Ry                                         
                                                                                
   TITEL  = PAW_PBE Mg 13Apr2007                                                
   LULTRA =        F    use ultrasoft PP ?                                      
   IUNSCR =        1    unscreen: 0-lin 1-nonlin 2-no                           
   RPACOR =    1.500    partial core radius                                     
   POMASS =   24.305; ZVAL   =    2.000    mass and valenz                      
   RCORE  =    2.000    outmost cutoff radius                                   
   RWIGS  =    2.880; RWIGS  =    1.524    wigner-seitz radius (au A)           
   ENMAX  =  200.000; ENMIN  =  100.000 eV                                      
   RCLOC  =    1.506    cutoff for local pot                                    
   LCOR   =        T    correct aug charges                                     
   LPAW   =        T    paw PP                                                  
   EAUG   =  454.734                                                            
   DEXC   =    0.000                                                            
   RMAX   =    2.045    core radius for proj-oper                               
   RAUG   =    1.300    factor for augmentation sphere                          
   RDEP   =    2.025    radius for radial grids                                 
   RDEPT  =    1.942    core radius for aug-charge                              
                                                                                
   Atomic configuration                                                         
    6 entries                                                                   
     n  l   j            E        occ.                                          
     1  0  0.50     -1259.6230   2.0000                                         
     2  0  0.50       -79.8442   2.0000                                         
     2  1  1.50       -46.6121   6.0000                                         
     3  0  0.50        -4.7055   2.0000                                         
     3  1  0.50        -1.3660   0.0000                                         
     3  2  1.50        -1.3606   0.0000                                         
   Description                                                                  
     l       E           TYP  RCUT    TYP  RCUT                                 
     0     -4.7054661     23  2.000                                             
     0     27.2116520     23  2.000                                             
     1      1.3605826     23  2.000                                             
     1     27.2116520     23  2.000                                             
     2     -1.3605826     23  2.000                                             
  local pseudopotential read in
  partial core-charges read in
  partial kinetic energy density read in
  atomic valenz-charges read in
  non local Contribution for L=           0  read in
    real space projection operators read in
  non local Contribution for L=           0  read in
    real space projection operators read in
  non local Contribution for L=           1  read in
    real space projection operators read in
  non local Contribution for L=           1  read in
    real space projection operators read in
  non local Contribution for L=           2  read in
    real space projection operators read in
    PAW grid and wavefunctions read in
 
   number of l-projection  operators is LMAX  =           5
   number of lm-projection operators is LMMAX =          13
 
 POTCAR:    PAW_PBE O 08Apr2002                   
   VRHFIN =O: s2p4                                                              
   LEXCH  = PE                                                                  
   EATOM  =   432.3788 eV,   31.7789 Ry                                         
                                                                                
   TITEL  = PAW_PBE O 08Apr2002                                                 
   LULTRA =        F    use ultrasoft PP ?                                      
   IUNSCR =        1    unscreen: 0-lin 1-nonlin 2-no                           
   RPACOR =    1.200    partial core radius                                     
   POMASS =   16.000; ZVAL   =    6.000    mass and valenz                      
   RCORE  =    1.520    outmost cutoff radius                                   
   RWIGS  =    1.550; RWIGS  =    0.820    wigner-seitz radius (au A)           
   ENMAX  =  400.000; ENMIN  =  300.000 eV                                      
   ICORE  =        2    local potential                                         
   LCOR   =        T    correct aug charges                                     
   LPAW   =        T    paw PP                                                  
   EAUG   =  605.392                                                            
   DEXC   =    0.000                                                            
   RMAX   =    1.553    core radius for proj-oper                               
   RAUG   =    1.300    factor for augmentation sphere                          
   RDEP   =    1.550    radius for radial grids                                 
   RDEPT  =    1.329    core radius for aug-charge                              
                                                                                
   Atomic configuration                                                         
    4 entries                                                                   
     n  l   j            E        occ.                                          
     1  0  0.50      -514.6923   2.0000                                         
     2  0  0.50       -23.9615   2.0000                                         
     2  1  0.50        -9.0305   4.0000                                         
     3  2  1.50        -9.5241   0.0000                                         
   Description                                                                  
     l       E           TYP  RCUT    TYP  RCUT                                 
     0    -23.9615318     23  1.200                                             
     0     -9.5240782     23  1.200                                             
     1     -9.0304911     23  1.520                                             
     1      8.1634956     23  1.520                                             
     2     -9.5240782      7  1.500                                             
  local pseudopotential read in
  partial core-charges read in
  partial kinetic energy density read in
  kinetic energy density of atom read in
  atomic valenz-charges read in
  non local Contribution for L=           0  read in
    real space projection operators read in
  non local Contribution for L=           0  read in
    real space projection operators read in
  non local Contribution for L=           1  read in
    real space projection operators read in
  non local Contribution for L=           1  read in
    real space projection operators read in
    PAW grid and wavefunctions read in
 
   number of l-projection  operators is LMAX  =           4
   number of lm-projection operators is LMMAX =           8
 

 ----------------------------------------------------------------------------- 
|                                                                             |
|  ADVICE TO THIS USER RUNNING 'VASP/VAMP'   (HEAR YOUR MASTER'S VOICE ...):  |
|                                                                             |
|      You have a (more or less) 'small supercell' and for smaller cells      |
|      it is recommended  to use the reciprocal-space projection scheme!      |
|      The real space optimization is not  efficient for small cells and it   |
|      is also less accurate ...                                              |
|      Therefore set LREAL=.FALSE. in the  INCAR file                         |
|                                                                             |
 ----------------------------------------------------------------------------- 

 Optimization of the real space projectors (new method)

 maximal supplied QI-value         = 18.90
 optimisation between [QCUT,QGAM] = [ 10.77, 27.02] = [ 32.49,204.49] Ry 
 Optimized for a Real-space Cutoff    1.14 Angstroem

   l    n(q)    QCUT    max X(q) W(low)/X(q) W(high)/X(q)  e(spline) 
   0      9    10.771    28.265    0.55E-04    0.11E-03    0.18E-06
   0      9    10.771    10.429    0.35E-04    0.89E-04    0.15E-06
   1      9    10.771    13.073    0.36E-03    0.68E-04    0.34E-06
   1      9    10.771     9.625    0.30E-03    0.60E-04    0.28E-06
   2      8    10.771     4.652    0.10E-03    0.16E-03    0.22E-06
 Optimization of the real space projectors (new method)

 maximal supplied QI-value         = 24.76
 optimisation between [QCUT,QGAM] = [ 10.64, 26.98] = [ 31.73,203.89] Ry 
 Optimized for a Real-space Cutoff    0.98 Angstroem

   l    n(q)    QCUT    max X(q) W(low)/X(q) W(high)/X(q)  e(spline) 
   0      8    10.645    20.381    0.22E-03    0.11E-04    0.15E-06
   0      8    10.645    15.268    0.23E-03    0.14E-04    0.16E-06
   1      7    10.645     5.964    0.39E-03    0.37E-03    0.76E-07
   1      7    10.645     5.382    0.33E-03    0.32E-03    0.66E-07
  PAW_PBE Mg 13Apr2007                  :
 energy of atom  1       EATOM=  -23.0369
 kinetic energy error for atom=    0.0001 (will be added to EATOM!!)
  PAW_PBE O 08Apr2002                   :
 energy of atom  2       EATOM= -432.3788
 kinetic energy error for atom=    0.0389 (will be added to EATOM!!)
 
 
 POSCAR: MgO7                                    
  positions in direct lattice
  velocities in cartesian coordinates
  No initial velocities read in
 exchange correlation table for  LEXCH =        8
   RHO(1)=    0.500       N(1)  =     2000
   RHO(2)=  100.500       N(2)  =     4000

 VTST: version 3.2, (02/03/18)

 CHAIN: initializing optimizer
 
 OPT: Using VASP Conjugate-Gradient optimizer
 CHAIN: Read ICHAIN            0
 
 POSCAR: MgO7                                    
  positions in direct lattice
  velocities in cartesian coordinates
  No initial velocities read in
 


--------------------------------------------------------------------------------------------------------


 ion  position               nearest neighbor table
   1  0.000  0.000  0.045-   6 2.12   6 2.12   6 2.12   2 3.00   2 3.00   2 3.00
   2  0.333  0.667  0.154-   5 2.12   5 2.12   5 2.12   6 2.12   6 2.12   6 2.12   4 3.00   4 3.00
                             4 3.00   1 3.00   1 3.00   1 3.00
   3  0.000  0.000  0.374-   7 2.12   7 2.12   7 2.12   4 3.00   4 3.00   4 3.00
   4  0.667  0.333  0.264-   5 2.12   7 2.12   7 2.12   5 2.12   5 2.12   7 2.12   2 3.00   3 3.00
                             2 3.00   3 3.00   3 3.00   2 3.00
   5  0.000  0.000  0.209-   2 2.12   4 2.12   4 2.12   2 2.12   4 2.12   2 2.12
   6  0.667  0.333  0.100-   1 2.12   1 2.12   1 2.12   2 2.12   2 2.12   2 2.12
   7  0.333  0.667  0.319-   3 2.12   4 2.12   4 2.12   3 2.12   3 2.12   4 2.12
 
  LATTYP: Found a hexagonal cell.
 ALAT       =     3.0044062036
 C/A-ratio  =     7.4421562419
  
  Lattice vectors:
  
 A1 = (   2.1244360000,  -2.1244350000,   0.0000000000)
 A2 = (   0.0000000000,   2.1244360000,  -2.1244360000)
 A3 = (  12.9091250000,  12.9091250000,  12.9091250000)


Analysis of symmetry for initial positions (statically):
=====================================================================
 Subroutine PRICEL returns:
 Original cell was already a primitive cell.
 

 Routine SETGRP: Setting up the symmetry group for a 
 hexagonal supercell.


 Subroutine GETGRP returns: Found 12 space group operations
 (whereof  6 operations were pure point group operations)
 out of a pool of 24 trial point group operations.


The static configuration has the point symmetry C_3v.
 The point group associated with its full space group is D_3d.


Analysis of symmetry for dynamics (positions and initial velocities):
=====================================================================
 Subroutine PRICEL returns:
 Original cell was already a primitive cell.
 

 Routine SETGRP: Setting up the symmetry group for a 
 hexagonal supercell.


 Subroutine GETGRP returns: Found 12 space group operations
 (whereof  6 operations were pure point group operations)
 out of a pool of 24 trial point group operations.


The dynamic configuration has the point symmetry C_3v.
 The point group associated with its full space group is D_3d.


Analysis of constrained symmetry for selective dynamics:
=====================================================================
 Subroutine PRICEL returns:
 Original cell was already a primitive cell.
 

 Routine SETGRP: Setting up the symmetry group for a 
 hexagonal supercell.


 Subroutine GETGRP returns: Found  6 space group operations
 (whereof  6 operations were pure point group operations)
 out of a pool of 24 trial point group operations.


The constrained configuration has the point symmetry C_3v.


 Subroutine INISYM returns: Found  6 space group operations
 (whereof  6 operations are pure point group operations),
 and found     1 'primitive' translations

 
 
 KPOINTS: K-Spacing Value to Generate K-Mesh: 0.02

Automatic generation of k-mesh.
Space group operators:
 irot       det(A)        alpha          n_x          n_y          n_z        tau_x        tau_y        tau_z
    1     1.000000     0.000001     1.000000     0.000000     0.000000     0.000000     0.000000     0.000000
    2     1.000000   120.000000    -0.577350    -0.577350    -0.577350     0.000000     0.000000     0.000000
    3     1.000000   120.000000     0.577350     0.577350     0.577350     0.000000     0.000000     0.000000
    4    -1.000000   180.000000     0.707107    -0.707107    -0.000000     0.000000     0.000000     0.000000
    5    -1.000000   179.999999     0.000000    -0.707107     0.707107     0.000000     0.000000     0.000000
    6    -1.000000   180.000000    -0.707107     0.000000     0.707107     0.000000     0.000000     0.000000
 
 Subroutine IBZKPT returns following result:
 ===========================================
 
 Found     20 irreducible k-points:
 
 Following reciprocal coordinates:
            Coordinates               Weight
  0.062500  0.062500 -0.000000     48.000000
  0.187500  0.062500 -0.000000     96.000000
  0.312500  0.062500 -0.000000     96.000000
  0.437500  0.062500 -0.000000     96.000000
 -0.437500  0.062500  0.000000     96.000000
 -0.312500  0.062500  0.000000     96.000000
 -0.187500  0.062500  0.000000     96.000000
 -0.062500  0.062500  0.000000     48.000000
  0.187500  0.187500  0.000000     48.000000
  0.312500  0.187500  0.000000     96.000000
  0.437500  0.187500 -0.000000     96.000000
 -0.437500  0.187500  0.000000     96.000000
 -0.312500  0.187500  0.000000     96.000000
 -0.187500  0.187500  0.000000     48.000000
  0.312500  0.312500  0.000000     48.000000
  0.437500  0.312500 -0.000000     96.000000
 -0.437500  0.312500 -0.000000     96.000000
 -0.312500  0.312500  0.000000     48.000000
  0.437500  0.437500  0.000000     48.000000
 -0.437500  0.437500  0.000000     48.000000
 
 Following cartesian coordinates:
            Coordinates               Weight
  0.029420 -0.000000 -0.029420     48.000000
  0.068646 -0.019613 -0.049033     96.000000
  0.107872 -0.039226 -0.068646     96.000000
  0.147098 -0.058839 -0.088259     96.000000
 -0.127485  0.078452  0.049033     96.000000
 -0.088259  0.058839  0.029420     96.000000
 -0.049033  0.039226  0.009807     96.000000
 -0.009807  0.019613 -0.009807     48.000000
  0.088259  0.000000 -0.088259     48.000000
  0.127485 -0.019613 -0.107872     96.000000
  0.166711 -0.039226 -0.127485     96.000000
 -0.107872  0.098065  0.009807     96.000000
 -0.068646  0.078452 -0.009807     96.000000
 -0.029420  0.058839 -0.029420     48.000000
  0.147098  0.000000 -0.147098     48.000000
  0.186324 -0.019613 -0.166711     96.000000
 -0.088259  0.117678 -0.029420     96.000000
 -0.049033  0.098065 -0.049033     48.000000
  0.205937 -0.000000 -0.205937     48.000000
 -0.068646  0.137291 -0.068646     48.000000
 


--------------------------------------------------------------------------------------------------------




 Dimension of arrays:
   k-points           NKPTS =     20   k-points in BZ     NKDIM =     20   number of bands    NBANDS=     20
   number of dos      NEDOS =    301   number of ions     NIONS =      7
   non local maximal  LDIM  =      5   non local SUM 2l+1 LMDIM =     13
   total plane-waves  NPLWV =  92160
   max r-space proj   IRMAX =   3303   max aug-charges    IRDMAX=   7665
   dimension x,y,z NGX =    24 NGY =   24 NGZ =  160
   dimension x,y,z NGXF=    32 NGYF=   32 NGZF=  240
   support grid    NGXF=    32 NGYF=   32 NGZF=  240
   ions per type =               4   3
   NGX,Y,Z   is equivalent  to a cutoff of  13.28, 13.28, 11.90 a.u.
   NGXF,Y,Z  is equivalent  to a cutoff of  17.71, 17.71, 17.84 a.u.

 SYSTEM =  Al110                                   
 POSCAR =  MgO7                                    

 Startparameter for this run:
   NWRITE =      2    write-flag & timer
   PREC   = h         normal or accurate (medium, high low for compatibility)
   ISTART =      0    job   : 0-new  1-cont  2-samecut
   ICHARG =      2    charge: 1-file 2-atom 10-const
   ISPIN  =      1    spin polarized calculation?
   LNONCOLLINEAR =      F non collinear calculations
   LSORBIT =      F    spin-orbit coupling
   INIWAV =      1    electr: 0-lowe 1-rand  2-diag
   LASPH  =      F    aspherical Exc in radial PAW
   METAGGA=      F    non-selfconsistent MetaGGA calc.

 Electronic Relaxation 1
   ENCUT  =  450.0 eV  33.07 Ry    5.75 a.u.   5.20  5.20 38.67*2*pi/ulx,y,z
   ENINI  =  450.0     initial cutoff
   ENAUG  =  605.4 eV  augmentation charge cutoff
   NELM   =    100;   NELMIN=  8; NELMDL=  8     # of ELM steps 
   EDIFF  = 0.1E-04   stopping-criterion for ELM
   LREAL  =      T    real-space projection
   NLSPLINE    = F    spline interpolate recip. space projectors
   LCOMPAT=      F    compatible to vasp.4.4
   GGA_COMPAT  = T    GGA compatible to vasp.4.4-vasp.4.6
   LMAXPAW     = -100 max onsite density
   LMAXMIX     =    2 max onsite mixed and CHGCAR
   VOSKOWN=      0    Vosko Wilk Nusair interpolation
   ROPT   =   -0.00040  -0.00040
 Ionic relaxation
   EDIFFG = -.1E-01   stopping-criterion for IOM
   NSW    =    500    number of steps for IOM
   NBLOCK =      1;   KBLOCK =    500    inner block; outer block 
   IBRION =      2    ionic relax: 0-MD 1-quasi-New 2-CG
   NFREE  =      1    steps in history (QN), initial steepest desc. (CG)
   ISIF   =      2    stress and relaxation
   IWAVPR =     11    prediction:  0-non 1-charg 2-wave 3-comb
   ISYM   =      2    0-nonsym 1-usesym 2-fastsym
   LCORR  =      T    Harris-Foulkes like correction to forces

   POTIM  = 0.5000    time-step for ionic-motion
   TEIN   =    0.0    initial temperature
   TEBEG  =    0.0;   TEEND  =   0.0 temperature during run
   SMASS  =  -3.00    Nose mass-parameter (am)
   estimated Nose-frequenzy (Omega)   =  0.10E-29 period in steps =****** mass=  -0.206E-27a.u.
   SCALEE = 1.0000    scale energy and forces
   NPACO  =    256;   APACO  = 16.0  distance and # of slots for P.C.
   PSTRESS=    0.0 pullay stress

  Mass of Ions in am
   POMASS =  24.30 16.00
  Ionic Valenz
   ZVAL   =   2.00  6.00
  Atomic Wigner-Seitz radii
   RWIGS  =  -1.00 -1.00
  virtual crystal weights 
   VCA    =   1.00  1.00
   NELECT =      26.0000    total number of electrons
   NUPDOWN=      -1.0000    fix difference up-down

 DOS related values:
   EMIN   =  10.00;   EMAX   =-10.00  energy-range for DOS
   EFERMI =   0.00
   ISMEAR =     0;   SIGMA  =   0.05  broadening in eV -4-tet -1-fermi 0-gaus

 Electronic relaxation 2 (details)
   IALGO  =     68    algorithm
   LDIAG  =      T    sub-space diagonalisation (order eigenvalues)
   LSUBROT=      F    optimize rotation matrix (better conditioning)
   TURBO    =      0    0=normal 1=particle mesh
   IRESTART =      0    0=no restart 2=restart with 2 vectors
   NREBOOT  =      0    no. of reboots
   NMIN     =      0    reboot dimension
   EREF     =   0.00    reference energy to select bands
   IMIX   =      4    mixing-type and parameters
     AMIX     =   0.40;   BMIX     =  1.00
     AMIX_MAG =   1.60;   BMIX_MAG =  1.00
     AMIN     =   0.10
     WC   =   100.;   INIMIX=   1;  MIXPRE=   1;  MAXMIX= -45

 Intra band minimization:
   WEIMIN = 0.0010     energy-eigenvalue tresh-hold
   EBREAK =  0.13E-06  absolut break condition
   DEPER  =   0.30     relativ break condition  

   TIME   =   0.40     timestep for ELM

  volume/ion in A,a.u.               =      24.97       168.50
  Fermi-wavevector in a.u.,A,eV,Ry     =   0.867423  1.639191 10.237328  0.752422
  Thomas-Fermi vector in A             =   1.985955
 
 Write flags
   LWAVE        =      F    write WAVECAR
   LDOWNSAMPLE  =      F    k-point downsampling of WAVECAR
   LCHARG       =      F    write CHGCAR
   LVTOT        =      F    write LOCPOT, total local potential
   LVHAR        =      F    write LOCPOT, Hartree potential only
   LELF         =      F    write electronic localiz. function (ELF)
   LORBIT       =      0    0 simple, 1 ext, 2 COOP (PROOUT), +10 PAW based schemes


 Dipole corrections
   LMONO  =      F    monopole corrections only (constant potential shift)
   LDIPOL =      F    correct potential (dipole corrections)
   IDIPOL =      0    1-x, 2-y, 3-z, 4-all directions 
   EPSILON=  1.0000000 bulk dielectric constant

 Exchange correlation treatment:
   GGA     =    --    GGA type
   LEXCH   =     8    internal setting for exchange type
   VOSKOWN=      0    Vosko Wilk Nusair interpolation
   LHFCALC =     F    Hartree Fock is set to
   LHFONE  =     F    Hartree Fock one center treatment
   AEXX    =    0.0000 exact exchange contribution

 Linear response parameters
   LEPSILON=     F    determine dielectric tensor
   LRPA    =     F    only Hartree local field effects (RPA)
   LNABLA  =     F    use nabla operator in PAW spheres
   LVEL    =     F    velocity operator in full k-point grid
   LINTERFAST=   F  fast interpolation
   KINTER  =     0    interpolate to denser k-point grid
   CSHIFT  =0.1000    complex shift for real part using Kramers Kronig
   OMEGAMAX=  -1.0    maximum frequency
   DEG_THRESHOLD= 0.2000000E-02 threshold for treating states as degnerate
   RTIME   =   -0.100 relaxation time in fs
  (WPLASMAI=    0.000 imaginary part of plasma frequency in eV, 0.658/RTIME)
   DFIELD  = 0.0000000 0.0000000 0.0000000 field for delta impulse in time
 
 Orbital magnetization related:
   ORBITALMAG=     F  switch on orbital magnetization
   LCHIMAG   =     F  perturbation theory with respect to B field
   DQ        =  0.001000  dq finite difference perturbation B field
   LLRAUG    =     F  two centre corrections for induced B field



--------------------------------------------------------------------------------------------------------


 conjugate gradient relaxation of ions
   using selective dynamics as specified on POSCAR
 charge density and potential will be updated during run
 non-spin polarized calculation
 RMM-DIIS sequential band-by-band and
  variant of blocked Davidson during initial phase
 perform sub-space diagonalisation
    before iterative eigenvector-optimisation
 modified Broyden-mixing scheme, WC =      100.0
 initial mixing is a Kerker type mixing with AMIX =  0.4000 and BMIX =      1.0000
 Hartree-type preconditioning will be used
 using additional bands            7
 real space projection scheme for non local part
 use partial core corrections
 calculate Harris-corrections to forces 
   (improved forces if not selfconsistent)
 use gradient corrections 
 use of overlap-Matrix (Vanderbilt PP)
 Gauss-broadening in eV      SIGMA  =   0.05


--------------------------------------------------------------------------------------------------------


  energy-cutoff  :      450.00
  volume of cell :      174.79
      direct lattice vectors                 reciprocal lattice vectors
     2.124436000 -2.124435000  0.000000000     0.313808828 -0.156904414 -0.156904414
     0.000000000  2.124436000 -2.124436000     0.156904340  0.156904414 -0.313808754
    12.909125000 12.909125000 12.909125000     0.025821520  0.025821532  0.025821532

  length of vectors
     3.004405496  3.004406204 22.359260381     0.384335753  0.384335662  0.044724199


 
 k-points in units of 2pi/SCALE and weight: K-Spacing Value to Generate K-Mesh: 0.02
   0.02941957 -0.00000000 -0.02941957       0.031
   0.06864568 -0.01961305 -0.04903262       0.062
   0.10787178 -0.03922610 -0.06864568       0.062
   0.14709788 -0.05883916 -0.08825873       0.062
  -0.12748484  0.07845221  0.04903263       0.062
  -0.08825874  0.05883916  0.02941958       0.062
  -0.04903263  0.03922610  0.00980653       0.062
  -0.00980653  0.01961305 -0.00980652       0.031
   0.08825872  0.00000000 -0.08825872       0.031
   0.12748482 -0.01961305 -0.10787177       0.062
   0.16671093 -0.03922610 -0.12748482       0.062
  -0.10787180  0.09806526  0.00980654       0.062
  -0.06864569  0.07845221 -0.00980651       0.062
  -0.02941959  0.05883916 -0.02941956       0.031
   0.14709787  0.00000000 -0.14709787       0.031
   0.18632397 -0.01961305 -0.16671092       0.062
  -0.08825876  0.11767831 -0.02941955       0.062
  -0.04903265  0.09806526 -0.04903261       0.031
   0.20593701 -0.00000000 -0.20593701       0.031
  -0.06864571  0.13729136 -0.06864565       0.031
 
 k-points in reciprocal lattice and weights: K-Spacing Value to Generate K-Mesh: 0.02
   0.06250000  0.06250000 -0.00000000       0.031
   0.18750000  0.06250000 -0.00000000       0.062
   0.31250000  0.06250000 -0.00000000       0.062
   0.43750000  0.06250000 -0.00000000       0.062
  -0.43750000  0.06250000  0.00000000       0.062
  -0.31250000  0.06250000  0.00000000       0.062
  -0.18750000  0.06250000  0.00000000       0.062
  -0.06250000  0.06250000  0.00000000       0.031
   0.18750000  0.18750000  0.00000000       0.031
   0.31250000  0.18750000  0.00000000       0.062
   0.43750000  0.18750000 -0.00000000       0.062
  -0.43750000  0.18750000  0.00000000       0.062
  -0.31250000  0.18750000  0.00000000       0.062
  -0.18750000  0.18750000  0.00000000       0.031
   0.31250000  0.31250000  0.00000000       0.031
   0.43750000  0.31250000 -0.00000000       0.062
  -0.43750000  0.31250000 -0.00000000       0.062
  -0.31250000  0.31250000  0.00000000       0.031
   0.43750000  0.43750000  0.00000000       0.031
  -0.43750000  0.43750000  0.00000000       0.031
 
 position of ions in fractional coordinates (direct lattice) 
   0.00000000  0.00000000  0.04472400
   0.33333300  0.66666700  0.15443700
   0.00000000  0.00000000  0.37386100
   0.66666700  0.33333300  0.26414900
   0.00000000  0.00000000  0.20929300
   0.66666700  0.33333300  0.09958000
   0.33333300  0.66666700  0.31900500
 
 position of ions in cartesian coordinates  (Angst):
   0.57734771  0.57734771  0.57734771
   2.70179116  2.70179362  0.57735516
   4.82621838  4.82621838  4.82621838
   4.82622383  2.70178638  2.70178783
   2.70178950  2.70178950  2.70178950
   2.70178204  0.57734458  0.57734604
   4.82622005  4.82622250  2.70178405
 


--------------------------------------------------------------------------------------------------------


 k-point  1 :   0.0625 0.0625-0.0000  plane waves:    3769
 k-point  2 :   0.1875 0.0625-0.0000  plane waves:    3782
 k-point  3 :   0.3125 0.0625-0.0000  plane waves:    3802
 k-point  4 :   0.4375 0.0625-0.0000  plane waves:    3796
 k-point  5 :  -0.4375 0.0625 0.0000  plane waves:    3804
 k-point  6 :  -0.3125 0.0625 0.0000  plane waves:    3792
 k-point  7 :  -0.1875 0.0625 0.0000  plane waves:    3779
 k-point  8 :  -0.0625 0.0625 0.0000  plane waves:    3755
 k-point  9 :   0.1875 0.1875 0.0000  plane waves:    3783
 k-point 10 :   0.3125 0.1875 0.0000  plane waves:    3797
 k-point 11 :   0.4375 0.1875-0.0000  plane waves:    3783
 k-point 12 :  -0.4375 0.1875 0.0000  plane waves:    3783
 k-point 13 :  -0.3125 0.1875 0.0000  plane waves:    3774
 k-point 14 :  -0.1875 0.1875 0.0000  plane waves:    3785
 k-point 15 :   0.3125 0.3125 0.0000  plane waves:    3779
 k-point 16 :   0.4375 0.3125-0.0000  plane waves:    3780
 k-point 17 :  -0.4375 0.3125-0.0000  plane waves:    3803
 k-point 18 :  -0.3125 0.3125 0.0000  plane waves:    3795
 k-point 19 :   0.4375 0.4375 0.0000  plane waves:    3800
 k-point 20 :  -0.4375 0.4375 0.0000  plane waves:    3823

 maximum and minimum number of plane-waves per node :       962      927

 maximum number of plane-waves:      3823
 maximum index in each direction: 
   IXMAX=    5   IYMAX=    5   IZMAX=   38
   IXMIN=   -5   IYMIN=   -5   IZMIN=  -38


 real space projection operators:
  total allocation   :       1665.16 KBytes
  max/ min on nodes  :        419.88        412.97


 parallel 3D FFT for wavefunctions:
    minimum data exchange during FFTs selected (reduces bandwidth)
 parallel 3D FFT for charge:
    minimum data exchange during FFTs selected (reduces bandwidth)


 total amount of memory used by VASP MPI-rank0    35192. kBytes
=======================================================================

   base      :      30000. kBytes
   nonlr-proj:        904. kBytes
   fftplans  :       1229. kBytes
   grid      :       1789. kBytes
   one-center:         16. kBytes
   wavefun   :       1254. kBytes
 
     INWAV:  cpu time    0.0000: real time    0.0001
 Broyden mixing: mesh for mixing (old mesh)
   NGX = 11   NGY = 11   NGZ = 77
  (NGX  = 32   NGY  = 32   NGZ  =240)
  gives a total of   9317 points

 initial charge density was supplied:
 charge density of overlapping atoms calculated
 number of electron      26.0000000 magnetization 
 keeping initial charge density in first step


--------------------------------------------------------------------------------------------------------


 Maximum index for non-local projection operator          802
 Maximum index for augmentation-charges          555 (set IRDMAX)


--------------------------------------------------------------------------------------------------------


 First call to EWALD:  gamma=   0.317
 Maximum number of real-space cells 5x 5x 1
 Maximum number of reciprocal cells 2x 2x10

    FEWALD:  cpu time    0.0014: real time    0.0014


--------------------------------------- Iteration      1(   1)  ---------------------------------------


    POTLOK:  cpu time    0.0099: real time    0.0099
    SETDIJ:  cpu time    0.0023: real time    0.0022
     EDDAV:  cpu time    0.4650: real time    0.4754
       DOS:  cpu time    0.0006: real time    0.0006
    --------------------------------------------
      LOOP:  cpu time    0.4778: real time    0.4882

 eigenvalue-minimisations  :   800
 total energy-change (2. order) : 0.1768105E+03  (-0.1008742E+04)
 number of electron      26.0000000 magnetization 
 augmentation part       26.0000000 magnetization 

 Free energy of the ion-electron system (eV)
  ---------------------------------------------------
  alpha Z        PSCENC =        23.72454146
  Ewald energy   TEWEN  =      5062.98561593
  -Hartree energ DENC   =     -6300.36724215
  -exchange      EXHF   =         0.00000000
  -V(xc)+E(xc)   XCENC  =      -110.85438478
  PAW double counting   =      1300.87521174    -1098.82027761
  entropy T*S    EENTRO =        -0.00415244
  eigenvalues    EBANDS =       -89.89563745
  atomic energy  EATOM  =      1389.16687234
  Solvation  Ediel_sol  =         0.00000000
  ---------------------------------------------------
  free energy    TOTEN  =       176.81054705 eV

  energy without entropy =      176.81469949  energy(sigma->0) =      176.81262327


--------------------------------------------------------------------------------------------------------




--------------------------------------- Iteration      1(   2)  ---------------------------------------


     EDDAV:  cpu time    0.5788: real time    0.5824
       DOS:  cpu time    0.0006: real time    0.0006
    --------------------------------------------
      LOOP:  cpu time    0.5794: real time    0.5830

 eigenvalue-minimisations  :  1030
 total energy-change (2. order) :-0.1922985E+03  (-0.1851961E+03)
 number of electron      26.0000000 magnetization 
 augmentation part       26.0000000 magnetization 

 Free energy of the ion-electron system (eV)
  ---------------------------------------------------
  alpha Z        PSCENC =        23.72454146
  Ewald energy   TEWEN  =      5062.98561593
  -Hartree energ DENC   =     -6300.36724215
  -exchange      EXHF   =         0.00000000
  -V(xc)+E(xc)   XCENC  =      -110.85438478
  PAW double counting   =      1300.87521174    -1098.82027761
  entropy T*S    EENTRO =        -0.00236853
  eigenvalues    EBANDS =      -282.19592872
  atomic energy  EATOM  =      1389.16687234
  Solvation  Ediel_sol  =         0.00000000
  ---------------------------------------------------
  free energy    TOTEN  =       -15.48796031 eV

  energy without entropy =      -15.48559178  energy(sigma->0) =      -15.48677605


--------------------------------------------------------------------------------------------------------




--------------------------------------- Iteration      1(   3)  ---------------------------------------


     EDDAV:  cpu time    0.4163: real time    0.4192
       DOS:  cpu time    0.0006: real time    0.0012
    --------------------------------------------
      LOOP:  cpu time    0.4169: real time    0.4204

 eigenvalue-minimisations  :   860
 total energy-change (2. order) :-0.2507969E+02  (-0.2498209E+02)
 number of electron      26.0000000 magnetization 
 augmentation part       26.0000000 magnetization 

 Free energy of the ion-electron system (eV)
  ---------------------------------------------------
  alpha Z        PSCENC =        23.72454146
  Ewald energy   TEWEN  =      5062.98561593
  -Hartree energ DENC   =     -6300.36724215
  -exchange      EXHF   =         0.00000000
  -V(xc)+E(xc)   XCENC  =      -110.85438478
  PAW double counting   =      1300.87521174    -1098.82027761
  entropy T*S    EENTRO =        -0.00301418
  eigenvalues    EBANDS =      -307.27496828
  atomic energy  EATOM  =      1389.16687234
  Solvation  Ediel_sol  =         0.00000000
  ---------------------------------------------------
  free energy    TOTEN  =       -40.56764552 eV

  energy without entropy =      -40.56463134  energy(sigma->0) =      -40.56613843


--------------------------------------------------------------------------------------------------------




--------------------------------------- Iteration      1(   4)  ---------------------------------------


     EDDAV:  cpu time    0.4657: real time    0.4694
       DOS:  cpu time    0.0010: real time    0.0006
    --------------------------------------------
      LOOP:  cpu time    0.4666: real time    0.4700

 eigenvalue-minimisations  :  1170
 total energy-change (2. order) :-0.3979406E+00  (-0.3970559E+00)
 number of electron      26.0000000 magnetization 
 augmentation part       26.0000000 magnetization 

 Free energy of the ion-electron system (eV)
  ---------------------------------------------------
  alpha Z        PSCENC =        23.72454146
  Ewald energy   TEWEN  =      5062.98561593
  -Hartree energ DENC   =     -6300.36724215
  -exchange      EXHF   =         0.00000000
  -V(xc)+E(xc)   XCENC  =      -110.85438478
  PAW double counting   =      1300.87521174    -1098.82027761
  entropy T*S    EENTRO =        -0.00303431
  eigenvalues    EBANDS =      -307.67288878
  atomic energy  EATOM  =      1389.16687234
  Solvation  Ediel_sol  =         0.00000000
  ---------------------------------------------------
  free energy    TOTEN  =       -40.96558615 eV

  energy without entropy =      -40.96255184  energy(sigma->0) =      -40.96406900


--------------------------------------------------------------------------------------------------------




--------------------------------------- Iteration      1(   5)  ---------------------------------------


     EDDAV:  cpu time    0.4927: real time    0.4969
       DOS:  cpu time    0.0005: real time    0.0005
    --------------------------------------------
      LOOP:  cpu time    0.4932: real time    0.4974

 eigenvalue-minimisations  :   920
 total energy-change (2. order) :-0.4371758E-02  (-0.4371605E-02)
 number of electron      26.0000000 magnetization 
 augmentation part       26.0000000 magnetization 

 Free energy of the ion-electron system (eV)
  ---------------------------------------------------
  alpha Z        PSCENC =        23.72454146
  Ewald energy   TEWEN  =      5062.98561593
  -Hartree energ DENC   =     -6300.36724215
  -exchange      EXHF   =         0.00000000
  -V(xc)+E(xc)   XCENC  =      -110.85438478
  PAW double counting   =      1300.87521174    -1098.82027761
  entropy T*S    EENTRO =        -0.00303431
  eigenvalues    EBANDS =      -307.67726053
  atomic energy  EATOM  =      1389.16687234
  Solvation  Ediel_sol  =         0.00000000
  ---------------------------------------------------
  free energy    TOTEN  =       -40.96995791 eV

  energy without entropy =      -40.96692360  energy(sigma->0) =      -40.96844075


--------------------------------------------------------------------------------------------------------




--------------------------------------- Iteration      1(   6)  ---------------------------------------


     EDDAV:  cpu time    0.6285: real time    0.6333
       DOS:  cpu time    0.0006: real time    0.0006
    --------------------------------------------
      LOOP:  cpu time    0.6291: real time    0.6338

 eigenvalue-minimisations  :  1160
 total energy-change (2. order) :-0.7528445E-04  (-0.7528130E-04)
 number of electron      26.0000000 magnetization 
 augmentation part       26.0000000 magnetization 

 Free energy of the ion-electron system (eV)
  ---------------------------------------------------
  alpha Z        PSCENC =        23.72454146
  Ewald energy   TEWEN  =      5062.98561593
  -Hartree energ DENC   =     -6300.36724215
  -exchange      EXHF   =         0.00000000
  -V(xc)+E(xc)   XCENC  =      -110.85438478
  PAW double counting   =      1300.87521174    -1098.82027761
  entropy T*S    EENTRO =        -0.00303431
  eigenvalues    EBANDS =      -307.67733582
  atomic energy  EATOM  =      1389.16687234
  Solvation  Ediel_sol  =         0.00000000
  ---------------------------------------------------
  free energy    TOTEN  =       -40.97003319 eV

  energy without entropy =      -40.96699888  energy(sigma->0) =      -40.96851604


--------------------------------------------------------------------------------------------------------




--------------------------------------- Iteration      1(   7)  ---------------------------------------


     EDDAV:  cpu time    0.4363: real time    0.4383
       DOS:  cpu time    0.0006: real time    0.0013
    --------------------------------------------
      LOOP:  cpu time    0.4368: real time    0.4396

 eigenvalue-minimisations  :  1060
 total energy-change (2. order) :-0.1707117E-05  (-0.1707064E-05)
 number of electron      26.0000000 magnetization 
 augmentation part       26.0000000 magnetization 

 Free energy of the ion-electron system (eV)
  ---------------------------------------------------
  alpha Z        PSCENC =        23.72454146
  Ewald energy   TEWEN  =      5062.98561593
  -Hartree energ DENC   =     -6300.36724215
  -exchange      EXHF   =         0.00000000
  -V(xc)+E(xc)   XCENC  =      -110.85438478
  PAW double counting   =      1300.87521174    -1098.82027761
  entropy T*S    EENTRO =        -0.00303431
  eigenvalues    EBANDS =      -307.67733752
  atomic energy  EATOM  =      1389.16687234
  Solvation  Ediel_sol  =         0.00000000
  ---------------------------------------------------
  free energy    TOTEN  =       -40.97003490 eV

  energy without entropy =      -40.96700059  energy(sigma->0) =      -40.96851774


--------------------------------------------------------------------------------------------------------




--------------------------------------- Iteration      1(   8)  ---------------------------------------


     EDDAV:  cpu time    0.4593: real time    0.4630
       DOS:  cpu time    0.0006: real time    0.0006
    CHARGE:  cpu time    0.0237: real time    0.0239
    MIXING:  cpu time    0.0010: real time    0.0010
    --------------------------------------------
      LOOP:  cpu time    0.4846: real time    0.4885

 eigenvalue-minimisations  :   970
 total energy-change (2. order) :-0.5076322E-07  (-0.5079210E-07)
 number of electron      26.0000004 magnetization 
 augmentation part        2.4127859 magnetization 

 Broyden mixing:
  rms(total) = 0.13161E+01    rms(broyden)= 0.13157E+01
  rms(prec ) = 0.14363E+01
  weight for this iteration     100.00

 Free energy of the ion-electron system (eV)
  ---------------------------------------------------
  alpha Z        PSCENC =        23.72454146
  Ewald energy   TEWEN  =      5062.98561593
  -Hartree energ DENC   =     -6300.36724215
  -exchange      EXHF   =         0.00000000
  -V(xc)+E(xc)   XCENC  =      -110.85438478
  PAW double counting   =      1300.87521174    -1098.82027761
  entropy T*S    EENTRO =        -0.00303431
  eigenvalues    EBANDS =      -307.67733758
  atomic energy  EATOM  =      1389.16687234
  Solvation  Ediel_sol  =         0.00000000
  ---------------------------------------------------
  free energy    TOTEN  =       -40.97003495 eV

  energy without entropy =      -40.96700064  energy(sigma->0) =      -40.96851780


--------------------------------------------------------------------------------------------------------




--------------------------------------- Iteration      1(   9)  ---------------------------------------


    POTLOK:  cpu time    0.0065: real time    0.0066
    SETDIJ:  cpu time    0.0026: real time    0.0026
    EDDIAG:  cpu time    0.0852: real time    0.0856
  RMM-DIIS:  cpu time    0.3041: real time    0.3060
    ORTHCH:  cpu time    0.0088: real time    0.0088
       DOS:  cpu time    0.0006: real time    0.0006
    CHARGE:  cpu time    0.0229: real time    0.0230
    MIXING:  cpu time    0.0009: real time    0.0009
    --------------------------------------------
      LOOP:  cpu time    0.4315: real time    0.4340

 eigenvalue-minimisations  :   801
 total energy-change (2. order) : 0.5304287E+01  (-0.2180357E+01)
 number of electron      26.0000002 magnetization 
 augmentation part        1.9593626 magnetization 

 Broyden mixing:
  rms(total) = 0.43148E+00    rms(broyden)= 0.43085E+00
  rms(prec ) = 0.44483E+00
  weight for this iteration     100.00

 eigenvalues of (default mixing * dielectric matrix)
  average eigenvalue GAMMA=   0.8283
  0.8283

 Free energy of the ion-electron system (eV)
  ---------------------------------------------------
  alpha Z        PSCENC =        23.72454146
  Ewald energy   TEWEN  =      5062.98561593
  -Hartree energ DENC   =     -6379.22147000
  -exchange      EXHF   =         0.00000000
  -V(xc)+E(xc)   XCENC  =      -106.66640867
  PAW double counting   =      1527.09561249    -1326.06758576
  entropy T*S    EENTRO =        -0.00390686
  eigenvalues    EBANDS =      -226.67901890
  atomic energy  EATOM  =      1389.16687234
  Solvation  Ediel_sol  =         0.00000000
  ---------------------------------------------------
  free energy    TOTEN  =       -35.66574796 eV

  energy without entropy =      -35.66184110  energy(sigma->0) =      -35.66379453


--------------------------------------------------------------------------------------------------------




--------------------------------------- Iteration      1(  10)  ---------------------------------------


    POTLOK:  cpu time    0.0064: real time    0.0066
    SETDIJ:  cpu time    0.0017: real time    0.0017
    EDDIAG:  cpu time    0.0851: real time    0.0856
  RMM-DIIS:  cpu time    0.3081: real time    0.3114
    ORTHCH:  cpu time    0.0087: real time    0.0087
       DOS:  cpu time    0.0010: real time    0.0006
    CHARGE:  cpu time    0.0220: real time    0.0225
    MIXING:  cpu time    0.0006: real time    0.0006
    --------------------------------------------
      LOOP:  cpu time    0.4336: real time    0.4378

 eigenvalue-minimisations  :   804
 total energy-change (2. order) : 0.1439714E+00  (-0.1834422E-01)
 number of electron      26.0000002 magnetization 
 augmentation part        1.9693704 magnetization 

 Broyden mixing:
  rms(total) = 0.26729E+00    rms(broyden)= 0.26727E+00
  rms(prec ) = 0.27676E+00
  weight for this iteration     100.00

 eigenvalues of (default mixing * dielectric matrix)
  average eigenvalue GAMMA=   1.6605
  0.9806  2.3403

 Free energy of the ion-electron system (eV)
  ---------------------------------------------------
  alpha Z        PSCENC =        23.72454146
  Ewald energy   TEWEN  =      5062.98561593
  -Hartree energ DENC   =     -6380.16609467
  -exchange      EXHF   =         0.00000000
  -V(xc)+E(xc)   XCENC  =      -106.62800216
  PAW double counting   =      1589.38472205    -1388.22284537
  entropy T*S    EENTRO =        -0.00353271
  eigenvalues    EBANDS =      -225.76305339
  atomic energy  EATOM  =      1389.16687234
  Solvation  Ediel_sol  =         0.00000000
  ---------------------------------------------------
  free energy    TOTEN  =       -35.52177652 eV

  energy without entropy =      -35.51824381  energy(sigma->0) =      -35.52001017


--------------------------------------------------------------------------------------------------------




--------------------------------------- Iteration      1(  11)  ---------------------------------------


    POTLOK:  cpu time    0.0063: real time    0.0064
    SETDIJ:  cpu time    0.0017: real time    0.0017
    EDDIAG:  cpu time    0.0830: real time    0.0833
  RMM-DIIS:  cpu time    0.2400: real time    0.2410
    ORTHCH:  cpu time    0.0077: real time    0.0078
       DOS:  cpu time    0.0010: real time    0.0005
    CHARGE:  cpu time    0.0206: real time    0.0211
    MIXING:  cpu time    0.0006: real time    0.0006
    --------------------------------------------
      LOOP:  cpu time    0.3609: real time    0.3625

 eigenvalue-minimisations  :   800
 total energy-change (2. order) : 0.3998899E-01  (-0.1791047E-01)
 number of electron      26.0000003 magnetization 
 augmentation part        1.9931896 magnetization 

 Broyden mixing:
  rms(total) = 0.47011E-01    rms(broyden)= 0.46983E-01
  rms(prec ) = 0.50486E-01
  weight for this iteration     100.00

 eigenvalues of (default mixing * dielectric matrix)
  average eigenvalue GAMMA=   1.4534
  2.4873  0.9364  0.9364

 Free energy of the ion-electron system (eV)
  ---------------------------------------------------
  alpha Z        PSCENC =        23.72454146
  Ewald energy   TEWEN  =      5062.98561593
  -Hartree energ DENC   =     -6384.98342859
  -exchange      EXHF   =         0.00000000
  -V(xc)+E(xc)   XCENC  =      -106.31105458
  PAW double counting   =      1704.79713610    -1503.47818739
  entropy T*S    EENTRO =        -0.00351714
  eigenvalues    EBANDS =      -221.37976567
  atomic energy  EATOM  =      1389.16687234
  Solvation  Ediel_sol  =         0.00000000
  ---------------------------------------------------
  free energy    TOTEN  =       -35.48178753 eV

  energy without entropy =      -35.47827039  energy(sigma->0) =      -35.48002896


--------------------------------------------------------------------------------------------------------




--------------------------------------- Iteration      1(  12)  ---------------------------------------


    POTLOK:  cpu time    0.0057: real time    0.0059
    SETDIJ:  cpu time    0.0016: real time    0.0016
    EDDIAG:  cpu time    0.0738: real time    0.0741
  RMM-DIIS:  cpu time    0.2333: real time    0.2344
    ORTHCH:  cpu time    0.0078: real time    0.0079
       DOS:  cpu time    0.0005: real time    0.0005
    CHARGE:  cpu time    0.0216: real time    0.0217
    MIXING:  cpu time    0.0006: real time    0.0006
    --------------------------------------------
      LOOP:  cpu time    0.3450: real time    0.3467

 eigenvalue-minimisations  :   801
 total energy-change (2. order) : 0.4820830E-02  (-0.1734617E-02)
 number of electron      26.0000003 magnetization 
 augmentation part        1.9829117 magnetization 

 Broyden mixing:
  rms(total) = 0.16392E-01    rms(broyden)= 0.16387E-01
  rms(prec ) = 0.17727E-01
  weight for this iteration     100.00

 eigenvalues of (default mixing * dielectric matrix)
  average eigenvalue GAMMA=   1.7591
  0.9188  0.9188  2.5994  2.5994

 Free energy of the ion-electron system (eV)
  ---------------------------------------------------
  alpha Z        PSCENC =        23.72454146
  Ewald energy   TEWEN  =      5062.98561593
  -Hartree energ DENC   =     -6387.03038059
  -exchange      EXHF   =         0.00000000
  -V(xc)+E(xc)   XCENC  =      -106.15906223
  PAW double counting   =      1708.52891958    -1507.24478379
  entropy T*S    EENTRO =        -0.00350258
  eigenvalues    EBANDS =      -219.44518683
  atomic energy  EATOM  =      1389.16687234
  Solvation  Ediel_sol  =         0.00000000
  ---------------------------------------------------
  free energy    TOTEN  =       -35.47696670 eV

  energy without entropy =      -35.47346412  energy(sigma->0) =      -35.47521541


--------------------------------------------------------------------------------------------------------




--------------------------------------- Iteration      1(  13)  ---------------------------------------


    POTLOK:  cpu time    0.0059: real time    0.0060
    SETDIJ:  cpu time    0.0017: real time    0.0017
    EDDIAG:  cpu time    0.0743: real time    0.0746
  RMM-DIIS:  cpu time    0.3199: real time    0.3218
    ORTHCH:  cpu time    0.0088: real time    0.0089
       DOS:  cpu time    0.0006: real time    0.0006
    CHARGE:  cpu time    0.0225: real time    0.0226
    MIXING:  cpu time    0.0007: real time    0.0007
    --------------------------------------------
      LOOP:  cpu time    0.4343: real time    0.4368

 eigenvalue-minimisations  :   800
 total energy-change (2. order) :-0.3034341E-02  (-0.7920281E-03)
 number of electron      26.0000003 magnetization 
 augmentation part        1.9760748 magnetization 

 Broyden mixing:
  rms(total) = 0.22634E-01    rms(broyden)= 0.22625E-01
  rms(prec ) = 0.50600E-01
  weight for this iteration     100.00

 eigenvalues of (default mixing * dielectric matrix)
  average eigenvalue GAMMA=   1.4533
  2.6239  2.6239  0.9163  0.9163  0.1859

 Free energy of the ion-electron system (eV)
  ---------------------------------------------------
  alpha Z        PSCENC =        23.72454146
  Ewald energy   TEWEN  =      5062.98561593
  -Hartree energ DENC   =     -6387.33513807
  -exchange      EXHF   =         0.00000000
  -V(xc)+E(xc)   XCENC  =      -106.08713803
  PAW double counting   =      1699.51897537    -1498.26552888
  entropy T*S    EENTRO =        -0.00211778
  eigenvalues    EBANDS =      -219.18608338
  atomic energy  EATOM  =      1389.16687234
  Solvation  Ediel_sol  =         0.00000000
  ---------------------------------------------------
  free energy    TOTEN  =       -35.48000104 eV

  energy without entropy =      -35.47788327  energy(sigma->0) =      -35.47894215


--------------------------------------------------------------------------------------------------------




--------------------------------------- Iteration      1(  14)  ---------------------------------------


    POTLOK:  cpu time    0.0067: real time    0.0068
    SETDIJ:  cpu time    0.0017: real time    0.0018
    EDDIAG:  cpu time    0.0824: real time    0.0829
  RMM-DIIS:  cpu time    0.3101: real time    0.3120
    ORTHCH:  cpu time    0.0094: real time    0.0094
       DOS:  cpu time    0.0006: real time    0.0014
    CHARGE:  cpu time    0.0232: real time    0.0233
    MIXING:  cpu time    0.0008: real time    0.0008
    --------------------------------------------
      LOOP:  cpu time    0.4349: real time    0.4384

 eigenvalue-minimisations  :   800
 total energy-change (2. order) : 0.1949335E-02  (-0.6744566E-04)
 number of electron      26.0000003 magnetization 
 augmentation part        1.9746200 magnetization 

 Broyden mixing:
  rms(total) = 0.18947E-01    rms(broyden)= 0.18943E-01
  rms(prec ) = 0.20058E-01
  weight for this iteration     100.00

 eigenvalues of (default mixing * dielectric matrix)
  average eigenvalue GAMMA=   1.3294
  2.5499  2.5499  0.9270  0.9270  0.8559  0.1668

 Free energy of the ion-electron system (eV)
  ---------------------------------------------------
  alpha Z        PSCENC =        23.72454146
  Ewald energy   TEWEN  =      5062.98561593
  -Hartree energ DENC   =     -6387.28108448
  -exchange      EXHF   =         0.00000000
  -V(xc)+E(xc)   XCENC  =      -106.07264709
  PAW double counting   =      1696.56578303    -1495.31941716
  entropy T*S    EENTRO =        -0.00351534
  eigenvalues    EBANDS =      -219.24420040
  atomic energy  EATOM  =      1389.16687234
  Solvation  Ediel_sol  =         0.00000000
  ---------------------------------------------------
  free energy    TOTEN  =       -35.47805171 eV

  energy without entropy =      -35.47453637  energy(sigma->0) =      -35.47629404


--------------------------------------------------------------------------------------------------------




--------------------------------------- Iteration      1(  15)  ---------------------------------------


    POTLOK:  cpu time    0.0073: real time    0.0092
    SETDIJ:  cpu time    0.0023: real time    0.0024
    EDDIAG:  cpu time    0.0827: real time    0.0831
  RMM-DIIS:  cpu time    0.2847: real time    0.2865
    ORTHCH:  cpu time    0.0091: real time    0.0092
       DOS:  cpu time    0.0009: real time    0.0012
    CHARGE:  cpu time    0.0400: real time    0.0403
    MIXING:  cpu time    0.0006: real time    0.0006
    --------------------------------------------
      LOOP:  cpu time    0.4277: real time    0.4325

 eigenvalue-minimisations  :   800
 total energy-change (2. order) : 0.7305715E-03  (-0.2500190E-03)
 number of electron      26.0000003 magnetization 
 augmentation part        1.9791306 magnetization 

 Broyden mixing:
  rms(total) = 0.27168E-02    rms(broyden)= 0.27041E-02
  rms(prec ) = 0.29716E-02
  weight for this iteration     100.00

 eigenvalues of (default mixing * dielectric matrix)
  average eigenvalue GAMMA=   1.5316
  2.9969  2.3252  2.3252  1.0071  1.0071  0.8930  0.1667

 Free energy of the ion-electron system (eV)
  ---------------------------------------------------
  alpha Z        PSCENC =        23.72454146
  Ewald energy   TEWEN  =      5062.98561593
  -Hartree energ DENC   =     -6386.59932937
  -exchange      EXHF   =         0.00000000
  -V(xc)+E(xc)   XCENC  =      -106.11257008
  PAW double counting   =      1696.59720532    -1495.33764765
  entropy T*S    EENTRO =        -0.00351504
  eigenvalues    EBANDS =      -219.89849405
  atomic energy  EATOM  =      1389.16687234
  Solvation  Ediel_sol  =         0.00000000
  ---------------------------------------------------
  free energy    TOTEN  =       -35.47732114 eV

  energy without entropy =      -35.47380610  energy(sigma->0) =      -35.47556362


--------------------------------------------------------------------------------------------------------




--------------------------------------- Iteration      1(  16)  ---------------------------------------


    POTLOK:  cpu time    0.0198: real time    0.0199
    SETDIJ:  cpu time    0.0024: real time    0.0024
    EDDIAG:  cpu time    0.1537: real time    0.1542
  RMM-DIIS:  cpu time    0.2437: real time    0.2449
    ORTHCH:  cpu time    0.0077: real time    0.0077
       DOS:  cpu time    0.0005: real time    0.0005
    CHARGE:  cpu time    0.0214: real time    0.0215
    MIXING:  cpu time    0.0008: real time    0.0008
    --------------------------------------------
      LOOP:  cpu time    0.4500: real time    0.4520

 eigenvalue-minimisations  :   793
 total energy-change (2. order) : 0.2384802E-05  (-0.1193041E-04)
 number of electron      26.0000003 magnetization 
 augmentation part        1.9799726 magnetization 

 Broyden mixing:
  rms(total) = 0.79394E-03    rms(broyden)= 0.78784E-03
  rms(prec ) = 0.10788E-02
  weight for this iteration     100.00

 eigenvalues of (default mixing * dielectric matrix)
  average eigenvalue GAMMA=   1.4486
  2.8565  2.3263  2.3263  1.0171  1.0171  0.9970  0.8816  0.1666

 Free energy of the ion-electron system (eV)
  ---------------------------------------------------
  alpha Z        PSCENC =        23.72454146
  Ewald energy   TEWEN  =      5062.98561593
  -Hartree energ DENC   =     -6386.44523305
  -exchange      EXHF   =         0.00000000
  -V(xc)+E(xc)   XCENC  =      -106.11544784
  PAW double counting   =      1696.92895349    -1495.66737986
  entropy T*S    EENTRO =        -0.00351487
  eigenvalues    EBANDS =      -220.05172636
  atomic energy  EATOM  =      1389.16687234
  Solvation  Ediel_sol  =         0.00000000
  ---------------------------------------------------
  free energy    TOTEN  =       -35.47731875 eV

  energy without entropy =      -35.47380389  energy(sigma->0) =      -35.47556132


--------------------------------------------------------------------------------------------------------




--------------------------------------- Iteration      1(  17)  ---------------------------------------


    POTLOK:  cpu time    0.0059: real time    0.0059
    SETDIJ:  cpu time    0.0017: real time    0.0017
    EDDIAG:  cpu time    0.0779: real time    0.0782
  RMM-DIIS:  cpu time    0.1959: real time    0.1968
    ORTHCH:  cpu time    0.0083: real time    0.0084
       DOS:  cpu time    0.0005: real time    0.0005
    --------------------------------------------
      LOOP:  cpu time    0.2902: real time    0.2915

 eigenvalue-minimisations  :   491
 total energy-change (2. order) : 0.7963749E-06  (-0.4640748E-06)
 number of electron      26.0000003 magnetization 
 augmentation part        1.9799726 magnetization 

 Free energy of the ion-electron system (eV)
  ---------------------------------------------------
  alpha Z        PSCENC =        23.72454146
  Ewald energy   TEWEN  =      5062.98561593
  -Hartree energ DENC   =     -6386.40149287
  -exchange      EXHF   =         0.00000000
  -V(xc)+E(xc)   XCENC  =      -106.11618689
  PAW double counting   =      1696.72623496    -1495.46468097
  entropy T*S    EENTRO =        -0.00351497
  eigenvalues    EBANDS =      -220.09470694
  atomic energy  EATOM  =      1389.16687234
  Solvation  Ediel_sol  =         0.00000000
  ---------------------------------------------------
  free energy    TOTEN  =       -35.47731796 eV

  energy without entropy =      -35.47380298  energy(sigma->0) =      -35.47556047


--------------------------------------------------------------------------------------------------------




 average (electrostatic) potential at core
  the test charge radii are     1.0714  0.7215
  (the norm of the test charge is              1.0000)
       1 -42.0174       2 -41.8784       3 -42.0174       4 -41.8784       5 -76.3130
       6 -76.4018       7 -76.4018
 
 
 
 E-fermi :   0.4514     XC(G=0):  -5.4187     alpha+bet : -5.1983


 k-point     1 :       0.0625    0.0625   -0.0000
  band No.  band energies     occupation 
      1     -20.4692      2.00000
      2     -20.1186      2.00000
      3     -19.6487      2.00000
      4      -7.6198      2.00000
      5      -6.6887      2.00000
      6      -5.2801      2.00000
      7      -4.5518      2.00000
      8      -4.3199      2.00000
      9      -4.2462      2.00000
     10      -4.1505      2.00000
     11      -4.0265      2.00000
     12      -3.7755      2.00000
     13      -1.8613      2.00000
     14      -1.6281      2.00000
     15       2.2631      0.00000
     16       3.1482      0.00000
     17       4.0078      0.00000
     18       4.8042      0.00000
     19       4.9146      0.00000
     20       5.8657      0.00000

 k-point     2 :       0.1875    0.0625   -0.0000
  band No.  band energies     occupation 
      1     -20.1754      2.00000
      2     -19.8888      2.00000
      3     -19.4977      2.00000
      4      -7.1936      2.00000
      5      -6.5997      2.00000
      6      -6.0216      2.00000
      7      -5.6964      2.00000
      8      -5.1305      2.00000
      9      -4.4857      2.00000
     10      -4.3677      2.00000
     11      -4.2733      2.00000
     12      -4.0230      2.00000
     13      -1.1095      2.00000
     14      -1.0538      2.00000
     15       3.4741      0.00000
     16       4.1449      0.00000
     17       4.7991      0.00000
     18       5.7854      0.00000
     19       5.8792      0.00000
     20       7.2796      0.00000

 k-point     3 :       0.3125    0.0625   -0.0000
  band No.  band energies     occupation 
      1     -19.7757      2.00000
      2     -19.5971      2.00000
      3     -19.3324      2.00000
      4      -7.2586      2.00000
      5      -7.0350      2.00000
      6      -6.8187      2.00000
      7      -6.2112      2.00000
      8      -5.2507      2.00000
      9      -4.7628      2.00000
     10      -4.6572      2.00000
     11      -4.4481      2.00000
     12      -4.2788      2.00000
     13       0.0099      2.00000
     14       0.0722      2.00000
     15       4.2844      0.00000
     16       4.8128      0.00000
     17       5.3970      0.00000
     18       5.9376      0.00000
     19       6.5981      0.00000
     20       7.8158      0.00000

 k-point     4 :       0.4375    0.0625   -0.0000
  band No.  band energies     occupation 
      1     -19.4838      2.00000
      2     -19.4220      2.00000
      3     -19.2785      2.00000
      4      -7.8086      2.00000
      5      -7.3786      2.00000
      6      -7.3567      2.00000
      7      -5.5971      2.00000
      8      -5.2403      2.00000
      9      -4.9146      2.00000
     10      -4.8784      2.00000
     11      -4.5866      2.00000
     12      -4.4183      2.00000
     13       1.4516      0.00000
     14       1.5336      0.00000
     15       3.1076      0.00000
     16       3.1588      0.00000
     17       5.3596      0.00000
     18       5.9983      0.00000
     19       6.2657      0.00000
     20       6.8906      0.00000

 k-point     5 :      -0.4375    0.0625    0.0000
  band No.  band energies     occupation 
      1     -19.5992      2.00000
      2     -19.4836      2.00000
      3     -19.2878      2.00000
      4      -7.6106      2.00000
      5      -7.2345      2.00000
      6      -7.1861      2.00000
      7      -5.8937      2.00000
      8      -5.1923      2.00000
      9      -4.8664      2.00000
     10      -4.7949      2.00000
     11      -4.5329      2.00000
     12      -4.3688      2.00000
     13       0.7445      0.00000
     14       0.7963      0.00000
     15       3.8424      0.00000
     16       4.0308      0.00000
     17       5.3948      0.00000
     18       6.1128      0.00000
     19       6.4665      0.00000
     20       6.6106      0.00000

 k-point     6 :      -0.3125    0.0625    0.0000
  band No.  band energies     occupation 
      1     -19.9774      2.00000
      2     -19.7402      2.00000
      3     -19.4081      2.00000
      4      -7.0163      2.00000
      5      -6.7855      2.00000
      6      -6.3398      2.00000
      7      -6.3058      2.00000
      8      -5.2785      2.00000
      9      -4.6275      2.00000
     10      -4.5049      2.00000
     11      -4.3653      2.00000
     12      -4.1596      2.00000
     13      -0.6080      2.00000
     14      -0.5546      2.00000
     15       4.0693      0.00000
     16       4.6871      0.00000
     17       5.1569      0.00000
     18       6.1924      0.00000
     19       6.4733      0.00000
     20       7.7592      0.00000

 k-point     7 :      -0.1875    0.0625    0.0000
  band No.  band energies     occupation 
      1     -20.3455      2.00000
      2     -20.0208      2.00000
      3     -19.5831      2.00000
      4      -7.4346      2.00000
      5      -6.6163      2.00000
      6      -5.5835      2.00000
      7      -5.0612      2.00000
      8      -4.7804      2.00000
      9      -4.3653      2.00000
     10      -4.2578      2.00000
     11      -4.1423      2.00000
     12      -3.8878      2.00000
     13      -1.5280      2.00000
     14      -1.4041      2.00000
     15       2.8188      0.00000
     16       3.5991      0.00000
     17       4.3835      0.00000
     18       5.2576      0.00000
     19       5.2942      0.00000
     20       6.2021      0.00000

 k-point     8 :      -0.0625    0.0625    0.0000
  band No.  band energies     occupation 
      1     -20.5339      2.00000
      2     -20.1705      2.00000
      3     -19.6841      2.00000
      4      -7.7178      2.00000
      5      -6.7396      2.00000
      6      -5.1531      2.00000
      7      -4.2841      2.00000
      8      -4.1661      2.00000
      9      -4.0572      2.00000
     10      -3.9880      2.00000
     11      -3.9238      2.00000
     12      -3.7133      2.00000
     13      -2.0765      2.00000
     14      -1.7396      2.00000
     15       1.9362      0.00000
     16       2.8846      0.00000
     17       3.7715      0.00000
     18       4.5688      0.00000
     19       4.7167      0.00000
     20       5.7010      0.00000

 k-point     9 :       0.1875    0.1875    0.0000
  band No.  band energies     occupation 
      1     -19.8472      2.00000
      2     -19.6442      2.00000
      3     -19.3521      2.00000
      4      -6.9762      2.00000
      5      -6.8129      2.00000
      6      -6.4917      2.00000
      7      -6.3494      2.00000
      8      -5.2948      2.00000
      9      -4.9544      2.00000
     10      -4.7419      2.00000
     11      -4.6175      2.00000
     12      -4.3546      2.00000
     13      -0.1935      2.00000
     14      -0.1791      2.00000
     15       4.7065      0.00000
     16       5.1316      0.00000
     17       5.2804      0.00000
     18       6.3094      0.00000
     19       7.2266      0.00000
     20       7.6625      0.00000

 k-point    10 :       0.3125    0.1875    0.0000
  band No.  band energies     occupation 
      1     -19.5157      2.00000
      2     -19.4244      2.00000
      3     -19.2549      2.00000
      4      -7.3747      2.00000
      5      -7.1183      2.00000
      6      -6.9559      2.00000
      7      -6.0092      2.00000
      8      -5.4393      2.00000
      9      -5.3628      2.00000
     10      -5.1410      2.00000
     11      -4.9019      2.00000
     12      -4.5116      2.00000
     13       1.1930      0.00000
     14       1.2005      0.00000
     15       4.3750      0.00000
     16       4.4446      0.00000
     17       5.9036      0.00000
     18       6.5212      0.00000
     19       6.8416      0.00000
     20       8.0186      0.00000

 k-point    11 :       0.4375    0.1875   -0.0000
  band No.  band energies     occupation 
      1     -19.4147      2.00000
      2     -19.3719      2.00000
      3     -19.2498      2.00000
      4      -7.5118      2.00000
      5      -7.1429      2.00000
      6      -7.0829      2.00000
      7      -5.8924      2.00000
      8      -5.6235      2.00000
      9      -5.4402      2.00000
     10      -5.1270      2.00000
     11      -4.9059      2.00000
     12      -4.5891      2.00000
     13       1.9181      0.00000
     14       1.9411      0.00000
     15       3.5793      0.00000
     16       3.6252      0.00000
     17       6.0498      0.00000
     18       6.4326      0.00000
     19       7.1490      0.00000
     20       8.0769      0.00000

 k-point    12 :      -0.4375    0.1875    0.0000
  band No.  band energies     occupation 
      1     -19.6697      2.00000
      2     -19.5211      2.00000
      3     -19.2901      2.00000
      4      -7.1475      2.00000
      5      -7.0073      2.00000
      6      -6.7637      2.00000
      7      -6.1917      2.00000
      8      -5.3006      2.00000
      9      -5.1969      2.00000
     10      -5.0017      2.00000
     11      -4.8363      2.00000
     12      -4.4227      2.00000
     13       0.4432      1.18364
     14       0.4603      0.80181
     15       4.9490      0.00000
     16       5.2013      0.00000
     17       5.5043      0.00000
     18       6.1433      0.00000
     19       7.3523      0.00000
     20       7.8072      0.00000

 k-point    13 :      -0.3125    0.1875    0.0000
  band No.  band energies     occupation 
      1     -20.0230      2.00000
      2     -19.7732      2.00000
      3     -19.4264      2.00000
      4      -7.0176      2.00000
      5      -6.6661      2.00000
      6      -6.2702      2.00000
      7      -6.1171      2.00000
      8      -5.2651      2.00000
      9      -4.6935      2.00000
     10      -4.5109      2.00000
     11      -4.3695      2.00000
     12      -4.2512      2.00000
     13      -0.7081      2.00000
     14      -0.6879      2.00000
     15       4.0578      0.00000
     16       4.6267      0.00000
     17       5.1011      0.00000
     18       6.2389      0.00000
     19       6.6570      0.00000
     20       7.6102      0.00000

 k-point    14 :      -0.1875    0.1875    0.0000
  band No.  band energies     occupation 
      1     -20.2869      2.00000
      2     -19.9750      2.00000
      3     -19.5531      2.00000
      4      -7.3492      2.00000
      5      -6.5998      2.00000
      6      -5.7576      2.00000
      7      -5.3125      2.00000
      8      -4.9298      2.00000
      9      -4.3640      2.00000
     10      -4.3322      2.00000
     11      -4.1781      2.00000
     12      -3.8938      2.00000
     13      -1.3865      2.00000
     14      -1.2895      2.00000
     15       3.0447      0.00000
     16       3.7873      0.00000
     17       4.5324      0.00000
     18       5.4521      0.00000
     19       5.4690      0.00000
     20       6.6594      0.00000

 k-point    15 :       0.3125    0.3125    0.0000
  band No.  band energies     occupation 
      1     -19.3341      2.00000
      2     -19.3249      2.00000
      3     -19.2397      2.00000
      4      -7.0103      2.00000
      5      -6.9833      2.00000
      6      -6.6551      2.00000
      7      -6.5313      2.00000
      8      -6.1603      2.00000
      9      -6.0955      2.00000
     10      -5.0200      2.00000
     11      -4.9756      2.00000
     12      -4.6776      2.00000
     13       2.5323      0.00000
     14       2.5567      0.00000
     15       4.1973      0.00000
     16       4.2496      0.00000
     17       5.0404      0.00000
     18       5.0586      0.00000
     19       6.6534      0.00000
     20       7.4660      0.00000

 k-point    16 :       0.4375    0.3125   -0.0000
  band No.  band energies     occupation 
      1     -19.4059      2.00000
      2     -19.3599      2.00000
      3     -19.2374      2.00000
      4      -7.2483      2.00000
      5      -7.0801      2.00000
      6      -6.8037      2.00000
      7      -6.2575      2.00000
      8      -5.8458      2.00000
      9      -5.7203      2.00000
     10      -5.1217      2.00000
     11      -4.9787      2.00000
     12      -4.5940      2.00000
     13       1.9057      0.00000
     14       1.9287      0.00000
     15       4.2605      0.00000
     16       4.3069      0.00000
     17       5.8510      0.00000
     18       6.1004      0.00000
     19       7.2180      0.00000
     20       7.8607      0.00000

 k-point    17 :      -0.4375    0.3125   -0.0000
  band No.  band energies     occupation 
      1     -19.6447      2.00000
      2     -19.5078      2.00000
      3     -19.2895      2.00000
      4      -7.3730      2.00000
      5      -7.0898      2.00000
      6      -6.9667      2.00000
      7      -6.0546      2.00000
      8      -5.2054      2.00000
      9      -5.0430      2.00000
     10      -4.9811      2.00000
     11      -4.6062      2.00000
     12      -4.4453      2.00000
     13       0.5382      0.01412
     14       0.5759      0.00043
     15       4.3926      0.00000
     16       4.6698      0.00000
     17       5.5830      0.00000
     18       6.2135      0.00000
     19       6.8091      0.00000
     20       7.9547      0.00000

 k-point    18 :      -0.3125    0.3125    0.0000
  band No.  band energies     occupation 
      1     -19.8915      2.00000
      2     -19.6785      2.00000
      3     -19.3746      2.00000
      4      -7.0898      2.00000
      5      -6.9465      2.00000
      6      -6.5757      2.00000
      7      -6.3277      2.00000
      8      -5.2832      2.00000
      9      -4.6234      2.00000
     10      -4.4782      2.00000
     11      -4.4307      2.00000
     12      -4.1375      2.00000
     13      -0.3729      2.00000
     14      -0.3036      2.00000
     15       4.1417      0.00000
     16       4.7787      0.00000
     17       5.2633      0.00000
     18       6.0238      0.00000
     19       6.4487      0.00000
     20       7.6444      0.00000

 k-point    19 :       0.4375    0.4375    0.0000
  band No.  band energies     occupation 
      1     -19.4391      2.00000
      2     -19.3941      2.00000
      3     -19.2664      2.00000
      4      -7.7179      2.00000
      5      -7.2984      2.00000
      6      -7.2719      2.00000
      7      -5.6150      2.00000
      8      -5.3131      2.00000
      9      -5.1632      2.00000
     10      -5.1240      2.00000
     11      -4.6724      2.00000
     12      -4.5834      2.00000
     13       1.7906      0.00000
     14       1.8707      0.00000
     15       3.0926      0.00000
     16       3.1797      0.00000
     17       5.6572      0.00000
     18       6.2845      0.00000
     19       6.5764      0.00000
     20       7.1393      0.00000

 k-point    20 :      -0.4375    0.4375    0.0000
  band No.  band energies     occupation 
      1     -19.5417      2.00000
      2     -19.4534      2.00000
      3     -19.2849      2.00000
      4      -7.7691      2.00000
      5      -7.3436      2.00000
      6      -7.3335      2.00000
      7      -5.7301      2.00000
      8      -5.2080      2.00000
      9      -4.7951      2.00000
     10      -4.7087      2.00000
     11      -4.5995      2.00000
     12      -4.3021      2.00000
     13       1.0610      0.00000
     14       1.1232      0.00000
     15       3.4089      0.00000
     16       3.4828      0.00000
     17       5.2726      0.00000
     18       5.9154      0.00000
     19       6.2066      0.00000
     20       6.7180      0.00000


--------------------------------------------------------------------------------------------------------


 soft charge-density along one line, spin component           1
         0         1         2         3         4         5         6         7         8         9
 total charge-density along one line
 
 pseudopotential strength for first ion, spin component:           1
  3.016   9.715  -0.002  -0.002  -0.002  -0.002  -0.002  -0.002
  9.715  31.084  -0.005  -0.005  -0.005  -0.008  -0.008  -0.008
 -0.002  -0.005   6.908  -0.000  -0.000  10.359  -0.001  -0.001
 -0.002  -0.005  -0.000   6.908  -0.000  -0.001  10.359  -0.001
 -0.002  -0.005  -0.000  -0.000   6.908  -0.001  -0.001  10.359
 -0.002  -0.008  10.359  -0.001  -0.001  14.605  -0.001  -0.001
 -0.002  -0.008  -0.001  10.359  -0.001  -0.001  14.605  -0.001
 -0.002  -0.008  -0.001  -0.001  10.359  -0.001  -0.001  14.605
 -0.000  -0.001  -0.000  -0.000  -0.000  -0.001  -0.000  -0.001
 -0.000  -0.001  -0.000  -0.000  -0.000  -0.001  -0.001  -0.000
 -0.000  -0.000   0.001  -0.003   0.001   0.002  -0.004   0.002
 -0.000  -0.001  -0.000  -0.000  -0.000  -0.000  -0.001  -0.001
 -0.000  -0.000   0.002  -0.000  -0.002   0.003  -0.000  -0.003
 total augmentation occupancy for first ion, spin component:           1
  1.181  -0.029  -0.003  -0.003  -0.003  -0.004  -0.004  -0.004  -0.013  -0.013   0.000  -0.013   0.000
 -0.029   0.001  -0.004  -0.004  -0.004   0.000   0.000   0.000   0.000   0.000  -0.000   0.000  -0.000
 -0.003  -0.004   0.089   0.002   0.002  -0.008   0.000   0.000   0.004   0.004  -0.011   0.002  -0.019
 -0.003  -0.004   0.002   0.089   0.002   0.000  -0.008   0.000   0.002   0.004   0.022   0.004  -0.000
 -0.003  -0.004   0.002   0.002   0.089   0.000   0.000  -0.008   0.004   0.002  -0.011   0.004   0.019
 -0.004   0.000  -0.008   0.000   0.000   0.001  -0.000  -0.000  -0.000  -0.000   0.001  -0.000   0.002
 -0.004   0.000   0.000  -0.008   0.000  -0.000   0.001  -0.000  -0.000  -0.000  -0.003  -0.000   0.000
 -0.004   0.000   0.000   0.000  -0.008  -0.000  -0.000   0.001  -0.000  -0.000   0.001  -0.000  -0.002
 -0.013   0.000   0.004   0.002   0.004  -0.000  -0.000  -0.000   0.007  -0.000   0.000  -0.000   0.000
 -0.013   0.000   0.004   0.004   0.002  -0.000  -0.000  -0.000  -0.000   0.007  -0.000  -0.000   0.000
  0.000  -0.000  -0.011   0.022  -0.011   0.001  -0.003   0.001   0.000  -0.000   0.025  -0.000  -0.000
 -0.013   0.000   0.002   0.004   0.004  -0.000  -0.000  -0.000  -0.000  -0.000  -0.000   0.007  -0.000
  0.000  -0.000  -0.019  -0.000   0.019   0.002   0.000  -0.002   0.000   0.000  -0.000  -0.000   0.025


------------------------ aborting loop because EDIFF is reached ----------------------------------------


    CHARGE:  cpu time    0.0222: real time    0.0223
    FORLOC:  cpu time    0.0008: real time    0.0008
    FORNL :  cpu time    0.0889: real time    0.0893
    STRESS:  cpu time    0.2949: real time    0.2975
    FORCOR:  cpu time    0.0068: real time    0.0068
    FORHAR:  cpu time    0.0021: real time    0.0021
    MIXING:  cpu time    0.0006: real time    0.0006
    OFIELD:  cpu time    0.0000: real time    0.0000

  FORCE on cell =-STRESS in cart. coord.  units (eV):
  Direction    XX          YY          ZZ          XY          YZ          ZX
  --------------------------------------------------------------------------------------
  Alpha Z    23.72454    23.72454    23.72454
  Ewald    1687.66428  1687.66051  1687.66040 -4101.42681 -4101.42875 -4101.42676
  Hartree  2128.79082  2128.78704  2128.78707 -3968.58636 -3968.58824 -3968.58636
  E(xc)    -113.38949  -113.38950  -113.38949     0.00728     0.00727     0.00728
  Local   -4128.02359 -4128.01578 -4128.01598  8069.00849  8069.01240  8069.00866
  n-local   -47.24710   -48.96960   -50.81400    -1.03519     0.42229    -0.31158
  augment    20.33837    20.33836    20.33837     0.02209     0.02208     0.02209
  Kinetic   427.29356   430.48230   434.34637     5.49801    -2.50693     1.24311
[...]
     15       2.9252      0.00000
     16       3.6008      0.00000
     17       4.4050      0.00000
     18       5.2334      0.00000
     19       5.3131      0.00000
     20       6.1296      0.00000

 k-point     8 :      -0.0625    0.0625    0.0000
  band No.  band energies     occupation 
      1     -20.3793      2.00000
      2     -19.9777      2.00000
      3     -19.4571      2.00000
      4      -7.5625      2.00000
      5      -6.6249      2.00000
      6      -5.0233      2.00000
      7      -4.1601      2.00000
      8      -4.0513      2.00000
      9      -3.8459      2.00000
     10      -3.7545      2.00000
     11      -3.6641      2.00000
     12      -3.4617      2.00000
     13      -2.1217      2.00000
     14      -1.7783      2.00000
     15       2.0357      0.00000
     16       2.9116      0.00000
     17       3.8419      0.00000
     18       4.5466      0.00000
     19       4.6980      0.00000
     20       5.5929      0.00000

 k-point     9 :       0.1875    0.1875    0.0000
  band No.  band energies     occupation 
      1     -19.7246      2.00000
      2     -19.4306      2.00000
      3     -19.1143      2.00000
      4      -6.8151      2.00000
      5      -6.6218      2.00000
      6      -6.3464      2.00000
      7      -6.1413      2.00000
      8      -5.1294      2.00000
      9      -4.8421      2.00000
     10      -4.5083      2.00000
     11      -4.3735      2.00000
     12      -4.1464      2.00000
     13      -0.2787      2.00000
     14      -0.2561      2.00000
     15       4.8515      0.00000
     16       5.0996      0.00000
     17       5.2737      0.00000
     18       6.4302      0.00000
     19       6.7510      0.00000
     20       7.0183      0.00000

 k-point    10 :       0.3125    0.1875    0.0000
  band No.  band energies     occupation 
      1     -19.4412      2.00000
      2     -19.1754      2.00000
      3     -19.0046      2.00000
      4      -7.2283      2.00000
      5      -6.9279      2.00000
      6      -6.7177      2.00000
      7      -5.8473      2.00000
      8      -5.3443      2.00000
      9      -5.1280      2.00000
     10      -4.9408      2.00000
     11      -4.6856      2.00000
     12      -4.3053      2.00000
     13       1.1087      0.00000
     14       1.1238      0.00000
     15       4.3305      0.00000
     16       4.3857      0.00000
     17       6.0529      0.00000
     18       6.4594      0.00000
     19       6.6140      0.00000
     20       7.1349      0.00000

 k-point    11 :       0.4375    0.1875   -0.0000
  band No.  band energies     occupation 
      1     -19.3714      2.00000
      2     -19.0985      2.00000
      3     -18.9928      2.00000
      4      -7.3581      2.00000
      5      -6.9863      2.00000
      6      -6.8142      2.00000
      7      -5.7358      2.00000
      8      -5.4841      2.00000
      9      -5.2147      2.00000
     10      -4.9559      2.00000
     11      -4.6907      2.00000
     12      -4.3818      2.00000
     13       1.8504      0.00000
     14       1.8704      0.00000
     15       3.4907      0.00000
     16       3.5396      0.00000
     17       6.2328      0.00000
     18       6.3808      0.00000
     19       6.5256      0.00000
     20       7.3285      0.00000

 k-point    12 :      -0.4375    0.1875    0.0000
  band No.  band energies     occupation 
      1     -19.5667      2.00000
      2     -19.2934      2.00000
      3     -19.0468      2.00000
      4      -7.0117      2.00000
      5      -6.7955      2.00000
      6      -6.5476      2.00000
      7      -6.0303      2.00000
      8      -5.1726      2.00000
      9      -5.0464      2.00000
     10      -4.7648      2.00000
     11      -4.6005      2.00000
     12      -4.2179      2.00000
     13       0.3563      1.26375
     14       0.3808      0.72230
     15       4.9937      0.00000
     16       5.1651      0.00000
     17       5.5861      0.00000
     18       6.2066      0.00000
     19       7.0246      0.00000
     20       7.3806      0.00000

 k-point    13 :      -0.3125    0.1875    0.0000
  band No.  band energies     occupation 
      1     -19.8880      2.00000
      2     -19.5681      2.00000
      3     -19.1924      2.00000
      4      -6.8442      2.00000
      5      -6.5017      2.00000
      6      -6.1773      2.00000
      7      -5.8701      2.00000
      8      -5.0853      2.00000
      9      -4.5779      2.00000
     10      -4.2809      2.00000
     11      -4.1664      2.00000
     12      -4.0030      2.00000
     13      -0.7865      2.00000
     14      -0.7616      2.00000
     15       4.1773      0.00000
     16       4.6048      0.00000
     17       5.1126      0.00000
     18       6.2397      0.00000
     19       6.3386      0.00000
     20       6.9188      0.00000

 k-point    14 :      -0.1875    0.1875    0.0000
  band No.  band energies     occupation 
      1     -20.1397      2.00000
      2     -19.7777      2.00000
      3     -19.3233      2.00000
      4      -7.1878      2.00000
      5      -6.4646      2.00000
      6      -5.6361      2.00000
      7      -5.1114      2.00000
      8      -4.7244      2.00000
      9      -4.2464      2.00000
     10      -4.1302      2.00000
     11      -3.9465      2.00000
     12      -3.6432      2.00000
     13      -1.4504      2.00000
     14      -1.3514      2.00000
     15       3.1528      0.00000
     16       3.7844      0.00000
     17       4.5501      0.00000
     18       5.4188      0.00000
     19       5.4944      0.00000
     20       6.2900      0.00000

 k-point    15 :       0.3125    0.3125    0.0000
  band No.  band energies     occupation 
      1     -19.3177      2.00000
      2     -19.0285      2.00000
      3     -18.9786      2.00000
      4      -6.8951      2.00000
      5      -6.7500      2.00000
      6      -6.4859      2.00000
      7      -6.3114      2.00000
      8      -6.0075      2.00000
      9      -5.8399      2.00000
     10      -4.9245      2.00000
     11      -4.7319      2.00000
     12      -4.4663      2.00000
     13       2.4672      0.00000
     14       2.4933      0.00000
     15       4.0846      0.00000
     16       4.1599      0.00000
     17       4.9213      0.00000
     18       4.9577      0.00000
     19       6.8565      0.00000
     20       7.6433      0.00000

 k-point    16 :       0.4375    0.3125   -0.0000
  band No.  band energies     occupation 
      1     -19.3608      2.00000
      2     -19.0880      2.00000
      3     -18.9805      2.00000
      4      -7.1099      2.00000
      5      -6.8701      2.00000
      6      -6.5772      2.00000
      7      -6.0911      2.00000
      8      -5.7026      2.00000
      9      -5.4800      2.00000
     10      -4.9646      2.00000
     11      -4.7743      2.00000
     12      -4.3860      2.00000
     13       1.8300      0.00000
     14       1.8530      0.00000
     15       4.1826      0.00000
     16       4.2296      0.00000
     17       5.6972      0.00000
     18       5.7649      0.00000
     19       6.6374      0.00000
     20       7.3695      0.00000

 k-point    17 :      -0.4375    0.3125   -0.0000
  band No.  band energies     occupation 
      1     -19.5468      2.00000
      2     -19.2764      2.00000
      3     -19.0449      2.00000
      4      -7.2222      2.00000
      5      -6.9132      2.00000
      6      -6.7228      2.00000
      7      -5.9022      2.00000
      8      -5.0472      2.00000
      9      -4.9523      2.00000
     10      -4.7111      2.00000
     11      -4.3825      2.00000
     12      -4.2281      2.00000
     13       0.4554      0.01363
     14       0.4956      0.00031
     15       4.4095      0.00000
     16       4.6344      0.00000
     17       5.6907      0.00000
     18       6.2434      0.00000
     19       6.6613      0.00000
     20       6.9923      0.00000

 k-point    18 :      -0.3125    0.3125    0.0000
  band No.  band energies     occupation 
      1     -19.7659      2.00000
      2     -19.4669      2.00000
      3     -19.1377      2.00000
      4      -6.9269      2.00000
      5      -6.7677      2.00000
      6      -6.3850      2.00000
      7      -6.1577      2.00000
      8      -5.1162      2.00000
      9      -4.5035      2.00000
     10      -4.2804      2.00000
     11      -4.2007      2.00000
     12      -3.8879      2.00000
     13      -0.4526      2.00000
     14      -0.3816      2.00000
     15       4.2572      0.00000
     16       4.7814      0.00000
     17       5.2959      0.00000
     18       6.0520      0.00000
     19       6.4535      0.00000
     20       6.6635      0.00000

 k-point    19 :       0.4375    0.4375    0.0000
  band No.  band energies     occupation 
      1     -19.3935      2.00000
      2     -19.1222      2.00000
      3     -19.0101      2.00000
      4      -7.5623      2.00000
      5      -7.1571      2.00000
      6      -6.9890      2.00000
      7      -5.4780      2.00000
      8      -5.1789      2.00000
      9      -4.9758      2.00000
     10      -4.9057      2.00000
     11      -4.4585      2.00000
     12      -4.3605      2.00000
     13       1.7328      0.00000
     14       1.8070      0.00000
     15       3.0010      0.00000
     16       3.0852      0.00000
     17       5.8208      0.00000
     18       6.4086      0.00000
     19       6.6221      0.00000
     20       7.3002      0.00000

 k-point    20 :      -0.4375    0.4375    0.0000
  band No.  band energies     occupation 
      1     -19.4686      2.00000
      2     -19.2032      2.00000
      3     -19.0344      2.00000
      4      -7.6134      2.00000
      5      -7.2096      2.00000
      6      -7.0451      2.00000
      7      -5.5921      2.00000
      8      -5.0308      2.00000
      9      -4.6742      2.00000
     10      -4.5115      2.00000
     11      -4.3702      2.00000
     12      -4.0529      2.00000
     13       0.9909      0.00000
     14       1.0490      0.00000
     15       3.3582      0.00000
     16       3.4180      0.00000
     17       5.4153      0.00000
     18       6.0267      0.00000
     19       6.3179      0.00000
     20       6.8575      0.00000


--------------------------------------------------------------------------------------------------------


 soft charge-density along one line, spin component           1
         0         1         2         3         4         5         6         7         8         9
 total charge-density along one line
 
 pseudopotential strength for first ion, spin component:           1
  3.014   9.710  -0.002  -0.002  -0.002  -0.004  -0.004  -0.004
  9.710  31.067  -0.008  -0.008  -0.008  -0.012  -0.012  -0.012
 -0.002  -0.008   6.905  -0.001  -0.001  10.354  -0.001  -0.001
 -0.002  -0.008  -0.001   6.905  -0.001  -0.001  10.354  -0.001
 -0.002  -0.008  -0.001  -0.001   6.905  -0.001  -0.001  10.354
 -0.004  -0.012  10.354  -0.001  -0.001  14.596  -0.001  -0.001
 -0.004  -0.012  -0.001  10.354  -0.001  -0.001  14.596  -0.001
 -0.004  -0.012  -0.001  -0.001  10.354  -0.001  -0.001  14.596
 -0.000  -0.001  -0.001  -0.000  -0.001  -0.002  -0.000  -0.002
 -0.000  -0.001  -0.001  -0.001  -0.000  -0.002  -0.002  -0.000
 -0.000  -0.000   0.002  -0.004   0.002   0.002  -0.005   0.002
 -0.000  -0.001  -0.000  -0.001  -0.001  -0.000  -0.002  -0.002
 -0.000  -0.000   0.003  -0.000  -0.003   0.004  -0.000  -0.004
 total augmentation occupancy for first ion, spin component:           1
  1.168  -0.027  -0.008  -0.008  -0.008  -0.004  -0.004  -0.004  -0.014  -0.014   0.000  -0.014   0.000
 -0.027   0.001  -0.003  -0.003  -0.003   0.000   0.000   0.000   0.000   0.000  -0.000   0.000  -0.000
 -0.008  -0.003   0.085   0.003   0.003  -0.007   0.000   0.000   0.004   0.004  -0.010   0.002  -0.017
 -0.008  -0.003   0.003   0.085   0.003   0.000  -0.007   0.000   0.002   0.004   0.019   0.004  -0.000
 -0.008  -0.003   0.003   0.003   0.085   0.000   0.000  -0.007   0.004   0.002  -0.010   0.004   0.017
 -0.004   0.000  -0.007   0.000   0.000   0.001  -0.000  -0.000  -0.000  -0.000   0.001  -0.000   0.002
 -0.004   0.000   0.000  -0.007   0.000  -0.000   0.001  -0.000  -0.000  -0.000  -0.002  -0.000   0.000
 -0.004   0.000   0.000   0.000  -0.007  -0.000  -0.000   0.001  -0.000  -0.000   0.001  -0.000  -0.002
 -0.014   0.000   0.004   0.002   0.004  -0.000  -0.000  -0.000   0.007  -0.000   0.000  -0.000   0.000
 -0.014   0.000   0.004   0.004   0.002  -0.000  -0.000  -0.000  -0.000   0.007  -0.000  -0.000   0.000
  0.000  -0.000  -0.010   0.019  -0.010   0.001  -0.002   0.001   0.000  -0.000   0.023  -0.000  -0.000
 -0.014   0.000   0.002   0.004   0.004  -0.000  -0.000  -0.000  -0.000  -0.000  -0.000   0.007  -0.000
  0.000  -0.000  -0.017  -0.000   0.017   0.002   0.000  -0.002   0.000   0.000  -0.000  -0.000   0.023


------------------------ aborting loop because EDIFF is reached ----------------------------------------


    CHARGE:  cpu time    0.0225: real time    0.0225
    FORLOC:  cpu time    0.0008: real time    0.0008
    FORNL :  cpu time    0.0860: real time    0.0861
    STRESS:  cpu time    0.2392: real time    0.2395
    FORCOR:  cpu time    0.0064: real time    0.0064
    FORHAR:  cpu time    0.0020: real time    0.0020
    MIXING:  cpu time    0.0000: real time    0.0004
    OFIELD:  cpu time    0.0000: real time    0.0000

  FORCE on cell =-STRESS in cart. coord.  units (eV):
  Direction    XX          YY          ZZ          XY          YZ          ZX
  --------------------------------------------------------------------------------------
  Alpha Z    23.72454    23.72454    23.72454
  Ewald    1682.21235  1682.20859  1682.20849 -4089.28101 -4089.28294 -4089.28096
  Hartree  2124.77622  2124.77245  2124.77248 -3960.86962 -3960.87150 -3960.86962
  E(xc)    -113.28023  -113.28024  -113.28023     0.01021     0.01021     0.01022
  Local   -4118.56827 -4118.56048 -4118.56068  8049.20173  8049.20563  8049.20190
  n-local   -47.35914   -49.08636   -50.93367    -1.02642     0.46748    -0.28372
  augment    20.32616    20.32617    20.32616     0.00720     0.00719     0.00720
  Kinetic   426.85371   430.05417   433.93550     5.18552    -2.77937     0.95163
  Fock        0.00000     0.00000     0.00000     0.00000     0.00000     0.00000
  -------------------------------------------------------------------------------------
  Total       0.34560     0.34560     0.34560    -0.09301    -0.09301    -0.09301
  in kB       3.16793     3.16793     3.16793    -0.85261    -0.85261    -0.85261
  external pressure =        3.17 kB  Pullay stress =        0.00 kB


 VOLUME and BASIS-vectors are now :
 -----------------------------------------------------------------------------
  energy-cutoff  :      450.00
  volume of cell :      174.79
      direct lattice vectors                 reciprocal lattice vectors
     2.124436000 -2.124435000  0.000000000     0.313808828 -0.156904414 -0.156904414
     0.000000000  2.124436000 -2.124436000     0.156904340  0.156904414 -0.313808754
    12.909125000 12.909125000 12.909125000     0.025821520  0.025821532  0.025821532

  length of vectors
     3.004405496  3.004406204 22.359260381     0.384335753  0.384335662  0.044724199


 FORCES acting on ions
    electron-ion (+dipol)            ewald-force                    non-local-force                 convergence-correction
 -----------------------------------------------------------------------------------------------
   0.196E+03 0.196E+03 0.196E+03   -.196E+03 -.196E+03 -.196E+03   -.350E+00 -.350E+00 -.350E+00   -.352E-03 -.352E-03 -.352E-03
   0.691E+02 0.691E+02 0.691E+02   -.692E+02 -.692E+02 -.692E+02   0.525E-01 0.525E-01 0.525E-01   -.290E-03 -.290E-03 -.290E-03
   -.196E+03 -.196E+03 -.196E+03   0.196E+03 0.196E+03 0.196E+03   0.563E+00 0.563E+00 0.563E+00   -.862E-03 -.862E-03 -.862E-03
   -.690E+02 -.690E+02 -.690E+02   0.687E+02 0.687E+02 0.687E+02   0.465E-01 0.465E-01 0.465E-01   -.119E-02 -.119E-02 -.119E-02
   -.149E-01 -.149E-01 -.149E-01   -.201E+00 -.201E+00 -.201E+00   0.281E+00 0.281E+00 0.281E+00   -.289E-02 -.289E-02 -.289E-02
   0.409E+03 0.409E+03 0.409E+03   -.410E+03 -.410E+03 -.410E+03   0.111E+01 0.111E+01 0.111E+01   -.834E-03 -.834E-03 -.834E-03
   -.410E+03 -.410E+03 -.410E+03   0.411E+03 0.411E+03 0.411E+03   -.106E+01 -.106E+01 -.106E+01   -.390E-02 -.390E-02 -.390E-02
 -----------------------------------------------------------------------------------------------
   -.634E+00 -.634E+00 -.634E+00   0.000E+00 -.568E-13 0.000E+00   0.648E+00 0.648E+00 0.648E+00   -.103E-01 -.103E-01 -.103E-01
 
 
 POSITION                                       TOTAL-FORCE (eV/Angst)
 -----------------------------------------------------------------------------------
      0.54476      0.54476      0.54476        -0.004031     -0.004031     -0.004031
      2.69696      2.69696      0.57252        -0.003088     -0.003088     -0.003088
      4.82622      4.82622      4.82622         0.237773      0.237773      0.237773
      4.82622      2.70179      2.70179        -0.163185     -0.163185     -0.163185
      2.70179      2.70179      2.70179         0.061826      0.061826      0.061826
      2.70485      0.58041      0.58041         0.004895      0.004895      0.004895
      4.82622      4.82622      2.70178        -0.134190     -0.134190     -0.134190
 -----------------------------------------------------------------------------------
    total drift:                                0.003533      0.003525      0.003530


--------------------------------------------------------------------------------------------------------



  FREE ENERGIE OF THE ION-ELECTRON SYSTEM (eV)
  ---------------------------------------------------
  free  energy   TOTEN  =       -35.49216485 eV

  energy  without entropy=      -35.48875698  energy(sigma->0) =      -35.49046092
 
 d Force = 0.1276417E-05[-0.344E-05, 0.599E-05]  d Energy =-0.5872107E-05 0.715E-05
 d Force =-0.1252160E+01[-0.125E+01,-0.125E+01]  d Ewald  =-0.1252160E+01 0.821E-08


--------------------------------------------------------------------------------------------------------


    POTLOK:  cpu time    0.0076: real time    0.0081


--------------------------------------------------------------------------------------------------------


 stress matrix after NEB project (eV)
      0.34560     -0.09301     -0.09301
     -0.09301      0.34560     -0.09301
     -0.09301     -0.09301      0.34560
  FORCES: max atom, RMS     0.008479    0.004617
  FORCE total and by dimension    0.012216    0.004895
  Stress total and by dimension    0.640485    0.345597


--------------------------------------------------------------------------------------------------------


  
 reached required accuracy - stopping structural energy minimisation
     LOOP+:  cpu time    4.1778: real time    4.1925
    4ORBIT:  cpu time    0.0000: real time    0.0000

 total amount of memory used by VASP MPI-rank0    35192. kBytes
=======================================================================

   base      :      30000. kBytes
   nonlr-proj:        904. kBytes
   fftplans  :       1229. kBytes
   grid      :       1789. kBytes
   one-center:         16. kBytes
   wavefun   :       1254. kBytes
 
  
  
 General timing and accounting informations for this job:
 ========================================================
  
                  Total CPU time used (sec):       96.954
                            User time (sec):       96.497
                          System time (sec):        0.457
                         Elapsed time (sec):       97.652
  
                   Maximum memory used (kb):      125592.
                   Average memory used (kb):           0.
  
                          Minor page faults:        50334
                          Major page faults:            0
                 Voluntary context switches:          373
