  28  28   0   0
  0.1989189E+02  0.2928747E-09  0.2928746E-09  0.7497905E-08  0.5000000E-15
  1.000000000000000E-004
  CAR 
 unknown system                          
      9.51113123    -21.87411524  301      0.55552623      1.00000000
    -21.874  0.0000E+00  0.0000E+00
    -21.769  0.0000E+00  0.0000E+00
    -21.665  0.0000E+00  0.0000E+00
    -21.560  0.0000E+00  0.0000E+00
    -21.456  0.0000E+00  0.0000E+00
    -21.351  0.0000E+00  0.0000E+00
    -21.246  0.0000E+00  0.0000E+00
    -21.142  0.0000E+00  0.0000E+00
    -21.037  0.0000E+00  0.0000E+00
    -20.933  0.0000E+00  0.0000E+00
    -20.828  0.0000E+00  0.0000E+00
    -20.723  0.6907E-18  0.7226E-19
    -20.619  0.1456E-09  0.1524E-10
    -20.514  0.7407E-05  0.7749E-06
    -20.409  0.6855E-03  0.7249E-04
    -20.305  0.1610E-02  0.2409E-03
    -20.200  0.1948E-02  0.4447E-03
    -20.096  0.2256E-02  0.6807E-03
    -19.991  0.1878E-02  0.8772E-03
    -19.886  0.4144E-02  0.1311E-02
    -19.782  0.4561E-02  0.1788E-02
    -19.677  0.5644E-02  0.2378E-02
    -19.573  0.5844E-02  0.2990E-02
    -19.468  0.1024E-01  0.4061E-02
    -19.363  0.1314E-01  0.5436E-02
    -19.259  0.1148E-01  0.6637E-02
    -19.154  0.1297E-01  0.7995E-02
    -19.049  0.1037E-01  0.9080E-02
    -18.945  0.4964E-02  0.9599E-02
    -18.840  0.7549E-02  0.1039E-01
    -18.736  0.9800E-02  0.1141E-01
    -18.631  0.1213E-01  0.1268E-01
    -18.526  0.6403E-02  0.1335E-01
    -18.422  0.5705E-02  0.1395E-01
    -18.317  0.7488E-02  0.1473E-01
    -18.213  0.1280E-01  0.1607E-01
    -18.108  0.9581E-02  0.1707E-01
    -18.003  0.5056E-02  0.1760E-01
    -17.899  0.7468E-02  0.1838E-01
    -17.794  0.9470E-02  0.1938E-01
    -17.689  0.1225E-01  0.2066E-01
    -17.585  0.7253E-02  0.2142E-01
    -17.480  0.6277E-02  0.2207E-01
    -17.376  0.7599E-02  0.2287E-01
    -17.271  0.1294E-01  0.2422E-01
    -17.166  0.9487E-02  0.2521E-01
    -17.062  0.5172E-02  0.2575E-01
    -16.957  0.7541E-02  0.2654E-01
    -16.852  0.1135E-01  0.2773E-01
    -16.748  0.1131E-01  0.2891E-01
    -16.643  0.5876E-02  0.2953E-01
    -16.539  0.7228E-02  0.3029E-01
    -16.434  0.8684E-02  0.3119E-01
    -16.329  0.1271E-01  0.3252E-01
    -16.225  0.7369E-02  0.3329E-01
    -16.120  0.4659E-02  0.3378E-01
    -16.016  0.7772E-02  0.3459E-01
    -15.911  0.1237E-01  0.3589E-01
    -15.806  0.1004E-01  0.3694E-01
    -15.702  0.4444E-02  0.3740E-01
    -15.597  0.5092E-02  0.3794E-01
    -15.492  0.7233E-02  0.3869E-01
    -15.388  0.1006E-01  0.3974E-01
    -15.283  0.2426E-02  0.4000E-01
    -15.179  0.2428E-03  0.4002E-01
    -15.074  0.2761E-02  0.4031E-01
    -14.969  0.4184E-02  0.4075E-01
    -14.865  0.5305E-02  0.4131E-01
    -14.760  0.8092E-02  0.4215E-01
    -14.656  0.1408E-01  0.4363E-01
    -14.551  0.3565E-02  0.4400E-01
    -14.446  0.1221E-04  0.4400E-01
    -14.342  0.3395E-10  0.4400E-01
    -14.237  0.0000E+00  0.4400E-01
    -14.132  0.0000E+00  0.4400E-01
    -14.028  0.0000E+00  0.4400E-01
    -13.923  0.0000E+00  0.4400E-01
    -13.819  0.0000E+00  0.4400E-01
    -13.714  0.0000E+00  0.4400E-01
    -13.609  0.0000E+00  0.4400E-01
    -13.505  0.0000E+00  0.4400E-01
    -13.400  0.0000E+00  0.4400E-01
    -13.295  0.0000E+00  0.4400E-01
    -13.191  0.0000E+00  0.4400E-01
    -13.086  0.0000E+00  0.4400E-01
    -12.982  0.0000E+00  0.4400E-01
    -12.877  0.0000E+00  0.4400E-01
    -12.772  0.0000E+00  0.4400E-01
    -12.668  0.0000E+00  0.4400E-01
    -12.563  0.0000E+00  0.4400E-01
    -12.459  0.0000E+00  0.4400E-01
    -12.354  0.0000E+00  0.4400E-01
    -12.249  0.0000E+00  0.4400E-01
    -12.145  0.0000E+00  0.4400E-01
    -12.040  0.0000E+00  0.4400E-01
    -11.935  0.0000E+00  0.4400E-01
    -11.831  0.0000E+00  0.4400E-01
    -11.726  0.0000E+00  0.4400E-01
    -11.622  0.0000E+00  0.4400E-01
    -11.517  0.0000E+00  0.4400E-01
    -11.412  0.0000E+00  0.4400E-01
    -11.308  0.0000E+00  0.4400E-01
    -11.203  0.0000E+00  0.4400E-01
    -11.099  0.0000E+00  0.4400E-01
    -10.994  0.0000E+00  0.4400E-01
    -10.889  0.0000E+00  0.4400E-01
    -10.785  0.0000E+00  0.4400E-01
    -10.680  0.0000E+00  0.4400E-01
    -10.575  0.0000E+00  0.4400E-01
    -10.471  0.0000E+00  0.4400E-01
    -10.366  0.9658E-17  0.4400E-01
    -10.262  0.7589E-09  0.4400E-01
    -10.157  0.1387E-04  0.4400E-01
    -10.052  0.2132E-03  0.4402E-01
     -9.948  0.1050E-02  0.4413E-01
     -9.843  0.3156E-03  0.4417E-01
     -9.738  0.6037E-03  0.4423E-01
     -9.634  0.2120E-02  0.4445E-01
     -9.529  0.1515E-02  0.4461E-01
     -9.425  0.4660E-03  0.4466E-01
     -9.320  0.1135E-02  0.4478E-01
     -9.215  0.2466E-02  0.4504E-01
     -9.111  0.1596E-02  0.4520E-01
     -9.006  0.1093E-02  0.4532E-01
     -8.902  0.3370E-02  0.4567E-01
     -8.797  0.1357E-02  0.4581E-01
     -8.692  0.1580E-02  0.4598E-01
     -8.588  0.2997E-02  0.4629E-01
     -8.483  0.1974E-02  0.4650E-01
     -8.378  0.1321E-02  0.4663E-01
     -8.274  0.3293E-02  0.4698E-01
     -8.169  0.4643E-02  0.4747E-01
     -8.065  0.2377E-02  0.4771E-01
     -7.960  0.3393E-02  0.4807E-01
     -7.855  0.6188E-02  0.4872E-01
     -7.751  0.9083E-02  0.4967E-01
     -7.646  0.3626E-02  0.5005E-01
     -7.542  0.5634E-02  0.5064E-01
     -7.437  0.9315E-02  0.5161E-01
     -7.332  0.4440E-02  0.5207E-01
     -7.228  0.8798E-02  0.5299E-01
     -7.123  0.5940E-02  0.5362E-01
     -7.018  0.6823E-02  0.5433E-01
     -6.914  0.1100E-01  0.5548E-01
     -6.809  0.1508E-01  0.5706E-01
     -6.705  0.1299E-01  0.5842E-01
     -6.600  0.9687E-02  0.5943E-01
     -6.495  0.1103E-01  0.6058E-01
     -6.391  0.1216E-01  0.6186E-01
     -6.286  0.1136E-01  0.6304E-01
     -6.181  0.1608E-01  0.6473E-01
     -6.077  0.1108E-01  0.6589E-01
     -5.972  0.2057E-01  0.6804E-01
     -5.868  0.1426E-01  0.6953E-01
     -5.763  0.1594E-01  0.7120E-01
     -5.658  0.1136E-01  0.7239E-01
     -5.554  0.1306E-01  0.7375E-01
     -5.449  0.1637E-01  0.7546E-01
     -5.345  0.1764E-01  0.7731E-01
     -5.240  0.2579E-01  0.8001E-01
     -5.135  0.1536E-01  0.8162E-01
     -5.031  0.1979E-01  0.8369E-01
     -4.926  0.2113E-01  0.8590E-01
     -4.821  0.2493E-01  0.8850E-01
     -4.717  0.2420E-01  0.9104E-01
     -4.612  0.1944E-01  0.9307E-01
     -4.508  0.2692E-01  0.9589E-01
     -4.403  0.3183E-01  0.9922E-01
     -4.298  0.2812E-01  0.1022E+00
     -4.194  0.2815E-01  0.1051E+00
     -4.089  0.2879E-01  0.1081E+00
     -3.985  0.2465E-01  0.1107E+00
     -3.880  0.4151E-01  0.1150E+00
     -3.775  0.3570E-01  0.1188E+00
     -3.671  0.2367E-01  0.1212E+00
     -3.566  0.1829E-01  0.1232E+00
     -3.461  0.3280E-01  0.1266E+00
     -3.357  0.3751E-01  0.1305E+00
     -3.252  0.2947E-01  0.1336E+00
     -3.148  0.2384E-01  0.1361E+00
     -3.043  0.2342E-01  0.1385E+00
     -2.938  0.3082E-01  0.1418E+00
     -2.834  0.3217E-01  0.1451E+00
     -2.729  0.2459E-01  0.1477E+00
     -2.624  0.1679E-01  0.1495E+00
     -2.520  0.2957E-01  0.1526E+00
     -2.415  0.3174E-01  0.1559E+00
     -2.311  0.2179E-01  0.1582E+00
     -2.206  0.2221E-01  0.1605E+00
     -2.101  0.2639E-01  0.1632E+00
     -1.997  0.2726E-01  0.1661E+00
     -1.892  0.2813E-01  0.1690E+00
     -1.788  0.2502E-01  0.1717E+00
     -1.683  0.2328E-01  0.1741E+00
     -1.578  0.2481E-01  0.1767E+00
     -1.474  0.2214E-01  0.1790E+00
     -1.369  0.1867E-01  0.1810E+00
     -1.264  0.2214E-01  0.1833E+00
     -1.160  0.2222E-01  0.1856E+00
     -1.055  0.1619E-01  0.1873E+00
     -0.951  0.1632E-01  0.1890E+00
     -0.846  0.1931E-01  0.1910E+00
     -0.741  0.1093E-01  0.1922E+00
     -0.637  0.2194E-01  0.1945E+00
     -0.532  0.2790E-01  0.1974E+00
     -0.428  0.1655E-01  0.1991E+00
     -0.323  0.1243E-01  0.2004E+00
     -0.218  0.1523E-01  0.2020E+00
     -0.114  0.1211E-01  0.2033E+00
     -0.009  0.1045E-01  0.2044E+00
      0.096  0.9732E-02  0.2054E+00
      0.200  0.1088E-01  0.2065E+00
      0.305  0.1563E-01  0.2082E+00
      0.409  0.1351E-01  0.2096E+00
      0.514  0.2693E-01  0.2124E+00
      0.619  0.2926E-01  0.2154E+00
      0.723  0.8336E-02  0.2163E+00
      0.828  0.4138E-02  0.2167E+00
      0.932  0.6367E-02  0.2174E+00
      1.037  0.4154E-02  0.2178E+00
      1.142  0.6065E-02  0.2185E+00
      1.246  0.1022E-01  0.2196E+00
      1.351  0.1002E-01  0.2206E+00
      1.456  0.8378E-02  0.2215E+00
      1.560  0.4983E-02  0.2220E+00
      1.665  0.4519E-02  0.2225E+00
      1.769  0.1005E-01  0.2235E+00
      1.874  0.9538E-02  0.2245E+00
      1.979  0.3715E-02  0.2249E+00
      2.083  0.5114E-02  0.2254E+00
      2.188  0.1406E-02  0.2256E+00
      2.293  0.6338E-02  0.2263E+00
      2.397  0.9480E-02  0.2272E+00
      2.502  0.7612E-02  0.2280E+00
      2.606  0.8915E-02  0.2290E+00
      2.711  0.1036E-01  0.2301E+00
      2.816  0.3098E-02  0.2304E+00
      2.920  0.6553E-02  0.2311E+00
      3.025  0.8866E-02  0.2320E+00
      3.129  0.6970E-02  0.2327E+00
      3.234  0.1118E-01  0.2339E+00
      3.339  0.9468E-02  0.2349E+00
      3.443  0.7624E-02  0.2357E+00
      3.548  0.9992E-02  0.2367E+00
      3.653  0.5890E-02  0.2373E+00
      3.757  0.5214E-02  0.2379E+00
      3.862  0.7900E-02  0.2387E+00
      3.966  0.9826E-02  0.2397E+00
      4.071  0.1014E-01  0.2408E+00
      4.176  0.1057E-01  0.2419E+00
      4.280  0.1338E-01  0.2433E+00
      4.385  0.5937E-02  0.2439E+00
      4.489  0.1120E-01  0.2451E+00
      4.594  0.9590E-02  0.2461E+00
      4.699  0.1319E-01  0.2475E+00
      4.803  0.1452E-01  0.2490E+00
      4.908  0.1263E-01  0.2503E+00
      5.013  0.8442E-02  0.2512E+00
      5.117  0.9807E-02  0.2522E+00
      5.222  0.9655E-02  0.2532E+00
      5.326  0.1277E-01  0.2546E+00
      5.431  0.1547E-01  0.2562E+00
      5.536  0.1597E-01  0.2579E+00
      5.640  0.1151E-01  0.2591E+00
      5.745  0.1307E-01  0.2604E+00
      5.850  0.1240E-01  0.2617E+00
      5.954  0.1968E-01  0.2638E+00
      6.059  0.1691E-01  0.2656E+00
      6.163  0.1147E-01  0.2668E+00
      6.268  0.1864E-01  0.2687E+00
      6.373  0.1180E-01  0.2700E+00
      6.477  0.1864E-01  0.2719E+00
      6.582  0.1789E-01  0.2738E+00
      6.686  0.2246E-01  0.2761E+00
      6.791  0.1454E-01  0.2776E+00
      6.896  0.4608E-02  0.2781E+00
      7.000  0.2989E-02  0.2784E+00
      7.105  0.5099E-02  0.2790E+00
      7.210  0.3079E-02  0.2793E+00
      7.314  0.1129E-02  0.2794E+00
      7.419  0.8569E-03  0.2795E+00
      7.523  0.1885E-04  0.2795E+00
      7.628  0.1182E-02  0.2796E+00
      7.733  0.1323E-02  0.2798E+00
      7.837  0.9026E-03  0.2799E+00
      7.942  0.1078E-02  0.2800E+00
      8.046  0.5769E-04  0.2800E+00
      8.151  0.1876E-03  0.2800E+00
      8.256  0.6753E-05  0.2800E+00
      8.360  0.1454E-09  0.2800E+00
      8.465  0.7033E-18  0.2800E+00
      8.570  0.0000E+00  0.2800E+00
      8.674  0.0000E+00  0.2800E+00
      8.779  0.0000E+00  0.2800E+00
      8.883  0.0000E+00  0.2800E+00
      8.988  0.0000E+00  0.2800E+00
      9.093  0.0000E+00  0.2800E+00
      9.197  0.0000E+00  0.2800E+00
      9.302  0.0000E+00  0.2800E+00
      9.407  0.0000E+00  0.2800E+00
      9.511  0.0000E+00  0.2800E+00
