       N       E                     dE             d eps       ncg     rms          rms(c)
DAV:   1     0.768028281011E+03    0.76803E+03   -0.45336E+04  3080   0.126E+03
DAV:   2    -0.474512622109E+02   -0.81548E+03   -0.77839E+03  3850   0.282E+02
DAV:   3    -0.165004259864E+03   -0.11755E+03   -0.11674E+03  3410   0.113E+02
DAV:   4    -0.168320932036E+03   -0.33167E+01   -0.33083E+01  3610   0.217E+01
DAV:   5    -0.168420559209E+03   -0.99627E-01   -0.99589E-01  4100   0.339E+00    0.255E+01
DAV:   6    -0.163401213825E+03    0.50193E+01   -0.11527E+02  3440   0.353E+01    0.321E+01
DAV:   7    -0.155439829399E+03    0.79614E+01   -0.18015E+02  3590   0.154E+01    0.122E+01
DAV:   8    -0.151998549581E+03    0.34413E+01   -0.46384E+00  3480   0.768E+00    0.895E+00
DAV:   9    -0.150567520157E+03    0.14310E+01   -0.68949E+00  3620   0.744E+00    0.759E+00
DAV:  10    -0.147213186313E+03    0.33543E+01   -0.14254E+00  3770   0.649E+00    0.430E+00
DAV:  11    -0.146718361826E+03    0.49482E+00   -0.10396E+00  3450   0.339E+00    0.344E+00
DAV:  12    -0.147121869467E+03   -0.40351E+00   -0.28160E+00  3560   0.352E+00    0.651E+00
DAV:  13    -0.146715517283E+03    0.40635E+00   -0.82278E+00  3480   0.340E+00    0.670E+00
DAV:  14    -0.146808619373E+03   -0.93102E-01   -0.87208E+00  3550   0.213E+00    0.673E+00
DAV:  15    -0.146534915994E+03    0.27370E+00   -0.25986E+00  3500   0.143E+00    0.182E+00
DAV:  16    -0.146757154500E+03   -0.22224E+00   -0.66794E-01  3360   0.948E-01    0.694E+00
DAV:  17    -0.146579506699E+03    0.17765E+00   -0.38381E+00  3690   0.135E+00    0.207E+00
DAV:  18    -0.146521964385E+03    0.57542E-01   -0.14788E-02  3340   0.652E-01    0.757E-01
DAV:  19    -0.146515046687E+03    0.69177E-02   -0.18534E-02  3800   0.470E-01    0.124E+00
DAV:  20    -0.146504421307E+03    0.10625E-01   -0.18423E-02  3790   0.506E-01    0.728E-01
DAV:  21    -0.146516040020E+03   -0.11619E-01   -0.13453E-01  3730   0.515E-01    0.217E+00
DAV:  22    -0.146498858926E+03    0.17181E-01   -0.10965E-01  3380   0.432E-01    0.796E-01
DAV:  23    -0.146492762907E+03    0.60960E-02   -0.44331E-03  3410   0.343E-01    0.447E-01
DAV:  24    -0.146490953700E+03    0.18092E-02   -0.24738E-03  3920   0.437E-01    0.630E-01
DAV:  25    -0.146487101095E+03    0.38526E-02   -0.35345E-03  3850   0.580E-01    0.405E-01
DAV:  26    -0.146486230465E+03    0.87063E-03   -0.31008E-03  3390   0.358E-01    0.398E-01
DAV:  27    -0.146485644341E+03    0.58612E-03   -0.10073E-03  3380   0.204E-01    0.317E-01
DAV:  28    -0.146486307977E+03   -0.66364E-03   -0.21286E-04  3490   0.146E-01    0.600E-01
DAV:  29    -0.146485278857E+03    0.10291E-02   -0.19163E-04  3450   0.131E-01    0.414E-01
DAV:  30    -0.146484152225E+03    0.11266E-02   -0.11249E-03  4130   0.243E-01    0.194E-01
DAV:  31    -0.146483949532E+03    0.20269E-03   -0.29562E-04  3370   0.104E-01    0.104E-01
DAV:  32    -0.146483850981E+03    0.98551E-04   -0.11242E-04  3560   0.805E-02    0.853E-02
DAV:  33    -0.146483753282E+03    0.97699E-04   -0.82748E-05  3170   0.789E-02    0.602E-02
DAV:  34    -0.146483707767E+03    0.45515E-04   -0.81613E-05  3070   0.588E-02    0.752E-02
DAV:  35    -0.146483719713E+03   -0.11946E-04   -0.77403E-05  3240   0.365E-02    0.177E-01
DAV:  36    -0.146483656939E+03    0.62774E-04   -0.25573E-05  2670   0.254E-02    0.208E-01
DAV:  37    -0.146483298021E+03    0.35892E-03   -0.70203E-05  2850   0.745E-02    0.569E-02
DAV:  38    -0.146483231506E+03    0.66515E-04   -0.59237E-05  3180   0.645E-02    0.653E-02
DAV:  39    -0.146483242209E+03   -0.10703E-04   -0.68877E-05  3200   0.802E-02    0.150E-01
DAV:  40    -0.146483185179E+03    0.57030E-04   -0.45197E-05  3250   0.712E-02    0.989E-02
DAV:  41    -0.146483204452E+03   -0.19274E-04   -0.47914E-05  3060   0.422E-02    0.578E-02
DAV:  42    -0.146483224781E+03   -0.20329E-04   -0.23528E-05  2700   0.241E-02    0.207E-02
DAV:  43    -0.146483311424E+03   -0.86642E-04   -0.13535E-05  2390   0.353E-02    0.124E-01
DAV:  44    -0.146483269812E+03    0.41611E-04   -0.13361E-05  2370   0.291E-02    0.362E-02
DAV:  45    -0.146483279178E+03   -0.93654E-05   -0.71686E-06  2180   0.193E-02
   1 F= -.14648328E+03 E0= -.14647526E+03  d E =-.146483E+03
       N       E                     dE             d eps       ncg     rms          rms(c)
DAV:   1    -0.147222276006E+03   -0.73901E+00   -0.24241E+01  3160   0.193E+01    0.469E+00
DAV:   2    -0.160002811873E+03   -0.12781E+02   -0.99875E+01  3950   0.108E+01    0.288E+01
DAV:   3    -0.147330239870E+03    0.12673E+02   -0.41197E+01  3220   0.557E+00    0.790E+00
DAV:   4    -0.147030901517E+03    0.29934E+00   -0.42084E+00  3650   0.255E+00    0.220E+00
DAV:   5    -0.146983535172E+03    0.47366E-01   -0.14558E-01  3410   0.133E+00    0.167E+00
DAV:   6    -0.146967999061E+03    0.15536E-01   -0.68937E-02  3690   0.104E+00    0.680E-01
DAV:   7    -0.146964742284E+03    0.32568E-02   -0.10911E-02  3400   0.456E-01    0.553E-01
DAV:   8    -0.146963332714E+03    0.14096E-02   -0.37995E-03  3350   0.249E-01    0.199E-01
DAV:   9    -0.146963342752E+03   -0.10038E-04   -0.53011E-04  3290   0.118E-01    0.841E-02
DAV:  10    -0.146963262602E+03    0.80150E-04   -0.19982E-04  3890   0.108E-01    0.550E-02
DAV:  11    -0.146963236137E+03    0.26465E-04   -0.92566E-05  3490   0.105E-01    0.392E-02
DAV:  12    -0.146963215044E+03    0.21093E-04   -0.80565E-05  3180   0.913E-02    0.479E-02
DAV:  13    -0.146963204845E+03    0.10198E-04   -0.58418E-05  2930   0.980E-02    0.282E-02
DAV:  14    -0.146963194695E+03    0.10150E-04   -0.76378E-05  3250   0.896E-02    0.128E-02
DAV:  15    -0.146963207591E+03   -0.12896E-04   -0.48883E-05  2990   0.109E-01    0.238E-02
DAV:  16    -0.146963218329E+03   -0.10738E-04   -0.87652E-05  3330   0.901E-02    0.246E-02
DAV:  17    -0.146963227033E+03   -0.87030E-05   -0.85366E-05  3170   0.432E-02
   2 F= -.14696323E+03 E0= -.14695361E+03  d E =-.479948E+00
       N       E                     dE             d eps       ncg     rms          rms(c)
DAV:   1    -0.148465724240E+03   -0.15025E+01   -0.12319E+02  3160   0.444E+01    0.767E+00
DAV:   2    -0.165252819210E+03   -0.16787E+02   -0.73488E+01  3970   0.194E+01    0.299E+01
DAV:   3    -0.147793067985E+03    0.17460E+02   -0.41943E+01  3220   0.822E+00    0.430E+00
DAV:   4    -0.147706820323E+03    0.86248E-01   -0.40908E+00  3450   0.422E+00    0.352E+00
DAV:   5    -0.147586402952E+03    0.12042E+00   -0.23048E-01  3700   0.216E+00    0.244E+00
DAV:   6    -0.147541244908E+03    0.45158E-01   -0.25100E-01  3650   0.141E+00    0.923E-01
DAV:   7    -0.147536801027E+03    0.44439E-02   -0.54173E-02  3680   0.861E-01    0.604E-01
DAV:   8    -0.147533464491E+03    0.33365E-02   -0.99041E-03  3760   0.503E-01    0.539E-01
DAV:   9    -0.147533149096E+03    0.31539E-03   -0.94158E-03  3440   0.350E-01    0.544E-01
DAV:  10    -0.147531045625E+03    0.21035E-02   -0.36933E-03  3460   0.245E-01    0.945E-02
DAV:  11    -0.147530787617E+03    0.25801E-03   -0.49093E-04  3720   0.178E-01    0.130E-01
DAV:  12    -0.147530501191E+03    0.28643E-03   -0.35004E-04  3580   0.194E-01    0.128E-01
DAV:  13    -0.147530214092E+03    0.28710E-03   -0.45333E-04  3530   0.164E-01    0.492E-02
DAV:  14    -0.147530149863E+03    0.64229E-04   -0.25288E-04  3520   0.109E-01    0.963E-02
DAV:  15    -0.147529968708E+03    0.18115E-03   -0.92149E-05  3220   0.754E-02    0.360E-02
DAV:  16    -0.147529763464E+03    0.20524E-03   -0.20155E-04  3460   0.141E-01    0.573E-02
DAV:  17    -0.147529686421E+03    0.77043E-04   -0.13857E-04  3390   0.541E-02    0.578E-02
DAV:  18    -0.147529483448E+03    0.20297E-03   -0.11731E-04  3260   0.704E-02    0.278E-02
DAV:  19    -0.147529394252E+03    0.89196E-04   -0.51059E-05  3290   0.372E-02    0.181E-02
DAV:  20    -0.147529288200E+03    0.10605E-03   -0.49545E-05  3130   0.450E-02    0.244E-02
DAV:  21    -0.147529039526E+03    0.24867E-03   -0.53081E-05  2800   0.604E-02    0.204E-02
DAV:  22    -0.147528962101E+03    0.77425E-04   -0.30573E-05  2980   0.228E-02    0.200E-02
DAV:  23    -0.147528916036E+03    0.46065E-04   -0.13083E-05  2080   0.131E-02    0.102E-02
DAV:  24    -0.147528755578E+03    0.16046E-03   -0.79886E-05  3140   0.325E-02    0.203E-02
DAV:  25    -0.147528725868E+03    0.29709E-04   -0.10319E-05  2140   0.191E-02    0.164E-02
DAV:  26    -0.147528698538E+03    0.27330E-04   -0.85532E-05  3100   0.362E-02    0.277E-02
DAV:  27    -0.147528661505E+03    0.37033E-04   -0.21439E-05  2570   0.211E-02    0.872E-03
DAV:  28    -0.147528642160E+03    0.19345E-04   -0.52672E-06  2050   0.130E-02    0.763E-03
DAV:  29    -0.147528621196E+03    0.20963E-04   -0.63314E-06  2100   0.165E-02    0.141E-02
DAV:  30    -0.147528581969E+03    0.39228E-04   -0.10278E-05  2190   0.289E-02    0.812E-03
DAV:  31    -0.147528542224E+03    0.39744E-04   -0.77806E-06  2100   0.138E-02    0.120E-02
DAV:  32    -0.147528529358E+03    0.12867E-04   -0.26923E-05  3140   0.188E-02    0.969E-03
DAV:  33    -0.147528507325E+03    0.22033E-04   -0.16699E-06  1990   0.778E-03    0.129E-02
DAV:  34    -0.147528508370E+03   -0.10451E-05   -0.58075E-06  1980   0.105E-02
   3 F= -.14752851E+03 E0= -.14751975E+03  d E =-.104523E+01
       N       E                     dE             d eps       ncg     rms          rms(c)
DAV:   1    -0.147865912022E+03   -0.33740E+00   -0.35744E+01  2940   0.227E+01    0.322E+00
DAV:   2    -0.155073248812E+03   -0.72073E+01   -0.60905E+01  3710   0.965E+00    0.254E+01
DAV:   3    -0.147868484166E+03    0.72048E+01   -0.39577E+01  3270   0.484E+00    0.161E+00
DAV:   4    -0.147860629117E+03    0.78550E-02   -0.20277E-01  3370   0.159E+00    0.866E-01
DAV:   5    -0.147857841529E+03    0.27876E-02   -0.67946E-02  3400   0.913E-01    0.746E-01
DAV:   6    -0.147853212509E+03    0.46290E-02   -0.14816E-02  3680   0.470E-01    0.215E-01
DAV:   7    -0.147852878258E+03    0.33425E-03   -0.25966E-03  3410   0.248E-01    0.208E-01
DAV:   8    -0.147852529947E+03    0.34831E-03   -0.14463E-03  3470   0.171E-01    0.638E-02
DAV:   9    -0.147852577485E+03   -0.47538E-04   -0.45827E-04  3380   0.881E-02    0.442E-02
DAV:  10    -0.147852558639E+03    0.18846E-04   -0.22170E-04  3670   0.108E-01    0.353E-02
DAV:  11    -0.147852541660E+03    0.16979E-04   -0.81317E-05  3650   0.596E-02    0.198E-02
DAV:  12    -0.147852540336E+03    0.13246E-05   -0.51000E-05  3230   0.359E-02
   4 F= -.14785254E+03 E0= -.14784400E+03  d E =-.324032E+00
       N       E                     dE             d eps       ncg     rms          rms(c)
DAV:   1    -0.148113763035E+03   -0.26122E+00   -0.98733E+01  2960   0.374E+01    0.413E+00
DAV:   2    -0.156578726869E+03   -0.84650E+01   -0.69281E+01  3630   0.128E+01    0.265E+01
DAV:   3    -0.148273868126E+03    0.83049E+01   -0.50274E+01  3300   0.548E+00    0.308E+00
DAV:   4    -0.148180863110E+03    0.93005E-01   -0.35461E-01  3380   0.204E+00    0.157E+00
DAV:   5    -0.148158047508E+03    0.22816E-01   -0.53512E-02  3430   0.102E+00    0.986E-01
DAV:   6    -0.148124172215E+03    0.33875E-01   -0.52848E-02  3540   0.150E+00    0.549E-01
DAV:   7    -0.148112207711E+03    0.11965E-01   -0.31054E-02  3510   0.116E+00    0.442E-01
DAV:   8    -0.148108534948E+03    0.36728E-02   -0.12266E-02  3460   0.644E-01    0.305E-01
DAV:   9    -0.148105343787E+03    0.31912E-02   -0.26789E-03  4040   0.471E-01    0.166E-01
DAV:  10    -0.148101784458E+03    0.35593E-02   -0.22361E-03  3890   0.643E-01    0.170E-01
DAV:  11    -0.148099858904E+03    0.19256E-02   -0.21920E-03  3550   0.445E-01    0.796E-02
DAV:  12    -0.148098361764E+03    0.14971E-02   -0.18763E-03  4320   0.498E-01    0.518E-02
DAV:  13    -0.148097695407E+03    0.66636E-03   -0.16282E-03  3550   0.369E-01    0.475E-02
DAV:  14    -0.148097136613E+03    0.55879E-03   -0.87518E-04  4540   0.407E-01    0.415E-02
DAV:  15    -0.148096986241E+03    0.15037E-03   -0.11995E-03  3420   0.268E-01    0.250E-02
DAV:  16    -0.148097000856E+03   -0.14615E-04   -0.74516E-04  3340   0.125E-01    0.295E-02
DAV:  17    -0.148096963580E+03    0.37276E-04   -0.93414E-05  3340   0.533E-02    0.237E-02
DAV:  18    -0.148096913284E+03    0.50296E-04   -0.16969E-05  2490   0.659E-02    0.151E-02
DAV:  19    -0.148096835922E+03    0.77362E-04   -0.14078E-04  3860   0.150E-01    0.116E-02
DAV:  20    -0.148096839968E+03   -0.40458E-05   -0.10265E-04  3280   0.416E-02    0.155E-02
DAV:  21    -0.148096825822E+03    0.14147E-04   -0.89105E-06  2290   0.460E-02    0.135E-02
DAV:  22    -0.148096813853E+03    0.11968E-04   -0.83286E-05  3690   0.120E-01    0.760E-03
DAV:  23    -0.148096821882E+03   -0.80287E-05   -0.64458E-05  3120   0.271E-02
   5 F= -.14809682E+03 E0= -.14808922E+03  d E =-.568314E+00
       N       E                     dE             d eps       ncg     rms          rms(c)
DAV:   1    -0.148411328880E+03   -0.31452E+00   -0.40528E+01  2960   0.246E+01    0.199E+00
DAV:   2    -0.148503903027E+03   -0.92574E-01   -0.13098E+00  3380   0.353E+00    0.218E+00
DAV:   3    -0.148796604590E+03   -0.29270E+00   -0.43804E+00  3720   0.178E+00    0.843E+00
DAV:   4    -0.148444130019E+03    0.35247E+00   -0.38969E+00  3820   0.119E+00    0.872E-01
DAV:   5    -0.148444657605E+03   -0.52759E-03   -0.27507E-02  3770   0.821E-01    0.616E-01
DAV:   6    -0.148437479491E+03    0.71781E-02   -0.71566E-03  3590   0.615E-01    0.498E-01
DAV:   7    -0.148431380055E+03    0.60994E-02   -0.53103E-03  3740   0.558E-01    0.111E-01
DAV:   8    -0.148429419439E+03    0.19606E-02   -0.32606E-03  3420   0.367E-01    0.133E-01
DAV:   9    -0.148428005286E+03    0.14142E-02   -0.10075E-03  3550   0.234E-01    0.755E-02
DAV:  10    -0.148424781888E+03    0.32234E-02   -0.16359E-03  4450   0.527E-01    0.553E-02
DAV:  11    -0.148423005956E+03    0.17759E-02   -0.19438E-03  3760   0.419E-01    0.589E-02
DAV:  12    -0.148422679627E+03    0.32633E-03   -0.16077E-03  3470   0.195E-01    0.470E-02
DAV:  13    -0.148421789964E+03    0.88966E-03   -0.56251E-04  4850   0.329E-01    0.464E-02
DAV:  14    -0.148421107770E+03    0.68219E-03   -0.87445E-04  3900   0.344E-01    0.335E-02
DAV:  15    -0.148420931044E+03    0.17673E-03   -0.85154E-04  3520   0.207E-01    0.220E-02
DAV:  16    -0.148420885268E+03    0.45776E-04   -0.42607E-04  3600   0.128E-01    0.161E-02
DAV:  17    -0.148420819639E+03    0.65629E-04   -0.86341E-05  3900   0.114E-01    0.106E-02
DAV:  18    -0.148420794232E+03    0.25407E-04   -0.96999E-05  3410   0.842E-02    0.106E-02
DAV:  19    -0.148420786100E+03    0.81323E-05   -0.56199E-05  3570   0.901E-02
   6 F= -.14842079E+03 E0= -.14841221E+03  d E =-.323964E+00
       N       E                     dE             d eps       ncg     rms          rms(c)
DAV:   1    -0.148545072728E+03   -0.12428E+00   -0.62480E+01  3010   0.299E+01    0.265E+00
DAV:   2    -0.149109395007E+03   -0.56432E+00   -0.42460E+00  3430   0.468E+00    0.535E+00
DAV:   3    -0.148822859716E+03    0.28654E+00   -0.55549E+00  3580   0.246E+00    0.522E+00
DAV:   4    -0.148637954362E+03    0.18491E+00   -0.17781E+00  3690   0.147E+00    0.170E+00
DAV:   5    -0.148609485705E+03    0.28469E-01   -0.53076E-02  3820   0.999E-01    0.110E+00
DAV:   6    -0.148597805999E+03    0.11680E-01   -0.22551E-02  3570   0.499E-01    0.552E-01
DAV:   7    -0.148586347802E+03    0.11458E-01   -0.12540E-02  3840   0.860E-01    0.611E-01
DAV:   8    -0.148583090574E+03    0.32572E-02   -0.79689E-03  3410   0.375E-01    0.271E-01
DAV:   9    -0.148580285311E+03    0.28053E-02   -0.23965E-03  4050   0.320E-01    0.996E-02
DAV:  10    -0.148577288909E+03    0.29964E-02   -0.14456E-03  4280   0.377E-01    0.154E-01
DAV:  11    -0.148574152368E+03    0.31365E-02   -0.18006E-03  3820   0.451E-01    0.825E-02
DAV:  12    -0.148571650911E+03    0.25015E-02   -0.23019E-03  3910   0.502E-01    0.479E-02
DAV:  13    -0.148570590939E+03    0.10600E-02   -0.20439E-03  3710   0.375E-01    0.445E-02
DAV:  14    -0.148569839749E+03    0.75119E-03   -0.10374E-03  4010   0.355E-01    0.248E-02
DAV:  15    -0.148569662792E+03    0.17696E-03   -0.12043E-03  3440   0.226E-01    0.261E-02
DAV:  16    -0.148569660492E+03    0.23001E-05   -0.49319E-04  3370   0.880E-02    0.233E-02
DAV:  17    -0.148569639493E+03    0.20999E-04   -0.42737E-05  3150   0.300E-02    0.196E-02
DAV:  18    -0.148569564945E+03    0.74548E-04   -0.66419E-05  3540   0.792E-02    0.153E-02
DAV:  19    -0.148569491492E+03    0.73453E-04   -0.11501E-04  3580   0.119E-01    0.206E-02
DAV:  20    -0.148569484614E+03    0.68779E-05   -0.15976E-04  3410   0.580E-02    0.177E-02
DAV:  21    -0.148569471278E+03    0.13337E-04   -0.23935E-05  2810   0.417E-02    0.123E-02
DAV:  22    -0.148569458331E+03    0.12947E-04   -0.36306E-05  3230   0.600E-02    0.910E-03
DAV:  23    -0.148569455528E+03    0.28029E-05   -0.52525E-05  3270   0.757E-02
   7 F= -.14856946E+03 E0= -.14856128E+03  d E =-.472634E+00
       N       E                     dE             d eps       ncg     rms          rms(c)
DAV:   1    -0.148795088786E+03   -0.22563E+00   -0.23617E+01  3040   0.199E+01    0.313E+00
DAV:   2    -0.151191252908E+03   -0.23962E+01   -0.15858E+01  3700   0.568E+00    0.713E+00
DAV:   3    -0.149224121208E+03    0.19671E+01   -0.76385E-01  3720   0.443E+00    0.543E+00
DAV:   4    -0.148858115230E+03    0.36601E+00   -0.39508E+00  3520   0.223E+00    0.389E+00
DAV:   5    -0.148821354186E+03    0.36761E-01   -0.78556E-02  3530   0.948E-01    0.341E+00
DAV:   6    -0.148774746367E+03    0.46608E-01   -0.61780E-01  3730   0.728E-01    0.161E+00
DAV:   7    -0.148764584348E+03    0.10162E-01   -0.52636E-03  3350   0.271E-01    0.132E+00
DAV:   8    -0.148773195415E+03   -0.86111E-02   -0.28838E-01  3610   0.612E-01    0.192E+00
DAV:   9    -0.148763753001E+03    0.94424E-02   -0.67529E-03  3390   0.373E-01    0.158E+00
DAV:  10    -0.148747534091E+03    0.16219E-01   -0.54639E-03  3420   0.279E-01    0.296E-01
DAV:  11    -0.148748072192E+03   -0.53810E-03   -0.16715E-03  3470   0.204E-01    0.142E-01
DAV:  12    -0.148747747622E+03    0.32457E-03   -0.36933E-04  4050   0.137E-01    0.188E-01
DAV:  13    -0.148746846416E+03    0.90121E-03   -0.36468E-04  4140   0.177E-01    0.615E-02
DAV:  14    -0.148746000925E+03    0.84549E-03   -0.53703E-04  3970   0.259E-01    0.804E-02
DAV:  15    -0.148745829832E+03    0.17109E-03   -0.10753E-03  4030   0.298E-01    0.327E-01
DAV:  16    -0.148745046473E+03    0.78336E-03   -0.13511E-03  3800   0.241E-01    0.992E-02
DAV:  17    -0.148745082329E+03   -0.35856E-04   -0.57000E-04  3420   0.118E-01    0.258E-02
DAV:  18    -0.148745065961E+03    0.16368E-04   -0.82331E-05  3100   0.455E-02    0.223E-02
DAV:  19    -0.148745034193E+03    0.31768E-04   -0.31067E-05  2970   0.602E-02    0.269E-02
DAV:  20    -0.148745039982E+03   -0.57887E-05   -0.39816E-05  2940   0.651E-02
   8 F= -.14874504E+03 E0= -.14873415E+03  d E =-.175584E+00
       N       E                     dE             d eps       ncg     rms          rms(c)
DAV:   1    -0.148810192758E+03   -0.65159E-01   -0.10416E+01  3000   0.132E+01    0.200E+00
DAV:   2    -0.150223875890E+03   -0.14137E+01   -0.77305E+00  3670   0.375E+00    0.630E+00
DAV:   3    -0.148891684953E+03    0.13322E+01   -0.34481E-01  4130   0.321E+00    0.352E+00
DAV:   4    -0.148885753839E+03    0.59311E-02   -0.23643E+00  3520   0.135E+00    0.431E+00
DAV:   5    -0.148868475551E+03    0.17278E-01   -0.25529E-02  3550   0.567E-01    0.401E+00
DAV:   6    -0.148819437885E+03    0.49038E-01   -0.11772E+00  3800   0.753E-01    0.196E+00
DAV:   7    -0.148850420146E+03   -0.30982E-01   -0.10593E-02  3360   0.396E-01    0.260E+00
DAV:   8    -0.148795617804E+03    0.54802E-01   -0.57224E-02  3480   0.330E-01    0.123E+00
DAV:   9    -0.148791861112E+03    0.37567E-02   -0.11366E-03  3550   0.149E-01    0.956E-01
DAV:  10    -0.148789112720E+03    0.27484E-02   -0.24184E-02  4340   0.215E-01    0.559E-01
DAV:  11    -0.148789167432E+03   -0.54712E-04   -0.49862E-04  3300   0.861E-02    0.386E-01
DAV:  12    -0.148788835398E+03    0.33203E-03   -0.22233E-04  3530   0.106E-01    0.424E-01
DAV:  13    -0.148787300873E+03    0.15345E-02   -0.19874E-03  3750   0.171E-01    0.721E-02
DAV:  14    -0.148787051457E+03    0.24942E-03   -0.27266E-04  4050   0.149E-01    0.422E-02
DAV:  15    -0.148786926081E+03    0.12538E-03   -0.28144E-04  3600   0.132E-01    0.175E-01
DAV:  16    -0.148786528495E+03    0.39759E-03   -0.15707E-04  4310   0.151E-01    0.678E-02
DAV:  17    -0.148786388091E+03    0.14040E-03   -0.19389E-04  3820   0.172E-01    0.907E-02
DAV:  18    -0.148786294197E+03    0.93894E-04   -0.26463E-04  3590   0.137E-01    0.287E-02
DAV:  19    -0.148786307131E+03   -0.12934E-04   -0.21833E-04  3370   0.741E-02    0.169E-02
DAV:  20    -0.148786300696E+03    0.64351E-05   -0.32979E-05  3010   0.367E-02
   9 F= -.14878630E+03 E0= -.14877501E+03  d E =-.216845E+00
       N       E                     dE             d eps       ncg     rms          rms(c)
DAV:   1    -0.148788237124E+03   -0.19300E-02   -0.38300E-01  3040   0.253E+00    0.393E-01
DAV:   2    -0.148912572771E+03   -0.12434E+00   -0.34340E-01  3610   0.770E-01    0.366E+00
DAV:   3    -0.148785796825E+03    0.12678E+00   -0.52919E-01  3660   0.628E-01    0.209E-01
DAV:   4    -0.148787532169E+03   -0.17353E-02   -0.32437E-03  3520   0.170E-01    0.123E-01
DAV:   5    -0.148787601093E+03   -0.68923E-04   -0.38267E-04  3580   0.777E-02    0.852E-02
DAV:   6    -0.148787602067E+03   -0.97438E-06   -0.16804E-04  3420   0.668E-02    0.109E-01
DAV:   7    -0.148787538574E+03    0.63493E-04   -0.64839E-05  3440   0.565E-02    0.978E-02
DAV:   8    -0.148787484474E+03    0.54100E-04   -0.40070E-05  3090   0.307E-02    0.192E-02
DAV:   9    -0.148787482484E+03    0.19907E-05   -0.56989E-06  2220   0.220E-02
  10 F= -.14878748E+03 E0= -.14877629E+03  d E =-.218027E+00
       N       E                     dE             d eps       ncg     rms          rms(c)
DAV:   1    -0.148848226503E+03   -0.60742E-01   -0.71878E+00  3030   0.970E+00    0.179E+00
DAV:   2    -0.150054179176E+03   -0.12060E+01   -0.56575E+00  3780   0.312E+00    0.629E+00
DAV:   3    -0.148886483057E+03    0.11677E+01   -0.32807E-01  4160   0.294E+00    0.264E+00
DAV:   4    -0.148841464688E+03    0.45018E-01   -0.17965E-01  3540   0.768E-01    0.567E-01
DAV:   5    -0.148874936404E+03   -0.33472E-01   -0.53151E-02  3380   0.416E-01    0.209E+00
DAV:   6    -0.148861830755E+03    0.13106E-01   -0.12454E-03  3380   0.135E-01    0.179E+00
DAV:   7    -0.148841096898E+03    0.20734E-01   -0.15881E-02  3930   0.234E-01    0.697E-01
DAV:   8    -0.148840835091E+03    0.26181E-03   -0.10411E-02  3720   0.211E-01    0.746E-01
DAV:   9    -0.148840605795E+03    0.22930E-03   -0.38599E-04  3240   0.784E-02    0.742E-01
DAV:  10    -0.148840627465E+03   -0.21670E-04   -0.11747E-05  2470   0.169E-02    0.792E-01
DAV:  11    -0.148840202614E+03    0.42485E-03   -0.43234E-04  3620   0.108E-01    0.751E-01
DAV:  12    -0.148840199600E+03    0.30133E-05   -0.73941E-05  3310   0.370E-02
  11 F= -.14884020E+03 E0= -.14882865E+03  d E =-.527171E-01
       N       E                     dE             d eps       ncg     rms          rms(c)
DAV:   1    -0.148998395468E+03   -0.15819E+00   -0.64214E+01  3030   0.287E+01    0.638E+00
DAV:   2    -0.154798065830E+03   -0.57997E+01   -0.66341E+01  3790   0.100E+01    0.108E+01
DAV:   3    -0.150898497607E+03    0.38996E+01   -0.29828E+00  3570   0.757E+00    0.701E+00
DAV:   4    -0.149058440383E+03    0.18401E+01   -0.96108E-01  3760   0.529E+00    0.398E+00
DAV:   5    -0.149074080825E+03   -0.15640E-01   -0.17781E-01  3370   0.122E+00    0.368E+00
DAV:   6    -0.149043100589E+03    0.30980E-01   -0.40766E-03  3890   0.173E-01    0.324E+00
DAV:   7    -0.148973108005E+03    0.69993E-01   -0.29411E-03  3980   0.270E-01    0.244E+00
DAV:   8    -0.150235110961E+03   -0.12620E+01   -0.10904E+00  3890   0.275E+00    0.510E+00
DAV:   9    -0.150929171310E+03   -0.69406E+00   -0.14510E-01  3440   0.210E+00    0.475E+00
DAV:  10    -0.150769529948E+03    0.15964E+00   -0.13095E-01  3340   0.124E+00    0.442E+00
DAV:  11    -0.150526771099E+03    0.24276E+00   -0.69731E-02  3450   0.943E-01    0.417E+00
DAV:  12    -0.150321577126E+03    0.20519E+00   -0.61733E-02  3340   0.879E-01    0.408E+00
DAV:  13    -0.150089074579E+03    0.23250E+00   -0.19526E-02  3610   0.680E-01    0.404E+00
DAV:  14    -0.149846432575E+03    0.24264E+00   -0.10420E-01  3380   0.109E+00    0.418E+00
DAV:  15    -0.149921956074E+03   -0.75523E-01   -0.18250E-02  3320   0.440E-01    0.411E+00
DAV:  16    -0.149996706283E+03   -0.74750E-01   -0.14036E-02  3360   0.326E-01    0.409E+00
DAV:  17    -0.149812936500E+03    0.18377E+00   -0.80475E-03  3590   0.521E-01    0.412E+00
DAV:  18    -0.150566151569E+03   -0.75322E+00   -0.54168E-01  3450   0.259E+00    0.434E+00
DAV:  19    -0.151274305679E+03   -0.70815E+00   -0.64415E-01  3360   0.273E+00    0.558E+00
DAV:  20    -0.151564668370E+03   -0.29036E+00   -0.16687E-01  3640   0.137E+00    0.640E+00
DAV:  21    -0.151502177560E+03    0.62491E-01   -0.22043E-02  3420   0.473E-01    0.610E+00
DAV:  22    -0.151592553292E+03   -0.90376E-01   -0.17318E-02  3360   0.446E-01    0.641E+00
DAV:  23    -0.151617471570E+03   -0.24918E-01   -0.33371E-03  3720   0.174E-01    0.652E+00
DAV:  24    -0.151637992195E+03   -0.20521E-01   -0.13939E-03  3410   0.159E-01    0.643E+00
DAV:  25    -0.151592040151E+03    0.45952E-01   -0.18869E-03  3400   0.212E-01    0.653E+00
DAV:  26    -0.151695576189E+03   -0.10354E+00   -0.10737E-03  3590   0.320E-01    0.646E+00
DAV:  27    -0.151022296965E+03    0.67328E+00   -0.32249E-02  3950   0.220E+00    0.684E+00
DAV:  28    -0.150725835600E+03    0.29646E+00   -0.11606E-02  3670   0.854E-01    0.690E+00
DAV:  29    -0.150841262665E+03   -0.11543E+00   -0.46983E-03  3450   0.336E-01    0.693E+00
DAV:  30    -0.150676952186E+03    0.16431E+00   -0.87078E-04  4010   0.396E-01    0.688E+00
DAV:  31    -0.150882221278E+03   -0.20527E+00   -0.19578E-03  4640   0.491E-01    0.698E+00
DAV:  32    -0.151712545047E+03   -0.83032E+00   -0.17997E-02  4890   0.203E+00    0.723E+00
DAV:  33    -0.152792108696E+03   -0.10796E+01   -0.19258E-02  4780   0.297E+00    0.713E+00
DAV:  34    -0.153032937291E+03   -0.24083E+00   -0.12878E-02  3520   0.862E-01    0.714E+00
DAV:  35    -0.152972231839E+03    0.60705E-01   -0.47929E-03  3380   0.292E-01    0.709E+00
DAV:  36    -0.152969015217E+03    0.32166E-02   -0.49073E-04  3490   0.743E-02    0.707E+00
DAV:  37    -0.152972440703E+03   -0.34255E-02   -0.39997E-05  3150   0.263E-02    0.706E+00
DAV:  38    -0.152524746613E+03    0.44769E+00   -0.36429E-03  4380   0.142E+00    0.695E+00
DAV:  39    -0.151683580184E+03    0.84117E+00   -0.15551E-02  4490   0.264E+00    0.676E+00
DAV:  40    -0.150889004716E+03    0.79458E+00   -0.16903E-02  4510   0.221E+00    0.673E+00
DAV:  41    -0.149386264681E+03    0.15027E+01   -0.37886E-02  4710   0.392E+00    0.688E+00
DAV:  42    -0.149772793182E+03   -0.38653E+00   -0.12869E+01  3970   0.275E+00    0.992E+00
DAV:  43    -0.149000300160E+03    0.77249E+00   -0.79590E+00  3390   0.190E+00    0.506E+00
DAV:  44    -0.152949981255E+03   -0.39497E+01   -0.12228E+00  4350   0.887E+00    0.526E+00
DAV:  45    -0.150674467535E+03    0.22755E+01   -0.20877E-01  3800   0.921E+00    0.620E+00
DAV:  46    -0.150153971124E+03    0.52050E+00   -0.93068E-02  3500   0.171E+00    0.631E+00
DAV:  47    -0.151996556227E+03   -0.18426E+01   -0.32564E+01  4640   0.702E+00    0.170E+01
DAV:  48    -0.150624599965E+03    0.13720E+01   -0.62112E-01  3400   0.133E+00    0.144E+01
DAV:  49    -0.150449850306E+03    0.17475E+00   -0.14435E-02  3450   0.427E-01    0.140E+01
DAV:  50    -0.149687399840E+03    0.76245E+00   -0.42542E-01  3560   0.660E-01    0.113E+01
DAV:  51    -0.152772103704E+03   -0.30847E+01   -0.75621E+00  4250   0.186E+00    0.183E+01
DAV:  52    -0.157948021220E+03   -0.51759E+01   -0.78467E+00  4310   0.183E+00    0.238E+01
DAV:  53    -0.153085656992E+03    0.48624E+01   -0.69135E+00  3990   0.157E+00    0.190E+01
DAV:  54    -0.148843618402E+03    0.42420E+01   -0.19898E+01  4740   0.303E+00    0.217E+00
DAV:  55    -0.149678456604E+03   -0.83484E+00   -0.57479E+00  3710   0.196E+00    0.112E+01
DAV:  56    -0.151468665329E+03   -0.17902E+01   -0.33848E+00  3770   0.139E+00    0.170E+01
DAV:  57    -0.148904402906E+03    0.25643E+01   -0.11058E+01  3740   0.225E+00    0.536E+00
DAV:  58    -0.149047408465E+03   -0.14301E+00   -0.31386E+00  3680   0.126E+00    0.435E+00
DAV:  59    -0.148914546590E+03    0.13286E+00   -0.24919E-01  3330   0.983E-01    0.267E+00
DAV:  60    -0.149026392013E+03   -0.11185E+00   -0.20400E+00  3700   0.110E+00    0.622E+00
DAV:  61    -0.149345510139E+03   -0.31912E+00   -0.63675E+00  4200   0.207E+00    0.516E+00
DAV:  62    -0.151243618544E+03   -0.18981E+01   -0.30630E+01  4740   0.446E+00    0.170E+01
DAV:  63    -0.149441760196E+03    0.18019E+01   -0.34321E+01  4670   0.370E+00    0.518E+00
DAV:  64    -0.149211651519E+03    0.23011E+00   -0.12509E-02  3510   0.690E-01    0.503E+00
DAV:  65    -0.148951624673E+03    0.26003E+00   -0.39886E+00  4180   0.175E+00    0.538E+00
DAV:  66    -0.149805452055E+03   -0.85383E+00   -0.10715E+01  4410   0.265E+00    0.532E+00
DAV:  67    -0.148894126471E+03    0.91133E+00   -0.66343E-01  4290   0.230E+00    0.139E+00
DAV:  68    -0.150729235021E+03   -0.18351E+01   -0.18327E+00  4500   0.413E+00    0.533E+00
DAV:  69    -0.150094904756E+03    0.63433E+00   -0.98230E-03  3620   0.153E+00    0.533E+00
DAV:  70    -0.150327975719E+03   -0.23307E+00   -0.97114E-03  3420   0.801E-01    0.521E+00
DAV:  71    -0.150861374227E+03   -0.53340E+00   -0.64105E-03  4770   0.148E+00    0.521E+00
DAV:  72    -0.151293638961E+03   -0.43226E+00   -0.67855E-03  3930   0.130E+00    0.514E+00
DAV:  73    -0.151701289815E+03   -0.40765E+00   -0.61939E-03  4050   0.129E+00    0.516E+00
DAV:  74    -0.152558298570E+03   -0.85701E+00   -0.14919E-02  4370   0.261E+00    0.528E+00
DAV:  75    -0.152726709028E+03   -0.16841E+00   -0.21748E-02  3570   0.797E-01    0.538E+00
DAV:  76    -0.152732047974E+03   -0.53389E-02   -0.65528E-03  3440   0.259E-01    0.542E+00
DAV:  77    -0.151810085808E+03    0.92196E+00   -0.11355E-02  4420   0.286E+00    0.524E+00
DAV:  78    -0.151672164261E+03    0.13792E+00   -0.73611E-03  3570   0.526E-01    0.522E+00
DAV:  79    -0.151389396114E+03    0.28277E+00   -0.16987E-03  4420   0.854E-01    0.524E+00
DAV:  80    -0.151262822119E+03    0.12657E+00   -0.19716E-03  3560   0.415E-01    0.524E+00
DAV:  81    -0.150958153923E+03    0.30467E+00   -0.15116E-03  4800   0.883E-01    0.523E+00
DAV:  82    -0.150760020812E+03    0.19813E+00   -0.19061E-03  4000   0.667E-01    0.523E+00
DAV:  83    -0.150538941467E+03    0.22108E+00   -0.15838E-03  4050   0.652E-01    0.523E+00
DAV:  84    -0.150395143117E+03    0.14380E+00   -0.16978E-03  3650   0.427E-01    0.523E+00
DAV:  85    -0.149897228611E+03    0.49791E+00   -0.30628E-03  5130   0.128E+00    0.523E+00
DAV:  86    -0.149727931180E+03    0.16930E+00   -0.31189E-03  3560   0.528E-01    0.524E+00
DAV:  87    -0.149630697068E+03    0.97234E-01   -0.19337E-03  3470   0.286E-01    0.525E+00
DAV:  88    -0.149361123862E+03    0.26957E+00   -0.10897E-03  4850   0.647E-01    0.524E+00
DAV:  89    -0.149338578463E+03    0.22545E-01   -0.99495E-04  3390   0.108E-01    0.524E+00
DAV:  90    -0.149615495442E+03   -0.27692E+00   -0.84623E-04  4480   0.628E-01    0.525E+00
DAV:  91    -0.149308346764E+03    0.30715E+00   -0.83508E-04  4860   0.725E-01    0.525E+00
DAV:  92    -0.149953881806E+03   -0.64554E+00   -0.18228E+01  5050   0.399E+00    0.134E+01
DAV:  93    -0.159049607136E+03   -0.90957E+01   -0.26873E+01  4580   0.423E+00    0.255E+01
DAV:  94    -0.157484290266E+03    0.15653E+01   -0.55409E-01  3400   0.857E-01    0.236E+01
DAV:  95    -0.153994991838E+03    0.34893E+01   -0.40272E+00  3950   0.148E+00    0.205E+01
DAV:  96    -0.149562771123E+03    0.44322E+01   -0.83959E+00  4260   0.257E+00    0.114E+01
DAV:  97    -0.150192646591E+03   -0.62988E+00   -0.41800E-01  3370   0.916E-01    0.149E+01
DAV:  98    -0.148993460367E+03    0.11992E+01   -0.19929E+01  4570   0.264E+00    0.325E+00
DAV:  99    -0.150688645176E+03   -0.16952E+01   -0.22377E+01  4280   0.372E+00    0.159E+01
DAV: 100    -0.151659554605E+03   -0.97091E+00   -0.85668E+01  4930   0.775E+00
  12 F= -.15165955E+03 E0= -.15165662E+03  d E =-.287207E+01
       N       E                     dE             d eps       ncg     rms          rms(c)
DAV:   1    -0.152789584661E+03   -0.21009E+01   -0.42023E+01  3540   0.235E+01    0.529E+00
DAV:   2    -0.152591700503E+03    0.19788E+00   -0.54142E+00  3990   0.150E+01    0.212E+01
DAV:   3    -0.151417805378E+03    0.11739E+01   -0.91026E+01  3330   0.605E+00    0.458E+00
DAV:   4    -0.150532876326E+03    0.88493E+00   -0.24595E-01  3450   0.314E+00    0.443E+00
DAV:   5    -0.149000919078E+03    0.15320E+01   -0.72594E-01  3940   0.469E+00    0.188E+00
DAV:   6    -0.150005548637E+03   -0.10046E+01   -0.16663E+00  3400   0.272E+00    0.454E+00
DAV:   7    -0.148968115161E+03    0.10374E+01   -0.37918E+00  3810   0.422E+00    0.458E+00
DAV:   8    -0.149825475921E+03   -0.85736E+00   -0.98079E+00  3760   0.271E+00    0.534E+00
DAV:   9    -0.149002363592E+03    0.82311E+00   -0.11705E-01  3500   0.248E+00    0.347E+00
DAV:  10    -0.148869501402E+03    0.13286E+00   -0.38020E-01  3510   0.107E+00    0.653E-01
DAV:  11    -0.148939959077E+03   -0.70458E-01   -0.11824E-01  3350   0.660E-01    0.239E+00
DAV:  12    -0.148878324758E+03    0.61634E-01   -0.37951E-02  3460   0.681E-01    0.130E+00
DAV:  13    -0.148915941145E+03   -0.37616E-01   -0.65063E-01  3980   0.629E-01    0.338E+00
DAV:  14    -0.148862742052E+03    0.53199E-01   -0.82000E-02  3400   0.352E-01    0.923E-01
DAV:  15    -0.148864867714E+03   -0.21257E-02   -0.43356E-03  3440   0.221E-01    0.723E-01
DAV:  16    -0.148892417686E+03   -0.27550E-01   -0.36054E-02  3730   0.211E-01    0.258E+00
DAV:  17    -0.148858279083E+03    0.34139E-01   -0.10945E-01  3800   0.300E-01    0.191E-01
DAV:  18    -0.148866533965E+03   -0.82549E-02   -0.30155E-03  3440   0.209E-01    0.845E-01
DAV:  19    -0.148880357185E+03   -0.13823E-01   -0.93993E-03  3620   0.170E-01    0.153E+00
DAV:  20    -0.148880237610E+03    0.11957E-03   -0.31416E-04  3410   0.808E-02    0.155E+00
DAV:  21    -0.148871955464E+03    0.82821E-02   -0.54502E-04  4020   0.155E-01    0.124E+00
DAV:  22    -0.148860660768E+03    0.11295E-01   -0.60629E-03  4080   0.269E-01    0.341E-01
DAV:  23    -0.148862564114E+03   -0.19033E-02   -0.66448E-04  3440   0.125E-01    0.557E-01
DAV:  24    -0.148860880222E+03    0.16839E-02   -0.59007E-04  3560   0.110E-01    0.270E-01
DAV:  25    -0.148860573349E+03    0.30687E-03   -0.10425E-04  3560   0.856E-02    0.456E-02
DAV:  26    -0.148860809785E+03   -0.23644E-03   -0.13630E-04  3270   0.551E-02    0.178E-01
DAV:  27    -0.148860569736E+03    0.24005E-03   -0.68958E-05  3250   0.812E-02    0.493E-02
DAV:  28    -0.148860864041E+03   -0.29430E-03   -0.92544E-05  3470   0.658E-02    0.226E-01
DAV:  29    -0.148860560948E+03    0.30309E-03   -0.66924E-05  3240   0.510E-02    0.826E-02
DAV:  30    -0.148860548949E+03    0.11999E-04   -0.17330E-05  2600   0.398E-02    0.335E-02
DAV:  31    -0.148860569433E+03   -0.20484E-04   -0.16080E-05  2580   0.361E-02    0.595E-02
DAV:  32    -0.148860543855E+03    0.25578E-04   -0.20509E-05  2460   0.437E-02    0.266E-02
DAV:  33    -0.148860547609E+03   -0.37537E-05   -0.20572E-05  2930   0.246E-02
  13 F= -.14886055E+03 E0= -.14885080E+03  d E =-.730651E-01
       N       E                     dE             d eps       ncg     rms          rms(c)
DAV:   1    -0.148874829337E+03   -0.14285E-01   -0.25252E+00  3060   0.571E+00    0.112E+00
DAV:   2    -0.149512415843E+03   -0.63759E+00   -0.23789E+00  3820   0.193E+00    0.597E+00
DAV:   3    -0.148872451331E+03    0.63996E+00   -0.10813E+00  4210   0.182E+00    0.864E-01
DAV:   4    -0.148871448556E+03    0.10028E-02   -0.34279E-02  3500   0.457E-01    0.263E-01
DAV:   5    -0.148872202568E+03   -0.75401E-03   -0.14098E-03  3360   0.142E-01    0.358E-01
DAV:   6    -0.148871220868E+03    0.98170E-03   -0.21009E-04  3420   0.671E-02    0.778E-02
DAV:   7    -0.148871242923E+03   -0.22056E-04   -0.21716E-04  3380   0.841E-02    0.160E-01
DAV:   8    -0.148871002129E+03    0.24079E-03   -0.18818E-04  3560   0.881E-02    0.522E-02
DAV:   9    -0.148871003698E+03   -0.15695E-05   -0.92353E-05  3420   0.539E-02
  14 F= -.14887100E+03 E0= -.14886148E+03  d E =-.835212E-01
       N       E                     dE             d eps       ncg     rms          rms(c)
DAV:   1    -0.148884750080E+03   -0.13748E-01   -0.53573E+00  3070   0.829E+00    0.188E+00
DAV:   2    -0.150228192265E+03   -0.13434E+01   -0.65030E+00  3850   0.318E+00    0.677E+00
DAV:   3    -0.148933224023E+03    0.12950E+01   -0.34222E-01  4430   0.335E+00    0.279E+00
DAV:   4    -0.149037332106E+03   -0.10411E+00   -0.62833E-02  3280   0.714E-01    0.379E+00
DAV:   5    -0.148995607088E+03    0.41725E-01   -0.27622E-03  3510   0.200E-01    0.327E+00
DAV:   6    -0.148982706488E+03    0.12901E-01   -0.23388E+00  3550   0.129E+00    0.535E+00
DAV:   7    -0.148869035465E+03    0.11367E+00   -0.26256E-01  3250   0.464E-01    0.150E+00
DAV:   8    -0.148873296577E+03   -0.42611E-02   -0.17686E-02  3500   0.316E-01    0.439E-01
DAV:   9    -0.148875537420E+03   -0.22408E-02   -0.42640E-03  3310   0.203E-01    0.761E-01
DAV:  10    -0.148875268609E+03    0.26881E-03   -0.64010E-04  3390   0.117E-01    0.993E-01
DAV:  11    -0.148871870701E+03    0.33979E-02   -0.23443E-03  3360   0.151E-01    0.515E-01
DAV:  12    -0.148871883636E+03   -0.12935E-04   -0.14331E-03  3370   0.121E-01    0.193E-01
DAV:  13    -0.148872262770E+03   -0.37913E-03   -0.15433E-04  3620   0.495E-02    0.674E-02
DAV:  14    -0.148872361109E+03   -0.98339E-04   -0.42255E-05  3060   0.293E-02    0.108E-01
DAV:  15    -0.148872414354E+03   -0.53245E-04   -0.19665E-04  3440   0.922E-02    0.159E-01
DAV:  16    -0.148872379177E+03    0.35177E-04   -0.56661E-05  3050   0.311E-02    0.142E-01
DAV:  17    -0.148872371512E+03    0.76651E-05   -0.24764E-05  2750   0.486E-02
  15 F= -.14887237E+03 E0= -.14886357E+03  d E =-.848890E-01
       N       E                     dE             d eps       ncg     rms          rms(c)
DAV:   1    -0.148900458595E+03   -0.28079E-01   -0.36189E+00  3200   0.724E+00    0.845E-01
DAV:   2    -0.149222289864E+03   -0.32183E+00   -0.11824E+00  3540   0.158E+00    0.569E+00
DAV:   3    -0.148901564804E+03    0.32073E+00   -0.18064E+00  3800   0.126E+00    0.386E-01
DAV:   4    -0.148903808589E+03   -0.22438E-02   -0.12347E-02  3430   0.340E-01    0.460E-01
DAV:   5    -0.148902497346E+03    0.13112E-02   -0.10856E-03  3390   0.120E-01    0.215E-01
DAV:   6    -0.148902050030E+03    0.44732E-03   -0.48698E-04  3870   0.109E-01    0.585E-02
DAV:   7    -0.148902054931E+03   -0.49012E-05   -0.31936E-04  3410   0.109E-01    0.142E-01
DAV:   8    -0.148901912252E+03    0.14268E-03   -0.23108E-04  3370   0.732E-02    0.565E-02
DAV:   9    -0.148901882222E+03    0.30029E-04   -0.48523E-05  3090   0.287E-02    0.238E-02
DAV:  10    -0.148901860143E+03    0.22079E-04   -0.89742E-06  2430   0.209E-02    0.102E-02
DAV:  11    -0.148901818862E+03    0.41281E-04   -0.39734E-05  3040   0.563E-02    0.188E-02
DAV:  12    -0.148901806578E+03    0.12284E-04   -0.23923E-05  2720   0.309E-02    0.232E-02
DAV:  13    -0.148901791017E+03    0.15561E-04   -0.23491E-05  2810   0.401E-02    0.915E-03
DAV:  14    -0.148901773475E+03    0.17542E-04   -0.18660E-05  2770   0.511E-02    0.150E-02
DAV:  15    -0.148901755771E+03    0.17704E-04   -0.40830E-05  3050   0.681E-02    0.166E-02
DAV:  16    -0.148901748834E+03    0.69371E-05   -0.47074E-05  3240   0.422E-02
  16 F= -.14890175E+03 E0= -.14889270E+03  d E =-.293773E-01
       N       E                     dE             d eps       ncg     rms          rms(c)
DAV:   1    -0.148930633164E+03   -0.28877E-01   -0.12528E+01  3150   0.135E+01    0.170E+00
DAV:   2    -0.150041574859E+03   -0.11109E+01   -0.51105E+00  3630   0.320E+00    0.680E+00
DAV:   3    -0.148950645392E+03    0.10909E+01   -0.44846E-01  4080   0.279E+00    0.181E+00
DAV:   4    -0.148946458496E+03    0.41869E-02   -0.66677E-02  3480   0.618E-01    0.114E+00
DAV:   5    -0.148940905504E+03    0.55530E-02   -0.51343E-03  3380   0.260E-01    0.887E-01
DAV:   6    -0.148940103831E+03    0.80167E-03   -0.34547E-03  3750   0.239E-01    0.948E-01
DAV:   7    -0.148937600388E+03    0.25034E-02   -0.29164E-03  3360   0.233E-01    0.728E-01
DAV:   8    -0.148936977024E+03    0.62336E-03   -0.31948E-03  3590   0.212E-01    0.569E-01
DAV:   9    -0.148938813234E+03   -0.18362E-02   -0.65161E-04  3350   0.859E-02    0.820E-01
DAV:  10    -0.148936505760E+03    0.23075E-02   -0.72251E-04  3370   0.844E-02    0.673E-01
DAV:  11    -0.148933802916E+03    0.27028E-02   -0.17207E-03  3360   0.154E-01    0.184E-01
DAV:  12    -0.148934123032E+03   -0.32012E-03   -0.60926E-04  3520   0.998E-02    0.877E-02
DAV:  13    -0.148934332651E+03   -0.20962E-03   -0.13739E-04  3450   0.776E-02    0.117E-01
DAV:  14    -0.148934195094E+03    0.13756E-03   -0.10815E-04  3210   0.467E-02    0.102E-01
DAV:  15    -0.148934228033E+03   -0.32939E-04   -0.10226E-04  3000   0.633E-02    0.173E-01
DAV:  16    -0.148934006402E+03    0.22163E-03   -0.15008E-04  3370   0.637E-02    0.127E-01
DAV:  17    -0.148933950076E+03    0.56327E-04   -0.48120E-05  3330   0.478E-02    0.105E-01
DAV:  18    -0.148933834950E+03    0.11513E-03   -0.43138E-05  3120   0.752E-02    0.184E-02
DAV:  19    -0.148933828217E+03    0.67323E-05   -0.63877E-05  3360   0.541E-02
  17 F= -.14893383E+03 E0= -.14892520E+03  d E =-.614567E-01
       N       E                     dE             d eps       ncg     rms          rms(c)
DAV:   1    -0.148885120106E+03    0.48715E-01   -0.49966E+01  3090   0.269E+01    0.355E+00
DAV:   2    -0.151740926924E+03   -0.28558E+01   -0.21442E+01  3590   0.640E+00    0.864E+00
DAV:   3    -0.149304388436E+03    0.24365E+01   -0.11212E+00  3820   0.546E+00    0.646E+00
DAV:   4    -0.148924481935E+03    0.37991E+00   -0.27500E+00  3480   0.201E+00    0.135E+00
DAV:   5    -0.148935599030E+03   -0.11117E-01   -0.35025E-02  3430   0.662E-01    0.204E+00
DAV:   6    -0.148917268073E+03    0.18331E-01   -0.33464E-02  3400   0.322E-01    0.787E-01
DAV:   7    -0.148932352985E+03   -0.15085E-01   -0.46755E-02  3420   0.533E-01    0.149E+00
DAV:   8    -0.148922521817E+03    0.98312E-02   -0.46396E-03  3510   0.325E-01    0.130E+00
DAV:   9    -0.148908508438E+03    0.14013E-01   -0.19237E-02  3580   0.208E-01    0.244E-01
DAV:  10    -0.148908499122E+03    0.93156E-05   -0.71921E-04  3420   0.990E-02    0.274E-01
DAV:  11    -0.148907599710E+03    0.89941E-03   -0.46465E-04  3540   0.155E-01    0.171E-01
DAV:  12    -0.148906992955E+03    0.60675E-03   -0.55230E-04  4160   0.178E-01    0.149E-01
DAV:  13    -0.148906610062E+03    0.38289E-03   -0.40260E-04  3910   0.146E-01    0.963E-02
DAV:  14    -0.148906271835E+03    0.33823E-03   -0.22097E-04  3900   0.141E-01    0.580E-02
DAV:  15    -0.148905938152E+03    0.33368E-03   -0.26163E-04  4000   0.178E-01    0.628E-02
DAV:  16    -0.148905582747E+03    0.35541E-03   -0.57966E-04  4200   0.260E-01    0.748E-02
DAV:  17    -0.148905461205E+03    0.12154E-03   -0.56953E-04  3690   0.168E-01    0.908E-02
DAV:  18    -0.148905737293E+03   -0.27609E-03   -0.26105E-04  3360   0.701E-02    0.241E-01
DAV:  19    -0.148905614326E+03    0.12297E-03   -0.38410E-05  3000   0.295E-02    0.208E-01
DAV:  20    -0.148905416376E+03    0.19795E-03   -0.33590E-05  2760   0.319E-02    0.131E-01
DAV:  21    -0.148905390075E+03    0.26300E-04   -0.39288E-05  2940   0.397E-02    0.142E-01
DAV:  22    -0.148905220045E+03    0.17003E-03   -0.21490E-05  2820   0.481E-02    0.839E-02
DAV:  23    -0.148905123465E+03    0.96580E-04   -0.45823E-05  3200   0.464E-02    0.391E-02
DAV:  24    -0.148905055925E+03    0.67540E-04   -0.36965E-05  2870   0.453E-02    0.136E-02
DAV:  25    -0.148904981731E+03    0.74194E-04   -0.25148E-05  2830   0.570E-02    0.348E-02
DAV:  26    -0.148904945307E+03    0.36423E-04   -0.33880E-05  3180   0.307E-02    0.155E-02
DAV:  27    -0.148904905620E+03    0.39687E-04   -0.87401E-06  2400   0.366E-02    0.360E-02
DAV:  28    -0.148904862542E+03    0.43078E-04   -0.19007E-05  2750   0.343E-02    0.329E-02
DAV:  29    -0.148904853356E+03    0.91865E-05   -0.12765E-05  2460   0.179E-02
  18 F= -.14890485E+03 E0= -.14889749E+03  d E =-.324818E-01
       N       E                     dE             d eps       ncg     rms          rms(c)
DAV:   1    -0.148932938089E+03   -0.28076E-01   -0.26919E+01  3180   0.198E+01    0.207E+00
DAV:   2    -0.152586478906E+03   -0.36535E+01   -0.34459E+01  3630   0.430E+00    0.198E+01
DAV:   3    -0.148913130765E+03    0.36733E+01   -0.16058E+01  3360   0.215E+00    0.739E-01
DAV:   4    -0.148941646616E+03   -0.28516E-01   -0.63884E-02  3660   0.707E-01    0.311E-01
DAV:   5    -0.148941765997E+03   -0.11938E-03   -0.48373E-03  3530   0.319E-01    0.289E-01
DAV:   6    -0.148941363271E+03    0.40273E-03   -0.19640E-03  3520   0.251E-01    0.320E-01
DAV:   7    -0.148939909087E+03    0.14542E-02   -0.10419E-03  3640   0.236E-01    0.498E-02
DAV:   8    -0.148939638562E+03    0.27052E-03   -0.58825E-04  3390   0.132E-01    0.425E-02
DAV:   9    -0.148939340028E+03    0.29853E-03   -0.11241E-04  4230   0.963E-02    0.671E-02
DAV:  10    -0.148938780686E+03    0.55934E-03   -0.30656E-04  4490   0.182E-01    0.371E-02
DAV:  11    -0.148938641664E+03    0.13902E-03   -0.24166E-04  3480   0.934E-02    0.433E-02
DAV:  12    -0.148938410018E+03    0.23165E-03   -0.17524E-04  4220   0.140E-01    0.215E-02
DAV:  13    -0.148938232895E+03    0.17712E-03   -0.23909E-04  3570   0.153E-01    0.127E-02
DAV:  14    -0.148938157269E+03    0.75625E-04   -0.24811E-04  3670   0.140E-01    0.175E-02
DAV:  15    -0.148938164836E+03   -0.75671E-05   -0.20117E-04  3410   0.694E-02    0.111E-02
DAV:  16    -0.148938171817E+03   -0.69806E-05   -0.35057E-05  2930   0.210E-02
  19 F= -.14893817E+03 E0= -.14892983E+03  d E =-.658003E-01
       N       E                     dE             d eps       ncg     rms          rms(c)
DAV:   1    -0.148976339934E+03   -0.38175E-01   -0.13935E+00  3100   0.467E+00    0.865E-01
DAV:   2    -0.149500982970E+03   -0.52464E+00   -0.48139E+00  3620   0.145E+00    0.101E+01
DAV:   3    -0.148960999925E+03    0.53998E+00   -0.35337E+00  3570   0.835E-01    0.119E+00
DAV:   4    -0.148971852818E+03   -0.10853E-01   -0.18895E-02  3670   0.321E-01    0.128E-01
DAV:   5    -0.148973211382E+03   -0.13586E-02   -0.81569E-04  3350   0.115E-01    0.661E-02
DAV:   6    -0.148973190348E+03    0.21034E-04   -0.22876E-04  3530   0.910E-02    0.473E-02
DAV:   7    -0.148973082252E+03    0.10810E-03   -0.10741E-04  3680   0.744E-02    0.188E-02
DAV:   8    -0.148973030887E+03    0.51365E-04   -0.53110E-05  3330   0.438E-02    0.132E-02
DAV:   9    -0.148972966581E+03    0.64306E-04   -0.91666E-06  2290   0.422E-02    0.905E-03
DAV:  10    -0.148972846021E+03    0.12056E-03   -0.50405E-05  3530   0.903E-02    0.933E-03
DAV:  11    -0.148972793743E+03    0.52278E-04   -0.51263E-05  3290   0.601E-02    0.905E-03
DAV:  12    -0.148972699944E+03    0.93799E-04   -0.82508E-05  3910   0.134E-01    0.724E-03
DAV:  13    -0.148972659239E+03    0.40706E-04   -0.12830E-04  3660   0.126E-01    0.481E-03
DAV:  14    -0.148972660189E+03   -0.95059E-06   -0.11466E-04  3390   0.912E-02    0.411E-03
DAV:  15    -0.148972674625E+03   -0.14436E-04   -0.93497E-05  3240   0.351E-02    0.697E-03
DAV:  16    -0.148972675017E+03   -0.39248E-06   -0.40281E-06  2140   0.624E-03
  20 F= -.14897268E+03 E0= -.14896386E+03  d E =-.345032E-01
       N       E                     dE             d eps       ncg     rms          rms(c)
DAV:   1    -0.149038861763E+03   -0.66187E-01   -0.11497E+01  3120   0.133E+01    0.211E+00
DAV:   2    -0.151682744149E+03   -0.26439E+01   -0.22466E+01  3660   0.390E+00    0.184E+01
DAV:   3    -0.148996228209E+03    0.26865E+01   -0.16526E+01  3420   0.189E+00    0.855E-01
DAV:   4    -0.149021661940E+03   -0.25434E-01   -0.74911E-02  3730   0.784E-01    0.513E-01
DAV:   5    -0.149019881199E+03    0.17807E-02   -0.77570E-03  3570   0.314E-01    0.180E-01
DAV:   6    -0.149019456332E+03    0.42487E-03   -0.24534E-03  3490   0.224E-01    0.152E-01
DAV:   7    -0.149018891701E+03    0.56463E-03   -0.14501E-03  3590   0.175E-01    0.628E-02
DAV:   8    -0.149018553068E+03    0.33863E-03   -0.40782E-04  3710   0.113E-01    0.388E-02
DAV:   9    -0.149018296582E+03    0.25649E-03   -0.12485E-04  3870   0.864E-02    0.284E-02
DAV:  10    -0.149017730310E+03    0.56627E-03   -0.16268E-04  4240   0.169E-01    0.189E-02
DAV:  11    -0.149017544597E+03    0.18571E-03   -0.13472E-04  3330   0.830E-02    0.150E-02
DAV:  12    -0.149017078971E+03    0.46563E-03   -0.20350E-04  4520   0.208E-01    0.136E-02
DAV:  13    -0.149016590428E+03    0.48854E-03   -0.53674E-04  3910   0.324E-01    0.123E-02
DAV:  14    -0.149016481687E+03    0.10874E-03   -0.62870E-04  3650   0.200E-01    0.133E-02
DAV:  15    -0.149016501673E+03   -0.19986E-04   -0.39323E-04  3440   0.104E-01    0.143E-02
DAV:  16    -0.149016508916E+03   -0.72430E-05   -0.79593E-05  3160   0.303E-02
  21 F= -.14901651E+03 E0= -.14900687E+03  d E =-.783371E-01
       N       E                     dE             d eps       ncg     rms          rms(c)
DAV:   1    -0.149047627787E+03   -0.31126E-01   -0.56843E+00  3020   0.975E+00    0.107E+00
DAV:   2    -0.150169660244E+03   -0.11220E+01   -0.97204E+00  3690   0.257E+00    0.139E+01
DAV:   3    -0.149020544060E+03    0.11491E+01   -0.91218E+00  3530   0.137E+00    0.468E-01
DAV:   4    -0.149047532482E+03   -0.26988E-01   -0.18452E-02  3540   0.439E-01    0.242E-01
DAV:   5    -0.149048870734E+03   -0.13383E-02   -0.18367E-03  3710   0.191E-01    0.120E-01
DAV:   6    -0.149048769221E+03    0.10151E-03   -0.81698E-04  3650   0.168E-01    0.154E-01
DAV:   7    -0.149048317522E+03    0.45170E-03   -0.57309E-04  3530   0.153E-01    0.372E-02
DAV:   8    -0.149048144454E+03    0.17307E-03   -0.22826E-04  3870   0.101E-01    0.384E-02
DAV:   9    -0.149047926532E+03    0.21792E-03   -0.72681E-05  4160   0.926E-02    0.178E-02
DAV:  10    -0.149047645918E+03    0.28061E-03   -0.11985E-04  4010   0.140E-01    0.181E-02
DAV:  11    -0.149047493819E+03    0.15210E-03   -0.13017E-04  3620   0.973E-02    0.153E-02
DAV:  12    -0.149047285857E+03    0.20796E-03   -0.15017E-04  4590   0.166E-01    0.147E-02
DAV:  13    -0.149047062287E+03    0.22357E-03   -0.31879E-04  3770   0.254E-01    0.166E-02
DAV:  14    -0.149047059502E+03    0.27847E-05   -0.44289E-04  3470   0.111E-01    0.163E-02
DAV:  15    -0.149047069267E+03   -0.97653E-05   -0.12627E-04  3340   0.520E-02    0.185E-02
DAV:  16    -0.149047072147E+03   -0.28794E-05   -0.14424E-05  2600   0.223E-02
  22 F= -.14904707E+03 E0= -.14903743E+03  d E =-.305632E-01
       N       E                     dE             d eps       ncg     rms          rms(c)
DAV:   1    -0.149059240764E+03   -0.12171E-01   -0.60065E+00  3030   0.100E+01    0.109E+00
DAV:   2    -0.150197910785E+03   -0.11387E+01   -0.97632E+00  3700   0.260E+00    0.139E+01
DAV:   3    -0.149034488611E+03    0.11634E+01   -0.92494E+00  3570   0.137E+00    0.443E-01
DAV:   4    -0.149059971808E+03   -0.25483E-01   -0.18465E-02  3530   0.435E-01    0.234E-01
DAV:   5    -0.149061202781E+03   -0.12310E-02   -0.16828E-03  3680   0.192E-01    0.112E-01
DAV:   6    -0.149060994182E+03    0.20860E-03   -0.87938E-04  3600   0.179E-01    0.145E-01
DAV:   7    -0.149060546016E+03    0.44817E-03   -0.75031E-04  3500   0.153E-01    0.393E-02
DAV:   8    -0.149060380524E+03    0.16549E-03   -0.27672E-04  3790   0.985E-02    0.551E-02
DAV:   9    -0.149060186424E+03    0.19410E-03   -0.83243E-05  3940   0.765E-02    0.246E-02
DAV:  10    -0.149059883540E+03    0.30288E-03   -0.96307E-05  4250   0.133E-01    0.160E-02
DAV:  11    -0.149059619817E+03    0.26372E-03   -0.13143E-04  3860   0.137E-01    0.156E-02
DAV:  12    -0.149059346841E+03    0.27298E-03   -0.19991E-04  4080   0.184E-01    0.117E-02
DAV:  13    -0.149059067936E+03    0.27890E-03   -0.43940E-04  3950   0.312E-01    0.172E-02
DAV:  14    -0.149059092679E+03   -0.24743E-04   -0.63620E-04  3450   0.126E-01    0.150E-02
DAV:  15    -0.149059112696E+03   -0.20017E-04   -0.15765E-04  3280   0.398E-02    0.180E-02
DAV:  16    -0.149059113192E+03   -0.49533E-06   -0.32893E-06  2100   0.662E-03
  23 F= -.14905911E+03 E0= -.14904953E+03  d E =-.426043E-01
       N       E                     dE             d eps       ncg     rms          rms(c)
DAV:   1    -0.149073578742E+03   -0.14466E-01   -0.32810E+00  2980   0.759E+00    0.613E-01
DAV:   2    -0.149276371556E+03   -0.20279E+00   -0.17064E+00  3540   0.141E+00    0.538E+00
DAV:   3    -0.149069176895E+03    0.20719E+00   -0.10430E+00  3600   0.723E-01    0.419E-01
DAV:   4    -0.149076312132E+03   -0.71352E-02   -0.33778E-03  3340   0.243E-01    0.153E-01
DAV:   5    -0.149076584245E+03   -0.27211E-03   -0.15630E-03  3480   0.224E-01    0.258E-01
DAV:   6    -0.149076154607E+03    0.42964E-03   -0.81643E-04  3660   0.128E-01    0.132E-01
DAV:   7    -0.149076036353E+03    0.11825E-03   -0.15174E-04  3370   0.517E-02    0.475E-02
DAV:   8    -0.149076043625E+03   -0.72720E-05   -0.46087E-05  3330   0.337E-02
  24 F= -.14907604E+03 E0= -.14906629E+03  d E =-.169304E-01
       N       E                     dE             d eps       ncg     rms          rms(c)
DAV:   1    -0.149077908805E+03   -0.18725E-02   -0.12130E+01  2970   0.146E+01    0.106E+00
DAV:   2    -0.149553116839E+03   -0.47521E+00   -0.43702E+00  3510   0.253E+00    0.929E+00
DAV:   3    -0.149075970960E+03    0.47715E+00   -0.43428E+00  3560   0.111E+00    0.874E-01
DAV:   4    -0.149090032540E+03   -0.14062E-01   -0.10392E-02  3330   0.450E-01    0.243E-01
DAV:   5    -0.149089627635E+03    0.40490E-03   -0.56057E-03  3640   0.418E-01    0.338E-01
DAV:   6    -0.149088505999E+03    0.11216E-02   -0.31799E-03  3670   0.255E-01    0.161E-01
DAV:   7    -0.149088340453E+03    0.16555E-03   -0.57737E-04  3380   0.968E-02    0.132E-01
DAV:   8    -0.149088191243E+03    0.14921E-03   -0.16304E-04  3460   0.641E-02    0.494E-02
DAV:   9    -0.149088130157E+03    0.61085E-04   -0.61819E-05  3510   0.642E-02    0.192E-02
DAV:  10    -0.149088098105E+03    0.32052E-04   -0.73903E-05  3590   0.756E-02    0.176E-02
DAV:  11    -0.149088089857E+03    0.82485E-05   -0.69206E-05  3430   0.600E-02
  25 F= -.14908809E+03 E0= -.14907812E+03  d E =-.289767E-01
       N       E                     dE             d eps       ncg     rms          rms(c)
DAV:   1    -0.149095199142E+03   -0.71010E-02   -0.46661E+00  3020   0.898E+00    0.340E-01
DAV:   2    -0.149114646604E+03   -0.19447E-01   -0.11354E-01  3370   0.130E+00    0.113E+00
DAV:   3    -0.149104922460E+03    0.97241E-02   -0.43359E-03  3400   0.278E-01    0.534E-01
DAV:   4    -0.149103355436E+03    0.15670E-02   -0.16551E-03  3320   0.170E-01    0.238E-01
DAV:   5    -0.149102997071E+03    0.35836E-03   -0.70394E-04  3500   0.112E-01    0.133E-01
DAV:   6    -0.149102806766E+03    0.19031E-03   -0.50856E-04  3550   0.135E-01    0.155E-01
DAV:   7    -0.149102694902E+03    0.11186E-03   -0.29986E-04  3450   0.763E-02    0.313E-02
DAV:   8    -0.149102699036E+03   -0.41345E-05   -0.51006E-05  3340   0.311E-02
  26 F= -.14910270E+03 E0= -.14909279E+03  d E =-.146092E-01
       N       E                     dE             d eps       ncg     rms          rms(c)
DAV:   1    -0.149098096097E+03    0.45988E-02   -0.61997E+00  3060   0.104E+01    0.395E-01
DAV:   2    -0.149122288980E+03   -0.24193E-01   -0.15279E-01  3370   0.151E+00    0.119E+00
DAV:   3    -0.149111571515E+03    0.10717E-01   -0.10225E-02  3400   0.328E-01    0.659E-01
DAV:   4    -0.149108990583E+03    0.25809E-02   -0.36541E-03  3350   0.198E-01    0.282E-01
DAV:   5    -0.149108438636E+03    0.55195E-03   -0.10070E-03  3430   0.133E-01    0.140E-01
DAV:   6    -0.149108180633E+03    0.25800E-03   -0.68965E-04  3660   0.162E-01    0.170E-01
DAV:   7    -0.149108023846E+03    0.15679E-03   -0.42123E-04  3480   0.960E-02    0.340E-02
DAV:   8    -0.149108022550E+03    0.12969E-05   -0.80326E-05  3520   0.419E-02
  27 F= -.14910802E+03 E0= -.14909816E+03  d E =-.199327E-01
       N       E                     dE             d eps       ncg     rms          rms(c)
DAV:   1    -0.149115609295E+03   -0.75854E-02   -0.36113E+00  2980   0.795E+00    0.317E-01
DAV:   2    -0.149137249862E+03   -0.21641E-01   -0.90484E-02  3370   0.114E+00    0.127E+00
DAV:   3    -0.149122647192E+03    0.14603E-01   -0.15214E-02  3350   0.287E-01    0.393E-01
DAV:   4    -0.149122062593E+03    0.58460E-03   -0.15303E-03  3310   0.150E-01    0.189E-01
DAV:   5    -0.149121777435E+03    0.28516E-03   -0.43969E-04  3530   0.951E-02    0.103E-01
DAV:   6    -0.149121802947E+03   -0.25512E-04   -0.38850E-04  3440   0.102E-01    0.163E-01
DAV:   7    -0.149121650554E+03    0.15239E-03   -0.15345E-04  3340   0.519E-02    0.193E-02
DAV:   8    -0.149121663866E+03   -0.13312E-04   -0.33548E-05  2390   0.195E-02    0.207E-02
DAV:   9    -0.149121659742E+03    0.41235E-05   -0.15390E-05  2230   0.210E-02
  28 F= -.14912166E+03 E0= -.14911213E+03  d E =-.136372E-01
       N       E                     dE             d eps       ncg     rms          rms(c)
DAV:   1    -0.149094253762E+03    0.27410E-01   -0.25560E+01  2960   0.211E+01    0.868E-01
DAV:   2    -0.149277723858E+03   -0.18347E+00   -0.90448E-01  3370   0.309E+00    0.431E+00
DAV:   3    -0.149147548032E+03    0.13018E+00   -0.11529E+00  3390   0.874E-01    0.101E+00
DAV:   4    -0.149139872712E+03    0.76753E-02   -0.36324E-02  3340   0.411E-01    0.504E-01
DAV:   5    -0.149138118213E+03    0.17545E-02   -0.27147E-03  3370   0.198E-01    0.319E-01
DAV:   6    -0.149136875434E+03    0.12428E-02   -0.28090E-03  3410   0.277E-01    0.171E-01
DAV:   7    -0.149136840384E+03    0.35050E-04   -0.17119E-03  3450   0.186E-01    0.173E-01
DAV:   8    -0.149136595422E+03    0.24496E-03   -0.41054E-04  3410   0.850E-02    0.703E-02
DAV:   9    -0.149136556330E+03    0.39092E-04   -0.73811E-05  3480   0.570E-02    0.254E-02
DAV:  10    -0.149136484606E+03    0.71723E-04   -0.33691E-05  2970   0.579E-02    0.169E-02
DAV:  11    -0.149136402702E+03    0.81905E-04   -0.26955E-05  2780   0.619E-02    0.103E-02
DAV:  12    -0.149136319853E+03    0.82849E-04   -0.35743E-05  2980   0.743E-02    0.185E-02
DAV:  13    -0.149136247316E+03    0.72536E-04   -0.47710E-05  3250   0.785E-02    0.948E-03
DAV:  14    -0.149136138554E+03    0.10876E-03   -0.13428E-04  4320   0.161E-01    0.716E-03
DAV:  15    -0.149136124499E+03    0.14055E-04   -0.13708E-04  3260   0.779E-02    0.839E-03
DAV:  16    -0.149136130738E+03   -0.62397E-05   -0.65568E-05  3250   0.368E-02
  29 F= -.14913613E+03 E0= -.14912704E+03  d E =-.281082E-01
       N       E                     dE             d eps       ncg     rms          rms(c)
DAV:   1    -0.149142258949E+03   -0.61345E-02   -0.27124E+00  3000   0.662E+00    0.227E-01
DAV:   2    -0.149148029516E+03   -0.57706E-02   -0.62585E-02  3380   0.948E-01    0.397E-01
DAV:   3    -0.149149694963E+03   -0.16654E-02   -0.12883E-02  3740   0.211E-01    0.602E-01
DAV:   4    -0.149146620261E+03    0.30747E-02   -0.91482E-04  3550   0.134E-01    0.120E-01
DAV:   5    -0.149146499106E+03    0.12115E-03   -0.62692E-04  3460   0.123E-01    0.597E-02
DAV:   6    -0.149146418359E+03    0.80748E-04   -0.28492E-04  3580   0.110E-01    0.771E-02
DAV:   7    -0.149146332980E+03    0.85379E-04   -0.15788E-04  3480   0.699E-02    0.169E-02
DAV:   8    -0.149146281847E+03    0.51133E-04   -0.30619E-05  2860   0.501E-02    0.111E-02
DAV:   9    -0.149146221380E+03    0.60467E-04   -0.27252E-05  2730   0.558E-02    0.128E-02
DAV:  10    -0.149146160743E+03    0.60636E-04   -0.38074E-05  3050   0.608E-02    0.815E-03
DAV:  11    -0.149146070428E+03    0.90315E-04   -0.61302E-05  3880   0.106E-01    0.626E-03
DAV:  12    -0.149146001135E+03    0.69293E-04   -0.97429E-05  3750   0.120E-01    0.624E-03
DAV:  13    -0.149145974416E+03    0.26719E-04   -0.11069E-04  3490   0.100E-01    0.360E-03
DAV:  14    -0.149145981431E+03   -0.70146E-05   -0.11262E-04  3230   0.383E-02    0.672E-03
DAV:  15    -0.149145981000E+03    0.43024E-06   -0.51318E-06  2170   0.817E-03
  30 F= -.14914598E+03 E0= -.14913681E+03  d E =-.985026E-02
       N       E                     dE             d eps       ncg     rms          rms(c)
DAV:   1    -0.149146439488E+03   -0.45806E-03   -0.72452E-01  3010   0.342E+00    0.116E-01
DAV:   2    -0.149148053512E+03   -0.16140E-02   -0.16033E-02  3350   0.485E-01    0.230E-01
DAV:   3    -0.149148281572E+03   -0.22806E-03   -0.17460E-03  3790   0.107E-01    0.296E-01
DAV:   4    -0.149147584074E+03    0.69750E-03   -0.23493E-04  3470   0.684E-02    0.588E-02
DAV:   5    -0.149147549978E+03    0.34096E-04   -0.17155E-04  3440   0.653E-02    0.326E-02
DAV:   6    -0.149147529734E+03    0.20244E-04   -0.82494E-05  3560   0.565E-02    0.318E-02
DAV:   7    -0.149147504702E+03    0.25032E-04   -0.40463E-05  3220   0.393E-02    0.848E-03
DAV:   8    -0.149147488017E+03    0.16685E-04   -0.68219E-06  2200   0.275E-02    0.596E-03
DAV:   9    -0.149147464173E+03    0.23844E-04   -0.75594E-06  2330   0.354E-02    0.664E-03
DAV:  10    -0.149147440149E+03    0.24023E-04   -0.15872E-05  2610   0.398E-02    0.508E-03
DAV:  11    -0.149147408203E+03    0.31947E-04   -0.17778E-05  2790   0.639E-02    0.392E-03
DAV:  12    -0.149147378176E+03    0.30027E-04   -0.72478E-05  4090   0.108E-01    0.215E-03
DAV:  13    -0.149147381403E+03   -0.32271E-05   -0.73294E-05  3110   0.380E-02
  31 F= -.14914738E+03 E0= -.14913819E+03  d E =-.112507E-01
       N       E                     dE             d eps       ncg     rms          rms(c)
DAV:   1    -0.149150981188E+03   -0.36030E-02   -0.33854E+00  2960   0.739E+00    0.295E-01
DAV:   2    -0.149162249778E+03   -0.11269E-01   -0.86854E-02  3360   0.100E+00    0.959E-01
DAV:   3    -0.149157764560E+03    0.44852E-02   -0.31505E-02  3590   0.215E-01    0.503E-01
DAV:   4    -0.149156152338E+03    0.16122E-02   -0.90099E-04  3410   0.148E-01    0.165E-01
DAV:   5    -0.149155795647E+03    0.35669E-03   -0.13267E-03  3430   0.173E-01    0.670E-02
DAV:   6    -0.149155794243E+03    0.14035E-05   -0.47899E-04  3530   0.905E-02    0.638E-02
DAV:   7    -0.149155754284E+03    0.39959E-04   -0.55004E-05  3390   0.380E-02    0.301E-02
DAV:   8    -0.149155721485E+03    0.32798E-04   -0.17329E-05  2680   0.365E-02    0.838E-03
DAV:   9    -0.149155700661E+03    0.20824E-04   -0.14634E-05  2600   0.342E-02    0.116E-02
DAV:  10    -0.149155677657E+03    0.23004E-04   -0.14008E-05  2440   0.380E-02    0.674E-03
DAV:  11    -0.149155660626E+03    0.17031E-04   -0.16085E-05  2650   0.357E-02    0.447E-03
DAV:  12    -0.149155637861E+03    0.22765E-04   -0.98271E-06  2460   0.542E-02    0.349E-03
DAV:  13    -0.149155622154E+03    0.15707E-04   -0.36248E-05  3130   0.633E-02    0.995E-03
DAV:  14    -0.149155620057E+03    0.20977E-05   -0.38448E-05  3100   0.381E-02
  32 F= -.14915562E+03 E0= -.14914635E+03  d E =-.823865E-02
       N       E                     dE             d eps       ncg     rms          rms(c)
DAV:   1    -0.149154033626E+03    0.15885E-02   -0.30515E+00  2980   0.702E+00    0.278E-01
DAV:   2    -0.149163458353E+03   -0.94247E-02   -0.72861E-02  3360   0.950E-01    0.824E-01
DAV:   3    -0.149160539211E+03    0.29191E-02   -0.16169E-02  3610   0.199E-01    0.538E-01
DAV:   4    -0.149158642329E+03    0.18969E-02   -0.79784E-04  3410   0.139E-01    0.138E-01
DAV:   5    -0.149158391927E+03    0.25040E-03   -0.13412E-03  3420   0.172E-01    0.722E-02
DAV:   6    -0.149158367141E+03    0.24786E-04   -0.49730E-04  3460   0.846E-02    0.557E-02
DAV:   7    -0.149158342735E+03    0.24405E-04   -0.47765E-05  3220   0.323E-02    0.321E-02
DAV:   8    -0.149158308974E+03    0.33762E-04   -0.23898E-05  2670   0.362E-02    0.947E-03
DAV:   9    -0.149158294895E+03    0.14079E-04   -0.13449E-05  2380   0.245E-02    0.604E-03
DAV:  10    -0.149158273188E+03    0.21707E-04   -0.74341E-06  2340   0.353E-02    0.704E-03
DAV:  11    -0.149158250220E+03    0.22968E-04   -0.16537E-05  2710   0.423E-02    0.440E-03
DAV:  12    -0.149158221427E+03    0.28793E-04   -0.24923E-05  2950   0.716E-02    0.385E-03
DAV:  13    -0.149158206762E+03    0.14666E-04   -0.49495E-05  3510   0.764E-02    0.975E-03
DAV:  14    -0.149158208787E+03   -0.20254E-05   -0.57095E-05  3070   0.329E-02
  33 F= -.14915821E+03 E0= -.14914877E+03  d E =-.108274E-01
       N       E                     dE             d eps       ncg     rms          rms(c)
DAV:   1    -0.149158948879E+03   -0.74212E-03   -0.40622E+00  2980   0.786E+00    0.292E-01
DAV:   2    -0.149166629962E+03   -0.76811E-02   -0.89449E-02  3370   0.108E+00    0.208E-01
DAV:   3    -0.149170000295E+03   -0.33703E-02   -0.87888E-03  3570   0.219E-01    0.801E-01
DAV:   4    -0.149165850781E+03    0.41495E-02   -0.54168E-03  3500   0.131E-01    0.200E-01
DAV:   5    -0.149165803419E+03    0.47361E-04   -0.70605E-04  3490   0.110E-01    0.112E-01
DAV:   6    -0.149165569760E+03    0.23366E-03   -0.56309E-04  3540   0.127E-01    0.593E-02
DAV:   7    -0.149165532986E+03    0.36774E-04   -0.22276E-04  3450   0.675E-02    0.267E-02
DAV:   8    -0.149165500630E+03    0.32356E-04   -0.52250E-05  3350   0.478E-02    0.247E-02
DAV:   9    -0.149165482737E+03    0.17893E-04   -0.25249E-05  2760   0.294E-02    0.130E-02
DAV:  10    -0.149165466332E+03    0.16405E-04   -0.10923E-05  2290   0.275E-02    0.941E-03
DAV:  11    -0.149165441342E+03    0.24991E-04   -0.19458E-05  2740   0.460E-02    0.506E-03
DAV:  12    -0.149165437825E+03    0.35169E-05   -0.21237E-05  2850   0.210E-02
  34 F= -.14916544E+03 E0= -.14915571E+03  d E =-.722904E-02
       N       E                     dE             d eps       ncg     rms          rms(c)
DAV:   1    -0.149161260719E+03    0.41806E-02   -0.35901E+00  2980   0.741E+00    0.273E-01
DAV:   2    -0.149168003606E+03   -0.67429E-02   -0.78686E-02  3370   0.102E+00    0.159E-01
DAV:   3    -0.149170209717E+03   -0.22061E-02   -0.33509E-03  3630   0.200E-01    0.705E-01
DAV:   4    -0.149167111631E+03    0.30981E-02   -0.66367E-04  3420   0.104E-01    0.102E-01
DAV:   5    -0.149167289099E+03   -0.17747E-03   -0.56883E-04  3610   0.102E-01    0.138E-01
DAV:   6    -0.149167063360E+03    0.22574E-03   -0.63488E-04  3500   0.125E-01    0.897E-02
DAV:   7    -0.149167027280E+03    0.36080E-04   -0.21109E-04  3410   0.665E-02    0.367E-02
DAV:   8    -0.149166995161E+03    0.32119E-04   -0.35601E-05  3080   0.406E-02    0.155E-02
DAV:   9    -0.149166973843E+03    0.21318E-04   -0.13503E-05  2420   0.343E-02    0.972E-03
DAV:  10    -0.149166948070E+03    0.25773E-04   -0.16670E-05  2610   0.436E-02    0.748E-03
DAV:  11    -0.149166934583E+03    0.13487E-04   -0.22204E-05  2660   0.339E-02    0.567E-03
DAV:  12    -0.149166922980E+03    0.11603E-04   -0.10202E-05  2430   0.382E-02    0.379E-03
DAV:  13    -0.149166914403E+03    0.85765E-05   -0.26915E-05  2910   0.573E-02
  35 F= -.14916691E+03 E0= -.14915683E+03  d E =-.870562E-02
       N       E                     dE             d eps       ncg     rms          rms(c)
DAV:   1    -0.149168360436E+03   -0.14375E-02   -0.20459E+00  3060   0.575E+00    0.198E-01
DAV:   2    -0.149172485290E+03   -0.41249E-02   -0.45349E-02  3340   0.781E-01    0.201E-01
DAV:   3    -0.149176949790E+03   -0.44645E-02   -0.47133E-03  3640   0.158E-01    0.944E-01
DAV:   4    -0.149171702477E+03    0.52473E-02   -0.22436E-03  3410   0.122E-01    0.118E-01
DAV:   5    -0.149172052599E+03   -0.35012E-03   -0.29738E-04  3450   0.717E-02    0.105E-01
DAV:   6    -0.149171939528E+03    0.11307E-03   -0.19087E-04  3410   0.748E-02    0.156E-02
DAV:   7    -0.149171940433E+03   -0.90561E-06   -0.94474E-05  3450   0.436E-02
  36 F= -.14917194E+03 E0= -.14916171E+03  d E =-.502603E-02
       N       E                     dE             d eps       ncg     rms          rms(c)
DAV:   1    -0.149167803479E+03    0.41360E-02   -0.51210E+00  3060   0.908E+00    0.323E-01
DAV:   2    -0.149179359640E+03   -0.11556E-01   -0.11598E-01  3340   0.125E+00    0.576E-01
DAV:   3    -0.149187320343E+03   -0.79607E-02   -0.55909E-02  3420   0.242E-01    0.132E+00
DAV:   4    -0.149176461901E+03    0.10858E-01   -0.18576E-02  3440   0.201E-01    0.169E-01
DAV:   5    -0.149177135618E+03   -0.67372E-03   -0.66061E-04  3530   0.111E-01    0.200E-01
DAV:   6    -0.149176768684E+03    0.36693E-03   -0.58044E-04  3410   0.121E-01    0.377E-02
DAV:   7    -0.149176769696E+03   -0.10120E-05   -0.25360E-04  3480   0.737E-02    0.173E-02
DAV:   8    -0.149176742062E+03    0.27634E-04   -0.50538E-05  3210   0.437E-02    0.119E-02
DAV:   9    -0.149176726489E+03    0.15574E-04   -0.22004E-05  2600   0.281E-02    0.220E-02
DAV:  10    -0.149176705062E+03    0.21427E-04   -0.89872E-06  2250   0.292E-02    0.182E-02
DAV:  11    -0.149176676074E+03    0.28988E-04   -0.15269E-05  2580   0.430E-02    0.115E-02
DAV:  12    -0.149176652493E+03    0.23581E-04   -0.18385E-05  2630   0.440E-02    0.433E-03
DAV:  13    -0.149176619913E+03    0.32580E-04   -0.29043E-05  2950   0.763E-02    0.399E-03
DAV:  14    -0.149176611173E+03    0.87397E-05   -0.46389E-05  3100   0.428E-02
  37 F= -.14917661E+03 E0= -.14916616E+03  d E =-.969677E-02
       N       E                     dE             d eps       ncg     rms          rms(c)
DAV:   1    -0.149137562294E+03    0.39058E-01   -0.20455E+01  3060   0.181E+01    0.673E-01
DAV:   2    -0.149193095238E+03   -0.55533E-01   -0.48993E-01  3360   0.253E+00    0.153E+00
DAV:   3    -0.149207199481E+03   -0.14104E-01   -0.44687E-01  3410   0.521E-01    0.183E+00
DAV:   4    -0.149175151045E+03    0.32048E-01   -0.75500E-02  3420   0.376E-01    0.279E-01
DAV:   5    -0.149176091540E+03   -0.94049E-03   -0.23901E-03  3460   0.199E-01    0.414E-01
DAV:   6    -0.149175047137E+03    0.10444E-02   -0.40187E-03  3380   0.238E-01    0.317E-01
DAV:   7    -0.149174754428E+03    0.29271E-03   -0.17447E-03  3410   0.150E-01    0.163E-01
DAV:   8    -0.149174629773E+03    0.12465E-03   -0.39789E-04  3460   0.680E-02    0.315E-02
DAV:   9    -0.149174610950E+03    0.18823E-04   -0.60836E-05  3140   0.449E-02    0.536E-02
DAV:  10    -0.149174541347E+03    0.69603E-04   -0.33254E-05  2670   0.491E-02    0.257E-02
DAV:  11    -0.149174495032E+03    0.46316E-04   -0.25912E-05  2890   0.481E-02    0.961E-03
DAV:  12    -0.149174437314E+03    0.57718E-04   -0.26521E-05  2790   0.673E-02    0.119E-02
DAV:  13    -0.149174378986E+03    0.58327E-04   -0.54042E-05  3540   0.828E-02    0.729E-03
DAV:  14    -0.149174341286E+03    0.37700E-04   -0.55457E-05  3270   0.818E-02    0.790E-03
DAV:  15    -0.149174326377E+03    0.14909E-04   -0.54317E-05  3230   0.635E-02    0.688E-03
DAV:  16    -0.149174329997E+03   -0.36196E-05   -0.48416E-05  3100   0.228E-02
  38 F= -.14917433E+03 E0= -.14916352E+03  d E =-.741559E-02
       N       E                     dE             d eps       ncg     rms          rms(c)
DAV:   1    -0.149162730075E+03    0.11596E-01   -0.86070E+00  3060   0.117E+01    0.402E-01
DAV:   2    -0.149180991003E+03   -0.18261E-01   -0.18971E-01  3310   0.160E+00    0.658E-01
DAV:   3    -0.149193117166E+03   -0.12126E-01   -0.23241E-02  3500   0.294E-01    0.136E+00
DAV:   4    -0.149177642305E+03    0.15475E-01   -0.12790E-02  3430   0.265E-01    0.148E-01
DAV:   5    -0.149177975477E+03   -0.33317E-03   -0.15094E-03  3640   0.156E-01    0.128E-01
DAV:   6    -0.149177705480E+03    0.27000E-03   -0.61830E-04  3510   0.132E-01    0.452E-02
DAV:   7    -0.149177682779E+03    0.22701E-04   -0.34637E-04  3440   0.901E-02    0.540E-02
DAV:   8    -0.149177657466E+03    0.25313E-04   -0.10152E-04  3410   0.451E-02    0.521E-02
DAV:   9    -0.149177637996E+03    0.19470E-04   -0.40600E-05  2690   0.290E-02    0.159E-02
DAV:  10    -0.149177628287E+03    0.97084E-05   -0.11607E-05  2310   0.275E-02
  39 F= -.14917763E+03 E0= -.14916703E+03  d E =-.107139E-01
       N       E                     dE             d eps       ncg     rms          rms(c)
DAV:   1    -0.149178637848E+03   -0.99985E-03   -0.32099E+00  3100   0.729E+00    0.274E-01
DAV:   2    -0.149201863509E+03   -0.23226E-01   -0.89539E-02  3360   0.106E+00    0.148E+00
DAV:   3    -0.149184930668E+03    0.16933E-01   -0.35686E-02  3340   0.275E-01    0.351E-01
DAV:   4    -0.149184919531E+03    0.11137E-04   -0.11757E-03  3360   0.135E-01    0.186E-01
DAV:   5    -0.149184601903E+03    0.31763E-03   -0.40553E-04  3630   0.896E-02    0.905E-02
DAV:   6    -0.149184518445E+03    0.83458E-04   -0.31822E-04  3580   0.129E-01    0.207E-01
DAV:   7    -0.149184247038E+03    0.27141E-03   -0.22054E-04  3480   0.740E-02    0.410E-02
DAV:   8    -0.149184190638E+03    0.56401E-04   -0.29425E-05  2920   0.573E-02    0.458E-02
DAV:   9    -0.149184057641E+03    0.13300E-03   -0.40098E-05  3280   0.811E-02    0.121E-02
DAV:  10    -0.149183949252E+03    0.10839E-03   -0.56470E-05  3380   0.810E-02    0.217E-02
DAV:  11    -0.149183817530E+03    0.13172E-03   -0.69806E-05  3730   0.114E-01    0.116E-02
DAV:  12    -0.149183694450E+03    0.12308E-03   -0.15135E-04  4030   0.163E-01    0.266E-02
DAV:  13    -0.149183652882E+03    0.41569E-04   -0.20320E-04  3550   0.142E-01    0.241E-02
DAV:  14    -0.149183668398E+03   -0.15517E-04   -0.21342E-04  3280   0.627E-02    0.136E-02
DAV:  15    -0.149183671595E+03   -0.31963E-05   -0.29727E-05  2880   0.161E-02
  40 F= -.14918367E+03 E0= -.14917306E+03  d E =-.604331E-02
       N       E                     dE             d eps       ncg     rms          rms(c)
DAV:   1    -0.149182598041E+03    0.10704E-02   -0.14056E+00  3100   0.482E+00    0.184E-01
DAV:   2    -0.149194668565E+03   -0.12071E-01   -0.41666E-02  3370   0.700E-01    0.114E+00
DAV:   3    -0.149185042030E+03    0.96265E-02   -0.15663E-02  3260   0.185E-01    0.199E-01
DAV:   4    -0.149185363471E+03   -0.32144E-03   -0.38182E-04  3300   0.898E-02    0.112E-01
DAV:   5    -0.149185227629E+03    0.13584E-03   -0.17781E-04  3750   0.632E-02    0.514E-02
DAV:   6    -0.149185210635E+03    0.16994E-04   -0.13085E-04  3640   0.740E-02    0.118E-01
DAV:   7    -0.149185120521E+03    0.90114E-04   -0.77348E-05  3390   0.468E-02    0.232E-02
DAV:   8    -0.149185111237E+03    0.92842E-05   -0.14628E-05  2210   0.299E-02
  41 F= -.14918511E+03 E0= -.14917460E+03  d E =-.748295E-02
       N       E                     dE             d eps       ncg     rms          rms(c)
DAV:   1    -0.149184816187E+03    0.30433E-03   -0.19724E-01  3110   0.181E+00    0.653E-02
DAV:   2    -0.149185943928E+03   -0.11277E-02   -0.56192E-03  3370   0.259E-01    0.387E-01
DAV:   3    -0.149185121326E+03    0.82260E-03   -0.13181E-03  3180   0.596E-02    0.929E-02
DAV:   4    -0.149185147727E+03   -0.26400E-04   -0.49627E-05  3150   0.385E-02    0.270E-02
DAV:   5    -0.149185110438E+03    0.37288E-04   -0.30371E-05  3250   0.358E-02    0.232E-02
DAV:   6    -0.149185057343E+03    0.53095E-04   -0.27886E-05  3020   0.495E-02    0.252E-02
DAV:   7    -0.149185015728E+03    0.41615E-04   -0.24810E-05  2880   0.457E-02    0.126E-02
DAV:   8    -0.149184986019E+03    0.29709E-04   -0.17083E-05  2550   0.381E-02    0.120E-02
DAV:   9    -0.149184938916E+03    0.47103E-04   -0.16131E-05  2620   0.582E-02    0.103E-02
DAV:  10    -0.149184869710E+03    0.69206E-04   -0.91823E-05  4150   0.121E-01    0.122E-02
DAV:  11    -0.149184863514E+03    0.61953E-05   -0.70380E-05  3240   0.441E-02
  42 F= -.14918486E+03 E0= -.14917424E+03  d E =-.723523E-02
       N       E                     dE             d eps       ncg     rms          rms(c)
DAV:   1    -0.149185908769E+03   -0.10391E-02   -0.29320E+00  2980   0.725E+00    0.306E-01
DAV:   2    -0.149233664987E+03   -0.47756E-01   -0.13608E-01  3380   0.109E+00    0.233E+00
DAV:   3    -0.149190230580E+03    0.43434E-01   -0.14377E-01  3380   0.381E-01    0.190E-01
DAV:   4    -0.149191171776E+03   -0.94120E-03   -0.11826E-03  3350   0.142E-01    0.191E-01
DAV:   5    -0.149190931720E+03    0.24006E-03   -0.44177E-04  3580   0.797E-02    0.631E-02
DAV:   6    -0.149191019563E+03   -0.87843E-04   -0.26100E-04  3450   0.105E-01    0.213E-01
DAV:   7    -0.149190784799E+03    0.23476E-03   -0.18763E-04  3460   0.610E-02    0.679E-02
DAV:   8    -0.149190791321E+03   -0.65224E-05   -0.28413E-05  3000   0.364E-02
  43 F= -.14919079E+03 E0= -.14918035E+03  d E =-.592781E-02
       N       E                     dE             d eps       ncg     rms          rms(c)
DAV:   1    -0.149187415291E+03    0.33695E-02   -0.32418E+00  2980   0.763E+00    0.295E-01
DAV:   2    -0.149220935330E+03   -0.33520E-01   -0.10589E-01  3380   0.112E+00    0.185E+00
DAV:   3    -0.149192775591E+03    0.28160E-01   -0.78508E-02  3390   0.324E-01    0.261E-01
DAV:   4    -0.149193311900E+03   -0.53631E-03   -0.10874E-03  3370   0.143E-01    0.197E-01
DAV:   5    -0.149192979341E+03    0.33256E-03   -0.55111E-04  3530   0.968E-02    0.653E-02
DAV:   6    -0.149193032476E+03   -0.53136E-04   -0.32261E-04  3490   0.122E-01    0.220E-01
DAV:   7    -0.149192740530E+03    0.29195E-03   -0.23081E-04  3470   0.728E-02    0.242E-02
DAV:   8    -0.149192755846E+03   -0.15315E-04   -0.31815E-05  3090   0.443E-02    0.494E-02
DAV:   9    -0.149192709184E+03    0.46662E-04   -0.24783E-05  2800   0.472E-02    0.208E-02
DAV:  10    -0.149192686025E+03    0.23159E-04   -0.31493E-05  3090   0.397E-02    0.214E-02
DAV:  11    -0.149192662939E+03    0.23086E-04   -0.11948E-05  2370   0.400E-02    0.758E-03
DAV:  12    -0.149192641975E+03    0.20964E-04   -0.19769E-05  2780   0.494E-02    0.144E-02
DAV:  13    -0.149192628838E+03    0.13137E-04   -0.25689E-05  2980   0.450E-02    0.667E-03
DAV:  14    -0.149192618194E+03    0.10644E-04   -0.12823E-05  2560   0.561E-02    0.329E-03
DAV:  15    -0.149192619927E+03   -0.17332E-05   -0.39894E-05  3010   0.239E-02
  44 F= -.14919262E+03 E0= -.14918202E+03  d E =-.775641E-02
       N       E                     dE             d eps       ncg     rms          rms(c)
DAV:   1    -0.149197169818E+03   -0.45516E-02   -0.61494E-01  2940   0.321E+00    0.156E-01
DAV:   2    -0.149201575255E+03   -0.44054E-02   -0.17016E-02  3460   0.518E-01    0.952E-01
DAV:   3    -0.149197729637E+03    0.38456E-02   -0.17065E-03  3440   0.163E-01    0.306E-01
DAV:   4    -0.149197565760E+03    0.16388E-03   -0.58995E-04  3450   0.104E-01    0.860E-02
DAV:   5    -0.149197323664E+03    0.24210E-03   -0.55041E-04  3760   0.110E-01    0.615E-02
DAV:   6    -0.149197168082E+03    0.15558E-03   -0.32852E-04  3690   0.101E-01    0.213E-02
DAV:   7    -0.149197108869E+03    0.59213E-04   -0.11221E-04  3890   0.656E-02    0.169E-02
DAV:   8    -0.149197073262E+03    0.35607E-04   -0.38683E-05  3040   0.407E-02    0.110E-02
DAV:   9    -0.149197024134E+03    0.49128E-04   -0.24503E-05  2930   0.526E-02    0.282E-02
DAV:  10    -0.149196983453E+03    0.40681E-04   -0.30760E-05  3080   0.476E-02    0.116E-02
DAV:  11    -0.149196963139E+03    0.20313E-04   -0.22712E-05  2900   0.394E-02    0.108E-02
DAV:  12    -0.149196934406E+03    0.28733E-04   -0.10749E-05  2420   0.523E-02    0.425E-03
DAV:  13    -0.149196915924E+03    0.18482E-04   -0.21956E-05  2870   0.478E-02    0.358E-03
DAV:  14    -0.149196906820E+03    0.91040E-05   -0.21051E-05  2830   0.395E-02
  45 F= -.14919691E+03 E0= -.14918623E+03  d E =-.428689E-02
       N       E                     dE             d eps       ncg     rms          rms(c)
DAV:   1    -0.149196999727E+03   -0.83803E-04   -0.23107E-02  3020   0.623E-01    0.310E-02
DAV:   2    -0.149197251379E+03   -0.25165E-03   -0.68106E-04  3460   0.102E-01    0.225E-01
DAV:   3    -0.149196987386E+03    0.26399E-03   -0.69071E-05  3280   0.338E-02    0.563E-02
DAV:   4    -0.149197024945E+03   -0.37559E-04   -0.21582E-05  2340   0.207E-02    0.154E-02
DAV:   5    -0.149197017270E+03    0.76751E-05   -0.24089E-05  2440   0.232E-02    0.114E-02
DAV:   6    -0.149197013191E+03    0.40789E-05   -0.13496E-05  2260   0.170E-02
  46 F= -.14919701E+03 E0= -.14918632E+03  d E =-.439326E-02
       N       E                     dE             d eps       ncg     rms          rms(c)
DAV:   1    -0.149198874410E+03   -0.18571E-02   -0.10872E+00  3060   0.435E+00    0.310E-01
DAV:   2    -0.149283132038E+03   -0.84258E-01   -0.69301E-01  3500   0.816E-01    0.292E+00
DAV:   3    -0.149197517210E+03    0.85615E-01   -0.17189E-01  3520   0.403E-01    0.240E-01
DAV:   4    -0.149199825828E+03   -0.23086E-02   -0.15415E-03  3560   0.142E-01    0.871E-02
DAV:   5    -0.149200132527E+03   -0.30670E-03   -0.55141E-04  3430   0.115E-01    0.167E-01
DAV:   6    -0.149199964911E+03    0.16762E-03   -0.20436E-04  3590   0.638E-02    0.303E-02
DAV:   7    -0.149199990105E+03   -0.25194E-04   -0.52040E-05  3370   0.329E-02    0.119E-02
DAV:   8    -0.149199986931E+03    0.31737E-05   -0.14806E-05  2330   0.210E-02
  47 F= -.14919999E+03 E0= -.14918909E+03  d E =-.297374E-02
       N       E                     dE             d eps       ncg     rms          rms(c)
DAV:   1    -0.149200074076E+03   -0.83971E-04   -0.63684E-01  3040   0.333E+00    0.253E-01
DAV:   2    -0.149264719196E+03   -0.64645E-01   -0.49272E-01  3490   0.644E-01    0.276E+00
DAV:   3    -0.149198054740E+03    0.66664E-01   -0.15421E-01  3540   0.342E-01    0.192E-01
DAV:   4    -0.149200466470E+03   -0.24117E-02   -0.11406E-03  3550   0.121E-01    0.533E-02
DAV:   5    -0.149200646033E+03   -0.17956E-03   -0.29682E-04  3430   0.787E-02    0.387E-02
DAV:   6    -0.149200607374E+03    0.38660E-04   -0.13873E-04  3500   0.636E-02    0.988E-03
DAV:   7    -0.149200598625E+03    0.87488E-05   -0.51213E-05  3180   0.359E-02
  48 F= -.14920060E+03 E0= -.14918967E+03  d E =-.358543E-02
       N       E                     dE             d eps       ncg     rms          rms(c)
DAV:   1    -0.149201204724E+03   -0.59735E-03   -0.62116E-01  3090   0.321E+00    0.181E-01
DAV:   2    -0.149219027499E+03   -0.17823E-01   -0.90904E-02  3520   0.557E-01    0.189E+00
DAV:   3    -0.149200599185E+03    0.18428E-01   -0.39225E-02  3430   0.191E-01    0.134E-01
DAV:   4    -0.149201929091E+03   -0.13299E-02   -0.11539E-03  3680   0.123E-01    0.106E-01
DAV:   5    -0.149201916544E+03    0.12547E-04   -0.17816E-04  3510   0.606E-02    0.830E-02
DAV:   6    -0.149201822307E+03    0.94237E-04   -0.97013E-05  3300   0.684E-02    0.286E-02
DAV:   7    -0.149201795920E+03    0.26387E-04   -0.10613E-04  3530   0.636E-02    0.435E-02
DAV:   8    -0.149201771384E+03    0.24536E-04   -0.47156E-05  3250   0.302E-02    0.202E-02
DAV:   9    -0.149201761796E+03    0.95880E-05   -0.53651E-06  2170   0.185E-02
  49 F= -.14920176E+03 E0= -.14919087E+03  d E =-.116317E-02
       N       E                     dE             d eps       ncg     rms          rms(c)
DAV:   1    -0.149201702827E+03    0.68557E-04   -0.13020E-02  3250   0.470E-01    0.225E-02
DAV:   2    -0.149201741662E+03   -0.38835E-04   -0.41892E-04  3450   0.787E-02    0.705E-02
DAV:   3    -0.149201743805E+03   -0.21436E-05   -0.21319E-05  2910   0.190E-02    0.795E-02
DAV:   4    -0.149201706440E+03    0.37365E-04   -0.17401E-05  2480   0.181E-02    0.132E-02
DAV:   5    -0.149201710470E+03   -0.40300E-05   -0.36276E-06  2160   0.104E-02    0.151E-02
DAV:   6    -0.149201697728E+03    0.12743E-04   -0.40381E-06  2230   0.216E-02    0.365E-03
DAV:   7    -0.149201686977E+03    0.10751E-04   -0.86486E-06  2400   0.279E-02    0.777E-03
DAV:   8    -0.149201677874E+03    0.91032E-05   -0.61037E-06  2210   0.273E-02
  50 F= -.14920168E+03 E0= -.14919085E+03  d E =-.107925E-02
       N       E                     dE             d eps       ncg     rms          rms(c)
DAV:   1    -0.149202337601E+03   -0.65062E-03   -0.30006E-01  2960   0.228E+00    0.132E-01
DAV:   2    -0.149212615505E+03   -0.10278E-01   -0.92098E-03  3410   0.366E-01    0.119E+00
DAV:   3    -0.149202210753E+03    0.10405E-01   -0.62463E-03  3440   0.161E-01    0.120E-01
DAV:   4    -0.149202764086E+03   -0.55333E-03   -0.21741E-04  3360   0.654E-02    0.490E-02
DAV:   5    -0.149202761655E+03    0.24308E-05   -0.88572E-05  3750   0.474E-02    0.517E-02
DAV:   6    -0.149202741494E+03    0.20161E-04   -0.36792E-05  3220   0.346E-02    0.895E-03
DAV:   7    -0.149202736435E+03    0.50591E-05   -0.11276E-05  2290   0.219E-02
  51 F= -.14920274E+03 E0= -.14919195E+03  d E =-.105856E-02
       N       E                     dE             d eps       ncg     rms          rms(c)
DAV:   1    -0.149202753600E+03   -0.12106E-04   -0.38030E-02  3000   0.810E-01    0.377E-02
DAV:   2    -0.149202991009E+03   -0.23741E-03   -0.95460E-04  3470   0.120E-01    0.200E-01
DAV:   3    -0.149202791185E+03    0.19982E-03   -0.51860E-05  3210   0.316E-02    0.769E-02
DAV:   4    -0.149202792873E+03   -0.16886E-05   -0.20057E-05  2480   0.250E-02    0.150E-02
DAV:   5    -0.149202779205E+03    0.13669E-04   -0.15446E-05  2400   0.264E-02    0.867E-03
DAV:   6    -0.149202764797E+03    0.14408E-04   -0.84181E-06  2200   0.242E-02    0.149E-02
DAV:   7    -0.149202748152E+03    0.16645E-04   -0.60985E-06  2320   0.257E-02    0.476E-03
DAV:   8    -0.149202733725E+03    0.14427E-04   -0.66271E-06  2300   0.289E-02    0.124E-02
DAV:   9    -0.149202711788E+03    0.21937E-04   -0.10899E-05  2470   0.433E-02    0.237E-03
DAV:  10    -0.149202691335E+03    0.20453E-04   -0.27817E-05  3040   0.628E-02    0.843E-03
DAV:  11    -0.149202690857E+03    0.47825E-06   -0.35831E-05  3040   0.263E-02
  52 F= -.14920269E+03 E0= -.14919189E+03  d E =-.101298E-02
       N       E                     dE             d eps       ncg     rms          rms(c)
DAV:   1    -0.149203292811E+03   -0.60148E-03   -0.25979E-01  3030   0.209E+00    0.195E-01
DAV:   2    -0.149240290315E+03   -0.36998E-01   -0.51561E-02  3520   0.482E-01    0.213E+00
DAV:   3    -0.149202381276E+03    0.37909E-01   -0.72827E-02  3510   0.307E-01    0.127E-01
DAV:   4    -0.149203333962E+03   -0.95269E-03   -0.64654E-04  3430   0.852E-02    0.789E-02
DAV:   5    -0.149203401113E+03   -0.67151E-04   -0.10509E-04  3540   0.530E-02    0.800E-02
DAV:   6    -0.149203396309E+03    0.48048E-05   -0.49816E-05  3470   0.326E-02
  53 F= -.14920340E+03 E0= -.14919251E+03  d E =-.705451E-03
       N       E                     dE             d eps       ncg     rms          rms(c)
DAV:   1    -0.149203363348E+03    0.37766E-04   -0.61695E-04  3370   0.109E-01    0.477E-02
DAV:   2    -0.149206296785E+03   -0.29334E-02   -0.76758E-03  3560   0.775E-02    0.830E-01
DAV:   3    -0.149202946536E+03    0.33502E-02   -0.64244E-03  3240   0.754E-02    0.438E-02
DAV:   4    -0.149203336326E+03   -0.38979E-03   -0.34562E-05  2970   0.236E-02    0.122E-02
DAV:   5    -0.149203349399E+03   -0.13073E-04   -0.34352E-06  2210   0.134E-02    0.630E-03
DAV:   6    -0.149203351127E+03   -0.17280E-05   -0.32523E-06  2160   0.149E-02
  54 F= -.14920335E+03 E0= -.14919257E+03  d E =-.660270E-03
       N       E                     dE             d eps       ncg     rms          rms(c)
DAV:   1    -0.149203747407E+03   -0.39801E-03   -0.32331E-01  3010   0.237E+00    0.128E-01
DAV:   2    -0.149215484626E+03   -0.11737E-01   -0.99182E-03  3470   0.399E-01    0.123E+00
DAV:   3    -0.149203642561E+03    0.11842E-01   -0.45145E-03  3460   0.159E-01    0.125E-01
DAV:   4    -0.149204107710E+03   -0.46515E-03   -0.29544E-04  3500   0.703E-02    0.373E-02
DAV:   5    -0.149204139324E+03   -0.31614E-04   -0.10127E-04  3660   0.542E-02    0.277E-02
DAV:   6    -0.149204113277E+03    0.26046E-04   -0.41396E-05  3370   0.382E-02    0.141E-02
DAV:   7    -0.149204096458E+03    0.16819E-04   -0.12556E-05  2220   0.271E-02    0.919E-03
DAV:   8    -0.149204082011E+03    0.14447E-04   -0.71378E-06  2280   0.254E-02    0.194E-02
DAV:   9    -0.149204069239E+03    0.12772E-04   -0.68293E-06  2210   0.225E-02    0.446E-03
DAV:  10    -0.149204050858E+03    0.18381E-04   -0.93189E-06  2440   0.389E-02    0.650E-03
DAV:  11    -0.149204039453E+03    0.11405E-04   -0.13803E-05  2530   0.305E-02    0.751E-03
DAV:  12    -0.149204024106E+03    0.15346E-04   -0.16335E-05  2720   0.590E-02    0.121E-02
DAV:  13    -0.149204016890E+03    0.72168E-05   -0.39249E-05  3190   0.640E-02
  55 F= -.14920402E+03 E0= -.14919329E+03  d E =-.665762E-03
       N       E                     dE             d eps       ncg     rms          rms(c)
DAV:   1    -0.149203977101E+03    0.47005E-04   -0.30303E-02  3160   0.727E-01    0.367E-02
DAV:   2    -0.149204898920E+03   -0.92182E-03   -0.82471E-04  3410   0.118E-01    0.424E-01
DAV:   3    -0.149203906046E+03    0.99287E-03   -0.84741E-05  3150   0.422E-02    0.442E-02
DAV:   4    -0.149203999748E+03   -0.93702E-04   -0.25927E-05  2670   0.214E-02    0.123E-02
DAV:   5    -0.149204016315E+03   -0.16567E-04   -0.79212E-06  2130   0.149E-02    0.700E-03
DAV:   6    -0.149204015665E+03    0.65070E-06   -0.38663E-06  2070   0.119E-02
  56 F= -.14920402E+03 E0= -.14919328E+03  d E =-.664537E-03
       N       E                     dE             d eps       ncg     rms          rms(c)
DAV:   1    -0.149204535066E+03   -0.51875E-03   -0.20304E-01  3080   0.189E+00    0.121E-01
DAV:   2    -0.149207951505E+03   -0.34164E-02   -0.17904E-02  3440   0.302E-01    0.867E-01
DAV:   3    -0.149204766436E+03    0.31851E-02   -0.15157E-02  3450   0.119E-01    0.297E-01
DAV:   4    -0.149204698417E+03    0.68018E-04   -0.22925E-04  3330   0.698E-02    0.346E-02
DAV:   5    -0.149204683672E+03    0.14745E-04   -0.12661E-04  3580   0.633E-02    0.715E-02
DAV:   6    -0.149204632203E+03    0.51469E-04   -0.61631E-05  3420   0.430E-02    0.155E-02
DAV:   7    -0.149204632120E+03    0.82717E-07   -0.18695E-05  2590   0.220E-02
  57 F= -.14920463E+03 E0= -.14919397E+03  d E =-.616455E-03
       N       E                     dE             d eps       ncg     rms          rms(c)
DAV:   1    -0.149204626282E+03    0.59208E-05   -0.16293E-03  3300   0.171E-01    0.197E-02
DAV:   2    -0.149205029457E+03   -0.40318E-03   -0.72743E-05  3320   0.455E-02    0.309E-01
DAV:   3    -0.149204523918E+03    0.50554E-03   -0.55257E-05  2930   0.331E-02    0.303E-02
DAV:   4    -0.149204609171E+03   -0.85253E-04   -0.10659E-05  2440   0.186E-02    0.838E-03
DAV:   5    -0.149204603054E+03    0.61170E-05   -0.51459E-06  2230   0.237E-02    0.209E-02
DAV:   6    -0.149204591131E+03    0.11923E-04   -0.94721E-06  2370   0.257E-02    0.121E-02
DAV:   7    -0.149204583827E+03    0.73033E-05   -0.67205E-06  2210   0.240E-02
  58 F= -.14920458E+03 E0= -.14919392E+03  d E =-.568163E-03
       N       E                     dE             d eps       ncg     rms          rms(c)
DAV:   1    -0.149204857350E+03   -0.26622E-03   -0.11762E-01  3220   0.136E+00    0.745E-02
DAV:   2    -0.149210189860E+03   -0.53325E-02   -0.26051E-02  3370   0.227E-01    0.109E+00
DAV:   3    -0.149204363348E+03    0.58265E-02   -0.13633E-02  3390   0.997E-02    0.901E-02
DAV:   4    -0.149204872088E+03   -0.50874E-03   -0.14564E-04  3290   0.476E-02    0.275E-02
DAV:   5    -0.149204929022E+03   -0.56934E-04   -0.33629E-05  3120   0.289E-02    0.139E-02
DAV:   6    -0.149204916508E+03    0.12514E-04   -0.22032E-05  2850   0.337E-02    0.288E-02
DAV:   7    -0.149204896472E+03    0.20036E-04   -0.17838E-05  2580   0.292E-02    0.457E-03
DAV:   8    -0.149204892584E+03    0.38885E-05   -0.97460E-06  2250   0.168E-02
  59 F= -.14920489E+03 E0= -.14919428E+03  d E =-.308756E-03
       N       E                     dE             d eps       ncg     rms          rms(c)
DAV:   1    -0.149204887600E+03    0.88718E-05   -0.25598E-03  3470   0.201E-01    0.175E-02
DAV:   2    -0.149205326096E+03   -0.43850E-03   -0.10497E-04  3380   0.454E-02    0.316E-01
DAV:   3    -0.149204780821E+03    0.54528E-03   -0.46532E-05  2780   0.306E-02    0.131E-02
DAV:   4    -0.149204871075E+03   -0.90254E-04   -0.10251E-05  2460   0.141E-02    0.542E-03
DAV:   5    -0.149204875067E+03   -0.39921E-05   -0.15409E-06  2160   0.103E-02    0.591E-03
DAV:   6    -0.149204867846E+03    0.72213E-05   -0.18213E-06  2170   0.168E-02
  60 F= -.14920487E+03 E0= -.14919428E+03  d E =-.284018E-03
       N       E                     dE             d eps       ncg     rms          rms(c)
DAV:   1    -0.149205125637E+03   -0.25057E-03   -0.73843E-02  3020   0.103E+00    0.904E-02
DAV:   2    -0.149205853756E+03   -0.72812E-03   -0.22158E-03  3510   0.174E-01    0.385E-01
DAV:   3    -0.149205087105E+03    0.76665E-03   -0.13298E-04  3340   0.478E-02    0.584E-02
DAV:   4    -0.149205164913E+03   -0.77808E-04   -0.17251E-04  3560   0.523E-02    0.523E-02
DAV:   5    -0.149205132742E+03    0.32171E-04   -0.35388E-05  3280   0.266E-02    0.180E-02
DAV:   6    -0.149205124876E+03    0.78658E-05   -0.17464E-05  2500   0.256E-02
  61 F= -.14920512E+03 E0= -.14919456E+03  d E =-.257031E-03
