       N       E                     dE             d eps       ncg     rms          rms(c)
DAV:   1     0.559359688089E+03    0.55936E+03   -0.48210E+04  2864   0.137E+03
DAV:   2    -0.105612239148E+03   -0.66497E+03   -0.62968E+03  3664   0.265E+02
DAV:   3    -0.167503683337E+03   -0.61891E+02   -0.61530E+02  3296   0.881E+01
DAV:   4    -0.168338374124E+03   -0.83469E+00   -0.83254E+00  3304   0.111E+01
DAV:   5    -0.168351873225E+03   -0.13499E-01   -0.13486E-01  3384   0.136E+00    0.240E+01
DAV:   6    -0.151450384699E+03    0.16901E+02   -0.98707E+01  3352   0.330E+01    0.832E+00
DAV:   7    -0.151332281762E+03    0.11810E+00   -0.29604E+00  3196   0.639E+00    0.504E+00
DAV:   8    -0.151251035069E+03    0.81247E-01   -0.94722E-01  3296   0.471E+00    0.140E+00
DAV:   9    -0.151207851819E+03    0.43183E-01   -0.18274E-01  3300   0.186E+00    0.619E-01
DAV:  10    -0.151213288737E+03   -0.54369E-02   -0.12751E-01  3208   0.146E+00    0.476E-01
DAV:  11    -0.151209669655E+03    0.36191E-02   -0.14005E-02  3656   0.577E-01    0.270E-01
DAV:  12    -0.151209671549E+03   -0.18937E-05   -0.13908E-02  3220   0.489E-01    0.138E-01
DAV:  13    -0.151209527115E+03    0.14443E-03   -0.13747E-03  3736   0.216E-01    0.894E-02
DAV:  14    -0.151209389136E+03    0.13798E-03   -0.85354E-04  3528   0.146E-01    0.304E-02
DAV:  15    -0.151209329996E+03    0.59140E-04   -0.21453E-04  3328   0.885E-02    0.130E-02
DAV:  16    -0.151209264104E+03    0.65892E-04   -0.48150E-05  3256   0.826E-02    0.132E-02
DAV:  17    -0.151209193908E+03    0.70196E-04   -0.10517E-04  4024   0.117E-01    0.889E-03
DAV:  18    -0.151209164464E+03    0.29444E-04   -0.11280E-04  3720   0.113E-01    0.128E-02
DAV:  19    -0.151209151679E+03    0.12785E-04   -0.93456E-05  3472   0.866E-02    0.782E-03
DAV:  20    -0.151209151798E+03   -0.11854E-06   -0.60425E-05  3016   0.400E-02
   1 F= -.15120915E+03 E0= -.15120589E+03  d E =-.151209E+03
       N       E                     dE             d eps       ncg     rms          rms(c)
DAV:   1    -0.151210818646E+03   -0.16670E-02   -0.18794E-02  2920   0.574E-01    0.444E-02
DAV:   2    -0.151210805909E+03    0.12737E-04   -0.14926E-03  3308   0.177E-01    0.419E-02
DAV:   3    -0.151210784764E+03    0.21145E-04   -0.17997E-04  3288   0.606E-02    0.333E-02
DAV:   4    -0.151210760521E+03    0.24243E-04   -0.66174E-05  3028   0.346E-02    0.156E-02
DAV:   5    -0.151210734382E+03    0.26139E-04   -0.64317E-05  3248   0.570E-02    0.137E-02
DAV:   6    -0.151210727548E+03    0.68341E-05   -0.22790E-05  2452   0.376E-02
   2 F= -.15121073E+03 E0= -.15120730E+03  d E =-.157575E-02
       N       E                     dE             d eps       ncg     rms          rms(c)
DAV:   1    -0.151211216099E+03   -0.48172E-03   -0.14450E-02  2904   0.512E-01    0.412E-02
DAV:   2    -0.151211224758E+03   -0.86593E-05   -0.13703E-03  3308   0.163E-01    0.410E-02
DAV:   3    -0.151211200810E+03    0.23948E-04   -0.12730E-04  3288   0.539E-02    0.310E-02
DAV:   4    -0.151211174664E+03    0.26146E-04   -0.91575E-05  3124   0.436E-02    0.114E-02
DAV:   5    -0.151211154871E+03    0.19793E-04   -0.45518E-05  3180   0.528E-02    0.148E-02
DAV:   6    -0.151211146106E+03    0.87656E-05   -0.18985E-05  2260   0.354E-02
   3 F= -.15121115E+03 E0= -.15120757E+03  d E =-.199431E-02
       N       E                     dE             d eps       ncg     rms          rms(c)
DAV:   1    -0.151212228408E+03   -0.10735E-02   -0.13281E-01  2880   0.158E+00    0.525E-02
DAV:   2    -0.151212507251E+03   -0.27884E-03   -0.35514E-03  3256   0.227E-01    0.335E-02
DAV:   3    -0.151212475484E+03    0.31767E-04   -0.52086E-05  3320   0.464E-02    0.232E-02
DAV:   4    -0.151212442635E+03    0.32848E-04   -0.55351E-05  3020   0.533E-02    0.993E-03
DAV:   5    -0.151212426627E+03    0.16009E-04   -0.32124E-05  2756   0.403E-02    0.760E-03
DAV:   6    -0.151212412641E+03    0.13986E-04   -0.13038E-05  2164   0.322E-02    0.489E-03
DAV:   7    -0.151212400946E+03    0.11694E-04   -0.73476E-06  2072   0.344E-02    0.494E-03
DAV:   8    -0.151212388031E+03    0.12916E-04   -0.11574E-05  2212   0.511E-02    0.312E-03
DAV:   9    -0.151212379798E+03    0.82330E-05   -0.23669E-05  2632   0.669E-02
   4 F= -.15121238E+03 E0= -.15120871E+03  d E =-.123369E-02
       N       E                     dE             d eps       ncg     rms          rms(c)
DAV:   1    -0.151212763002E+03   -0.37497E-03   -0.44388E-01  2872   0.289E+00    0.950E-02
DAV:   2    -0.151213727614E+03   -0.96461E-03   -0.12013E-02  3260   0.419E-01    0.610E-02
DAV:   3    -0.151213637772E+03    0.89842E-04   -0.17240E-04  3400   0.785E-02    0.439E-02
DAV:   4    -0.151213547841E+03    0.89931E-04   -0.20983E-04  3336   0.920E-02    0.190E-02
DAV:   5    -0.151213519409E+03    0.28432E-04   -0.98854E-05  3456   0.635E-02    0.168E-02
DAV:   6    -0.151213499414E+03    0.19994E-04   -0.53258E-05  3004   0.444E-02    0.766E-03
DAV:   7    -0.151213479924E+03    0.19490E-04   -0.84230E-06  2056   0.440E-02    0.681E-03
DAV:   8    -0.151213466962E+03    0.12963E-04   -0.20888E-05  2492   0.424E-02    0.542E-03
DAV:   9    -0.151213456460E+03    0.10502E-04   -0.15124E-05  2264   0.516E-02    0.239E-03
DAV:  10    -0.151213456032E+03    0.42729E-06   -0.28130E-05  2712   0.338E-02
   5 F= -.15121346E+03 E0= -.15120965E+03  d E =-.230993E-02
       N       E                     dE             d eps       ncg     rms          rms(c)
DAV:   1    -0.151214107711E+03   -0.65125E-03   -0.17176E-01  2896   0.175E+00    0.543E-02
DAV:   2    -0.151214505434E+03   -0.39772E-03   -0.43564E-03  3184   0.240E-01    0.309E-02
DAV:   3    -0.151214483614E+03    0.21820E-04   -0.47318E-05  3192   0.365E-02    0.213E-02
DAV:   4    -0.151214468656E+03    0.14958E-04   -0.28647E-05  2676   0.345E-02    0.841E-03
DAV:   5    -0.151214465392E+03    0.32643E-05   -0.18847E-05  2324   0.278E-02    0.440E-03
DAV:   6    -0.151214464869E+03    0.52310E-06   -0.87999E-06  1908   0.177E-02
   6 F= -.15121446E+03 E0= -.15121066E+03  d E =-.100884E-02
       N       E                     dE             d eps       ncg     rms          rms(c)
DAV:   1    -0.151213605297E+03    0.86009E-03   -0.15474E+00  2904   0.526E+00    0.164E-01
DAV:   2    -0.151217184392E+03   -0.35791E-02   -0.39188E-02  3184   0.717E-01    0.924E-02
DAV:   3    -0.151216978332E+03    0.20606E-03   -0.38037E-04  3352   0.992E-02    0.627E-02
DAV:   4    -0.151216833285E+03    0.14505E-03   -0.26746E-04  3304   0.100E-01    0.238E-02
DAV:   5    -0.151216796400E+03    0.36884E-04   -0.16742E-04  3248   0.716E-02    0.116E-02
DAV:   6    -0.151216779076E+03    0.17324E-04   -0.48027E-05  2948   0.399E-02    0.785E-03
DAV:   7    -0.151216763368E+03    0.15708E-04   -0.76692E-06  2052   0.350E-02    0.507E-03
DAV:   8    -0.151216752614E+03    0.10754E-04   -0.20378E-05  2560   0.337E-02    0.479E-03
DAV:   9    -0.151216739951E+03    0.12664E-04   -0.82356E-06  2120   0.361E-02    0.423E-03
DAV:  10    -0.151216732064E+03    0.78868E-05   -0.96652E-06  2160   0.398E-02
   7 F= -.15121673E+03 E0= -.15121294E+03  d E =-.327603E-02
       N       E                     dE             d eps       ncg     rms          rms(c)
DAV:   1    -0.151205004014E+03    0.11736E-01   -0.61884E+00  2896   0.106E+01    0.330E-01
DAV:   2    -0.151219600125E+03   -0.14596E-01   -0.15954E-01  3168   0.145E+00    0.194E-01
DAV:   3    -0.151218720008E+03    0.88012E-03   -0.15296E-03  3352   0.202E-01    0.129E-01
DAV:   4    -0.151218158272E+03    0.56174E-03   -0.11107E-03  3296   0.191E-01    0.501E-02
DAV:   5    -0.151218008237E+03    0.15004E-03   -0.60011E-04  3288   0.133E-01    0.195E-02
DAV:   6    -0.151217937782E+03    0.70455E-04   -0.14190E-04  3300   0.702E-02    0.138E-02
DAV:   7    -0.151217865189E+03    0.72594E-04   -0.31340E-05  2876   0.723E-02    0.813E-03
DAV:   8    -0.151217787821E+03    0.77367E-04   -0.75128E-05  3496   0.928E-02    0.101E-02
DAV:   9    -0.151217723371E+03    0.64450E-04   -0.41808E-05  2868   0.933E-02    0.884E-03
DAV:  10    -0.151217670047E+03    0.53324E-04   -0.76286E-05  3464   0.130E-01    0.121E-02
DAV:  11    -0.151217642820E+03    0.27227E-04   -0.10649E-04  3696   0.127E-01    0.603E-03
DAV:  12    -0.151217637972E+03    0.48481E-05   -0.10163E-04  3048   0.651E-02    0.956E-03
DAV:  13    -0.151217635661E+03    0.23108E-05   -0.30970E-05  2640   0.302E-02
   8 F= -.15121764E+03 E0= -.15121392E+03  d E =-.417963E-02
       N       E                     dE             d eps       ncg     rms          rms(c)
DAV:   1    -0.151216694101E+03    0.94387E-03   -0.57974E-01  2912   0.325E+00    0.990E-02
DAV:   2    -0.151218029227E+03   -0.13351E-02   -0.14720E-02  3148   0.448E-01    0.561E-02
DAV:   3    -0.151217953638E+03    0.75589E-04   -0.15151E-04  3344   0.650E-02    0.397E-02
DAV:   4    -0.151217892256E+03    0.61382E-04   -0.10519E-04  3372   0.710E-02    0.153E-02
DAV:   5    -0.151217876004E+03    0.16252E-04   -0.73357E-05  3280   0.545E-02    0.862E-03
DAV:   6    -0.151217869884E+03    0.61200E-05   -0.32927E-05  2740   0.347E-02
   9 F= -.15121787E+03 E0= -.15121413E+03  d E =-.441385E-02
       N       E                     dE             d eps       ncg     rms          rms(c)
DAV:   1    -0.151218381899E+03   -0.50589E-03   -0.24035E-01  2896   0.213E+00    0.647E-02
DAV:   2    -0.151218933601E+03   -0.55170E-03   -0.60063E-03  3208   0.295E-01    0.365E-02
DAV:   3    -0.151218908654E+03    0.24947E-04   -0.58815E-05  3368   0.378E-02    0.252E-02
DAV:   4    -0.151218890330E+03    0.18325E-04   -0.55827E-05  3108   0.395E-02    0.909E-03
DAV:   5    -0.151218889150E+03    0.11800E-05   -0.18567E-05  2240   0.245E-02    0.742E-03
DAV:   6    -0.151218887576E+03    0.15738E-05   -0.11940E-05  1916   0.218E-02
  10 F= -.15121889E+03 E0= -.15121516E+03  d E =-.101769E-02
       N       E                     dE             d eps       ncg     rms          rms(c)
DAV:   1    -0.151216585337E+03    0.23038E-02   -0.21557E+00  2872   0.639E+00    0.195E-01
DAV:   2    -0.151221546084E+03   -0.49607E-02   -0.53788E-02  3200   0.879E-01    0.108E-01
DAV:   3    -0.151221326411E+03    0.21967E-03   -0.47076E-04  3408   0.113E-01    0.727E-02
DAV:   4    -0.151221182589E+03    0.14382E-03   -0.45015E-04  3324   0.122E-01    0.229E-02
DAV:   5    -0.151221187000E+03   -0.44119E-05   -0.19716E-04  3260   0.664E-02    0.187E-02
DAV:   6    -0.151221179607E+03    0.73938E-05   -0.44368E-05  2836   0.327E-02
  11 F= -.15122118E+03 E0= -.15121751E+03  d E =-.330972E-02
       N       E                     dE             d eps       ncg     rms          rms(c)
DAV:   1    -0.151203722882E+03    0.17464E-01   -0.86215E+00  2864   0.128E+01    0.394E-01
DAV:   2    -0.151223722783E+03   -0.20000E-01   -0.21731E-01  3192   0.176E+00    0.223E-01
DAV:   3    -0.151222787646E+03    0.93514E-03   -0.19724E-03  3416   0.234E-01    0.146E-01
DAV:   4    -0.151222201090E+03    0.58656E-03   -0.17523E-03  3324   0.244E-01    0.467E-02
DAV:   5    -0.151222205804E+03   -0.47136E-05   -0.76980E-04  3284   0.135E-01    0.343E-02
DAV:   6    -0.151222172230E+03    0.33573E-04   -0.12709E-04  3148   0.593E-02    0.187E-02
DAV:   7    -0.151222142310E+03    0.29920E-04   -0.56152E-06  1996   0.446E-02    0.129E-02
DAV:   8    -0.151222093083E+03    0.49227E-04   -0.18844E-05  2368   0.764E-02    0.631E-03
DAV:   9    -0.151222009404E+03    0.83678E-04   -0.49406E-05  3236   0.154E-01    0.846E-03
DAV:  10    -0.151221937665E+03    0.71739E-04   -0.12910E-04  3892   0.206E-01    0.149E-02
DAV:  11    -0.151221918517E+03    0.19148E-04   -0.15708E-04  3692   0.133E-01    0.901E-03
DAV:  12    -0.151221925426E+03   -0.69091E-05   -0.14335E-04  3036   0.578E-02    0.107E-02
DAV:  13    -0.151221926318E+03   -0.89196E-06   -0.15829E-05  2008   0.151E-02
  12 F= -.15122193E+03 E0= -.15121840E+03  d E =-.405643E-02
       N       E                     dE             d eps       ncg     rms          rms(c)
DAV:   1    -0.151220527879E+03    0.13975E-02   -0.81353E-01  2856   0.389E+00    0.116E-01
DAV:   2    -0.151222330679E+03   -0.18028E-02   -0.19511E-02  3200   0.529E-01    0.639E-02
DAV:   3    -0.151222257998E+03    0.72682E-04   -0.19680E-04  3396   0.694E-02    0.439E-02
DAV:   4    -0.151222209932E+03    0.48065E-04   -0.14877E-04  3248   0.639E-02    0.158E-02
DAV:   5    -0.151222209153E+03    0.77883E-06   -0.57695E-05  3132   0.384E-02    0.107E-02
DAV:   6    -0.151222208990E+03    0.16338E-06   -0.31958E-05  2632   0.302E-02
  13 F= -.15122221E+03 E0= -.15121864E+03  d E =-.433911E-02
       N       E                     dE             d eps       ncg     rms          rms(c)
DAV:   1    -0.151222598935E+03   -0.38978E-03   -0.96833E-01  2856   0.428E+00    0.121E-01
DAV:   2    -0.151224429215E+03   -0.18303E-02   -0.20632E-02  3268   0.581E-01    0.695E-02
DAV:   3    -0.151224312669E+03    0.11655E-03   -0.25601E-04  3392   0.816E-02    0.473E-02
DAV:   4    -0.151224211714E+03    0.10095E-03   -0.24650E-04  3344   0.894E-02    0.174E-02
DAV:   5    -0.151224208607E+03    0.31071E-05   -0.12270E-04  3304   0.590E-02    0.156E-02
DAV:   6    -0.151224206984E+03    0.16238E-05   -0.39407E-05  2780   0.292E-02
  14 F= -.15122421E+03 E0= -.15122067E+03  d E =-.199799E-02
       N       E                     dE             d eps       ncg     rms          rms(c)
DAV:   1    -0.151211129477E+03    0.13079E-01   -0.86995E+00  2856   0.128E+01    0.377E-01
DAV:   2    -0.151227850688E+03   -0.16721E-01   -0.18970E-01  3260   0.176E+00    0.213E-01
DAV:   3    -0.151226806263E+03    0.10444E-02   -0.26264E-03  3380   0.251E-01    0.143E-01
DAV:   4    -0.151225938652E+03    0.86761E-03   -0.21792E-03  3352   0.241E-01    0.563E-02
DAV:   5    -0.151225864956E+03    0.73696E-04   -0.89523E-04  3360   0.173E-01    0.452E-02
DAV:   6    -0.151225843459E+03    0.21497E-04   -0.53037E-04  3284   0.122E-01    0.275E-02
DAV:   7    -0.151225809048E+03    0.34410E-04   -0.93330E-05  3228   0.523E-02    0.126E-02
DAV:   8    -0.151225776229E+03    0.32819E-04   -0.12988E-05  2284   0.676E-02    0.684E-03
DAV:   9    -0.151225757061E+03    0.19168E-04   -0.30257E-05  2568   0.542E-02    0.869E-03
DAV:  10    -0.151225730528E+03    0.26533E-04   -0.63981E-06  2032   0.582E-02    0.477E-03
DAV:  11    -0.151225684626E+03    0.45902E-04   -0.68986E-05  3360   0.136E-01    0.155E-02
DAV:  12    -0.151225664459E+03    0.20167E-04   -0.67060E-05  3440   0.945E-02    0.963E-03
DAV:  13    -0.151225655569E+03    0.88900E-05   -0.61461E-05  3176   0.888E-02
  15 F= -.15122566E+03 E0= -.15122223E+03  d E =-.344658E-02
       N       E                     dE             d eps       ncg     rms          rms(c)
DAV:   1    -0.151224891180E+03    0.77328E-03   -0.60434E-01  2864   0.333E+00    0.103E-01
DAV:   2    -0.151226038178E+03   -0.11470E-02   -0.13140E-02  3252   0.450E-01    0.533E-02
DAV:   3    -0.151225972452E+03    0.65726E-04   -0.21125E-04  3392   0.728E-02    0.352E-02
DAV:   4    -0.151225928789E+03    0.43663E-04   -0.10318E-04  3356   0.533E-02    0.161E-02
DAV:   5    -0.151225917883E+03    0.10906E-04   -0.46952E-05  3252   0.438E-02    0.972E-03
DAV:   6    -0.151225917053E+03    0.82978E-06   -0.34752E-05  2888   0.335E-02
  16 F= -.15122592E+03 E0= -.15122246E+03  d E =-.370806E-02
       N       E                     dE             d eps       ncg     rms          rms(c)
DAV:   1    -0.151225856152E+03    0.61731E-04   -0.10781E+00  2856   0.452E+00    0.132E-01
DAV:   2    -0.151228108827E+03   -0.22527E-02   -0.24400E-02  3196   0.615E-01    0.736E-02
DAV:   3    -0.151228007095E+03    0.10173E-03   -0.22229E-04  3408   0.726E-02    0.509E-02
DAV:   4    -0.151227934972E+03    0.72123E-04   -0.36583E-04  3344   0.107E-01    0.198E-02
DAV:   5    -0.151227938314E+03   -0.33421E-05   -0.11618E-04  3092   0.496E-02    0.218E-02
DAV:   6    -0.151227931910E+03    0.64037E-05   -0.27207E-05  2376   0.246E-02
  17 F= -.15122793E+03 E0= -.15122450E+03  d E =-.201486E-02
       N       E                     dE             d eps       ncg     rms          rms(c)
DAV:   1    -0.151211481906E+03    0.16456E-01   -0.97022E+00  2864   0.136E+01    0.402E-01
DAV:   2    -0.151232108671E+03   -0.20627E-01   -0.22379E-01  3192   0.187E+00    0.227E-01
DAV:   3    -0.151231149150E+03    0.95952E-03   -0.22099E-03  3392   0.229E-01    0.153E-01
DAV:   4    -0.151230485963E+03    0.66319E-03   -0.29453E-03  3368   0.299E-01    0.567E-02
DAV:   5    -0.151230487766E+03   -0.18026E-05   -0.88744E-04  3240   0.147E-01    0.586E-02
DAV:   6    -0.151230420571E+03    0.67195E-04   -0.33025E-04  3128   0.940E-02    0.274E-02
DAV:   7    -0.151230357057E+03    0.63514E-04   -0.47269E-05  3020   0.849E-02    0.166E-02
DAV:   8    -0.151230287816E+03    0.69241E-04   -0.29746E-05  2732   0.921E-02    0.122E-02
DAV:   9    -0.151230165501E+03    0.12231E-03   -0.73323E-05  3852   0.170E-01    0.975E-03
DAV:  10    -0.151230058985E+03    0.10652E-03   -0.11541E-04  3444   0.178E-01    0.169E-02
DAV:  11    -0.151229938869E+03    0.12012E-03   -0.14482E-04  4040   0.280E-01    0.165E-02
DAV:  12    -0.151229908124E+03    0.30745E-04   -0.32661E-04  4396   0.262E-01    0.119E-02
DAV:  13    -0.151229951400E+03   -0.43276E-04   -0.47010E-04  2924   0.686E-02    0.246E-02
DAV:  14    -0.151229951040E+03    0.36047E-06   -0.42285E-06  1816   0.813E-03
  18 F= -.15122995E+03 E0= -.15122652E+03  d E =-.403399E-02
       N       E                     dE             d eps       ncg     rms          rms(c)
DAV:   1    -0.151228806550E+03    0.11449E-02   -0.14132E+00  2920   0.520E+00    0.147E-01
DAV:   2    -0.151231723860E+03   -0.29173E-02   -0.31178E-02  3172   0.703E-01    0.845E-02
DAV:   3    -0.151231572913E+03    0.15095E-03   -0.27623E-04  3448   0.821E-02    0.562E-02
DAV:   4    -0.151231455685E+03    0.11723E-03   -0.34466E-04  3312   0.114E-01    0.146E-02
DAV:   5    -0.151231464019E+03   -0.83345E-05   -0.16571E-04  3216   0.574E-02    0.166E-02
DAV:   6    -0.151231460286E+03    0.37332E-05   -0.16445E-05  1904   0.184E-02
  19 F= -.15123146E+03 E0= -.15122802E+03  d E =-.150925E-02
       N       E                     dE             d eps       ncg     rms          rms(c)
DAV:   1    -0.151209286018E+03    0.22178E-01   -0.12702E+01  2912   0.156E+01    0.448E-01
DAV:   2    -0.151236035316E+03   -0.26749E-01   -0.28664E-01  3168   0.213E+00    0.254E-01
DAV:   3    -0.151234702909E+03    0.13324E-02   -0.27536E-03  3440   0.245E-01    0.170E-01
DAV:   4    -0.151233715157E+03    0.98775E-03   -0.27386E-03  3308   0.316E-01    0.527E-02
DAV:   5    -0.151233717418E+03   -0.22607E-05   -0.13111E-03  3284   0.174E-01    0.497E-02
DAV:   6    -0.151233665174E+03    0.52244E-04   -0.25892E-04  3288   0.759E-02    0.250E-02
DAV:   7    -0.151233597029E+03    0.68145E-04   -0.35137E-05  2556   0.631E-02    0.126E-02
DAV:   8    -0.151233529336E+03    0.67693E-04   -0.21117E-05  2288   0.698E-02    0.875E-03
DAV:   9    -0.151233412583E+03    0.11675E-03   -0.37304E-05  2940   0.146E-01    0.113E-02
DAV:  10    -0.151233272328E+03    0.14025E-03   -0.10901E-04  3796   0.213E-01    0.135E-02
DAV:  11    -0.151233105280E+03    0.16705E-03   -0.35411E-04  4416   0.418E-01    0.242E-02
DAV:  12    -0.151233102114E+03    0.31660E-05   -0.55001E-04  3628   0.249E-01    0.216E-02
DAV:  13    -0.151233118691E+03   -0.16577E-04   -0.39684E-04  3204   0.103E-01    0.158E-02
DAV:  14    -0.151233119634E+03   -0.94278E-06   -0.46732E-05  2928   0.297E-02
  20 F= -.15123312E+03 E0= -.15122971E+03  d E =-.316859E-02
       N       E                     dE             d eps       ncg     rms          rms(c)
DAV:   1    -0.151232509073E+03    0.60962E-03   -0.12170E+00  2904   0.484E+00    0.137E-01
DAV:   2    -0.151235059135E+03   -0.25501E-02   -0.27520E-02  3208   0.662E-01    0.777E-02
DAV:   3    -0.151234939912E+03    0.11922E-03   -0.29929E-04  3432   0.810E-02    0.537E-02
DAV:   4    -0.151234847556E+03    0.92356E-04   -0.27948E-04  3312   0.856E-02    0.200E-02
DAV:   5    -0.151234840028E+03    0.75283E-05   -0.10043E-04  3300   0.550E-02    0.169E-02
DAV:   6    -0.151234834643E+03    0.53850E-05   -0.60288E-05  3004   0.442E-02
  21 F= -.15123483E+03 E0= -.15123146E+03  d E =-.171501E-02
       N       E                     dE             d eps       ncg     rms          rms(c)
DAV:   1    -0.151215417745E+03    0.19422E-01   -0.10943E+01  2896   0.145E+01    0.423E-01
DAV:   2    -0.151238583240E+03   -0.23165E-01   -0.25018E-01  3192   0.200E+00    0.237E-01
DAV:   3    -0.151237441957E+03    0.11413E-02   -0.26892E-03  3432   0.241E-01    0.159E-01
DAV:   4    -0.151236654548E+03    0.78741E-03   -0.25102E-03  3300   0.250E-01    0.561E-02
DAV:   5    -0.151236613787E+03    0.40761E-04   -0.86833E-04  3332   0.153E-01    0.456E-02
DAV:   6    -0.151236589329E+03    0.24458E-04   -0.41055E-04  3320   0.110E-01    0.257E-02
DAV:   7    -0.151236569193E+03    0.20136E-04   -0.73389E-05  2940   0.508E-02    0.181E-02
DAV:   8    -0.151236546287E+03    0.22905E-04   -0.17607E-05  2228   0.424E-02    0.102E-02
DAV:   9    -0.151236526595E+03    0.19693E-04   -0.29128E-05  2632   0.514E-02    0.561E-03
DAV:  10    -0.151236518934E+03    0.76608E-05   -0.17719E-05  2256   0.409E-02
  22 F= -.15123652E+03 E0= -.15123331E+03  d E =-.339930E-02
       N       E                     dE             d eps       ncg     rms          rms(c)
DAV:   1    -0.151235691842E+03    0.83475E-03   -0.12485E+00  2896   0.490E+00    0.137E-01
DAV:   2    -0.151238266773E+03   -0.25749E-02   -0.27526E-02  3184   0.662E-01    0.803E-02
DAV:   3    -0.151238135174E+03    0.13160E-03   -0.23490E-04  3432   0.791E-02    0.542E-02
DAV:   4    -0.151238035336E+03    0.99838E-04   -0.43889E-04  3352   0.132E-01    0.154E-02
DAV:   5    -0.151238048758E+03   -0.13422E-04   -0.18837E-04  3132   0.541E-02    0.213E-02
DAV:   6    -0.151238045459E+03    0.32989E-05   -0.48502E-06  1696   0.982E-03
  23 F= -.15123805E+03 E0= -.15123491E+03  d E =-.152652E-02
       N       E                     dE             d eps       ncg     rms          rms(c)
DAV:   1    -0.151218905583E+03    0.19143E-01   -0.11231E+01  2896   0.147E+01    0.423E-01
DAV:   2    -0.151242220971E+03   -0.23315E-01   -0.25068E-01  3196   0.200E+00    0.242E-01
DAV:   3    -0.151240997680E+03    0.12233E-02   -0.22999E-03  3416   0.243E-01    0.161E-01
DAV:   4    -0.151240040765E+03    0.95691E-03   -0.31887E-03  3376   0.363E-01    0.426E-02
DAV:   5    -0.151240136472E+03   -0.95707E-04   -0.16550E-03  3284   0.165E-01    0.582E-02
DAV:   6    -0.151240095605E+03    0.40867E-04   -0.78051E-05  3092   0.378E-02    0.420E-02
DAV:   7    -0.151240031494E+03    0.64111E-04   -0.22450E-04  3172   0.570E-02    0.187E-02
DAV:   8    -0.151240004979E+03    0.26515E-04   -0.31596E-05  2360   0.455E-02    0.159E-02
DAV:   9    -0.151239972935E+03    0.32044E-04   -0.70333E-05  3144   0.761E-02    0.110E-02
DAV:  10    -0.151239962552E+03    0.10383E-04   -0.80126E-05  3180   0.548E-02    0.153E-02
DAV:  11    -0.151239949997E+03    0.12555E-04   -0.64146E-05  2996   0.379E-02    0.846E-03
DAV:  12    -0.151239937966E+03    0.12031E-04   -0.10602E-05  2076   0.433E-02    0.121E-02
DAV:  13    -0.151239927839E+03    0.10126E-04   -0.18675E-05  2444   0.476E-02    0.826E-03
DAV:  14    -0.151239923099E+03    0.47406E-05   -0.26138E-05  2572   0.469E-02
  24 F= -.15123992E+03 E0= -.15123701E+03  d E =-.340416E-02
       N       E                     dE             d eps       ncg     rms          rms(c)
DAV:   1    -0.151239837596E+03    0.90243E-04   -0.84559E-01  2896   0.402E+00    0.119E-01
DAV:   2    -0.151241620371E+03   -0.17828E-02   -0.19662E-02  3248   0.560E-01    0.729E-02
DAV:   3    -0.151241514257E+03    0.10611E-03   -0.18469E-04  3384   0.702E-02    0.508E-02
DAV:   4    -0.151241450203E+03    0.64055E-04   -0.54224E-04  3364   0.123E-01    0.248E-02
DAV:   5    -0.151241451762E+03   -0.15590E-05   -0.12761E-04  3072   0.497E-02    0.239E-02
DAV:   6    -0.151241446096E+03    0.56659E-05   -0.27985E-05  2532   0.229E-02
  25 F= -.15124145E+03 E0= -.15123858E+03  d E =-.152300E-02
       N       E                     dE             d eps       ncg     rms          rms(c)
DAV:   1    -0.151239859732E+03    0.15920E-02   -0.12067E+00  2896   0.481E+00    0.142E-01
DAV:   2    -0.151242417178E+03   -0.25574E-02   -0.28163E-02  3240   0.670E-01    0.886E-02
DAV:   3    -0.151242259593E+03    0.15759E-03   -0.26200E-04  3368   0.876E-02    0.618E-02
DAV:   4    -0.151242152884E+03    0.10671E-03   -0.78276E-04  3468   0.158E-01    0.302E-02
DAV:   5    -0.151242156769E+03   -0.38856E-05   -0.22382E-04  3128   0.652E-02    0.300E-02
DAV:   6    -0.151242147826E+03    0.89432E-05   -0.32367E-05  2616   0.242E-02
  26 F= -.15124215E+03 E0= -.15123935E+03  d E =-.222473E-02
       N       E                     dE             d eps       ncg     rms          rms(c)
DAV:   1    -0.151242129877E+03    0.26892E-04   -0.49679E-03  2984   0.311E-01    0.136E-02
DAV:   2    -0.151242139486E+03   -0.96092E-05   -0.16283E-04  3308   0.575E-02    0.932E-03
DAV:   3    -0.151242136713E+03    0.27731E-05   -0.10006E-05  1804   0.188E-02    0.699E-03
DAV:   4    -0.151242133165E+03    0.35483E-05   -0.38308E-06  1804   0.149E-02    0.368E-03
DAV:   5    -0.151242128158E+03    0.50068E-05   -0.25131E-06  1936   0.237E-02    0.300E-03
DAV:   6    -0.151242123089E+03    0.50693E-05   -0.31257E-06  1872   0.298E-02
  27 F= -.15124212E+03 E0= -.15123933E+03  d E =-.219999E-02
       N       E                     dE             d eps       ncg     rms          rms(c)
DAV:   1    -0.151242068169E+03    0.59989E-04   -0.19401E-02  2928   0.612E-01    0.182E-02
DAV:   2    -0.151242110686E+03   -0.42517E-04   -0.47331E-04  3260   0.876E-02    0.121E-02
DAV:   3    -0.151242106947E+03    0.37392E-05   -0.44165E-06  1808   0.120E-02    0.850E-03
DAV:   4    -0.151242101814E+03    0.51331E-05   -0.12887E-05  1992   0.245E-02    0.383E-03
DAV:   5    -0.151242101759E+03    0.54669E-07   -0.56358E-06  1660   0.103E-02    0.378E-03
DAV:   6    -0.151242101095E+03    0.66472E-06   -0.48214E-07  1656   0.497E-03
  28 F= -.15124210E+03 E0= -.15123932E+03  d E =-.217800E-02
       N       E                     dE             d eps       ncg     rms          rms(c)
DAV:   1    -0.151242094065E+03    0.76946E-05   -0.77572E-03  2912   0.385E-01    0.146E-02
DAV:   2    -0.151242108670E+03   -0.14605E-04   -0.19546E-04  3256   0.583E-02    0.664E-03
DAV:   3    -0.151242107574E+03    0.10959E-05   -0.55818E-06  1696   0.106E-02    0.466E-03
DAV:   4    -0.151242106396E+03    0.11784E-05   -0.15802E-06  1680   0.741E-03    0.214E-03
DAV:   5    -0.151242105269E+03    0.11273E-05   -0.94833E-07  1716   0.103E-02    0.179E-03
DAV:   6    -0.151242104137E+03    0.11316E-05   -0.58396E-07  1744   0.136E-02
  29 F= -.15124210E+03 E0= -.15123932E+03  d E =-.218104E-02
       N       E                     dE             d eps       ncg     rms          rms(c)
DAV:   1    -0.151242102281E+03    0.29878E-05   -0.77194E-04  2988   0.124E-01    0.429E-03
DAV:   2    -0.151242104779E+03   -0.24980E-05   -0.29593E-05  2576   0.219E-02    0.400E-03
DAV:   3    -0.151242104512E+03    0.26718E-06   -0.89765E-07  1604   0.420E-03    0.278E-03
DAV:   4    -0.151242104158E+03    0.35337E-06   -0.25553E-06  1656   0.673E-03    0.207E-03
DAV:   5    -0.151242104044E+03    0.11395E-06   -0.39312E-07  1584   0.309E-03    0.151E-03
DAV:   6    -0.151242103996E+03    0.48107E-07   -0.12897E-07  1548   0.202E-03
  30 F= -.15124210E+03 E0= -.15123932E+03  d E =-.218090E-02
       N       E                     dE             d eps       ncg     rms          rms(c)
DAV:   1    -0.151242215264E+03   -0.11122E-03   -0.81401E-02  2888   0.125E+00    0.383E-02
DAV:   2    -0.151242376228E+03   -0.16096E-03   -0.19951E-03  3248   0.179E-01    0.227E-02
DAV:   3    -0.151242359863E+03    0.16365E-04   -0.45430E-05  3288   0.372E-02    0.164E-02
DAV:   4    -0.151242347268E+03    0.12596E-04   -0.10469E-05  1980   0.245E-02    0.921E-03
DAV:   5    -0.151242334378E+03    0.12890E-04   -0.19800E-05  2528   0.434E-02    0.468E-03
DAV:   6    -0.151242331606E+03    0.27713E-05   -0.20069E-05  2320   0.331E-02
  31 F= -.15124233E+03 E0= -.15123959E+03  d E =-.227610E-03
       N       E                     dE             d eps       ncg     rms          rms(c)
DAV:   1    -0.151242314444E+03    0.19933E-04   -0.37795E-02  2888   0.855E-01    0.265E-02
DAV:   2    -0.151242388128E+03   -0.73684E-04   -0.95031E-04  3248   0.125E-01    0.154E-02
DAV:   3    -0.151242377907E+03    0.10221E-04   -0.16987E-05  2220   0.265E-02    0.113E-02
DAV:   4    -0.151242365732E+03    0.12175E-04   -0.80149E-06  2016   0.297E-02    0.533E-03
DAV:   5    -0.151242357965E+03    0.77678E-05   -0.14193E-05  2248   0.367E-02    0.353E-03
DAV:   6    -0.151242356301E+03    0.16632E-05   -0.15011E-05  2100   0.281E-02
  32 F= -.15124236E+03 E0= -.15123964E+03  d E =-.252305E-03
       N       E                     dE             d eps       ncg     rms          rms(c)
DAV:   1    -0.151242523767E+03   -0.16580E-03   -0.44980E-02  2864   0.910E-01    0.293E-02
DAV:   2    -0.151242620050E+03   -0.96284E-04   -0.11530E-03  3228   0.128E-01    0.157E-02
DAV:   3    -0.151242614879E+03    0.51715E-05   -0.19720E-05  2232   0.205E-02    0.113E-02
DAV:   4    -0.151242611400E+03    0.34792E-05   -0.71017E-06  1828   0.163E-02    0.547E-03
DAV:   5    -0.151242609599E+03    0.18008E-05   -0.67377E-06  1948   0.185E-02    0.286E-03
DAV:   6    -0.151242609641E+03   -0.42126E-07   -0.43458E-06  1664   0.951E-03
  33 F= -.15124261E+03 E0= -.15123996E+03  d E =-.253339E-03
       N       E                     dE             d eps       ncg     rms          rms(c)
DAV:   1    -0.151242331583E+03    0.27802E-03   -0.40590E-01  2864   0.273E+00    0.901E-02
DAV:   2    -0.151243217776E+03   -0.88619E-03   -0.10598E-02  3192   0.388E-01    0.481E-02
DAV:   3    -0.151243177183E+03    0.40592E-04   -0.20238E-04  3356   0.627E-02    0.353E-02
DAV:   4    -0.151243152213E+03    0.24970E-04   -0.73090E-05  3248   0.420E-02    0.175E-02
DAV:   5    -0.151243140300E+03    0.11914E-04   -0.34934E-05  2708   0.379E-02    0.851E-03
DAV:   6    -0.151243139424E+03    0.87607E-06   -0.22235E-05  2304   0.247E-02
  34 F= -.15124314E+03 E0= -.15124066E+03  d E =-.783122E-03
       N       E                     dE             d eps       ncg     rms          rms(c)
DAV:   1    -0.151239817346E+03    0.33230E-02   -0.16250E+00  2864   0.544E+00    0.179E-01
DAV:   2    -0.151243368092E+03   -0.35507E-02   -0.42507E-02  3192   0.772E-01    0.968E-02
DAV:   3    -0.151243203564E+03    0.16453E-03   -0.75414E-04  3364   0.122E-01    0.699E-02
DAV:   4    -0.151243097743E+03    0.10582E-03   -0.29555E-04  3288   0.855E-02    0.331E-02
DAV:   5    -0.151243058470E+03    0.39274E-04   -0.12582E-04  3348   0.720E-02    0.165E-02
DAV:   6    -0.151243055064E+03    0.34055E-05   -0.91240E-05  3288   0.508E-02
  35 F= -.15124306E+03 E0= -.15124084E+03  d E =-.698763E-03
       N       E                     dE             d eps       ncg     rms          rms(c)
DAV:   1    -0.151242153903E+03    0.90457E-03   -0.57838E-01  2864   0.322E+00    0.104E-01
DAV:   2    -0.151243380201E+03   -0.12263E-02   -0.14809E-02  3176   0.457E-01    0.578E-02
DAV:   3    -0.151243328315E+03    0.51886E-04   -0.29636E-04  3340   0.704E-02    0.435E-02
DAV:   4    -0.151243292238E+03    0.36077E-04   -0.10696E-04  3264   0.485E-02    0.214E-02
DAV:   5    -0.151243278567E+03    0.13671E-04   -0.59735E-05  3132   0.358E-02    0.122E-02
DAV:   6    -0.151243277158E+03    0.14095E-05   -0.26919E-05  2588   0.248E-02
  36 F= -.15124328E+03 E0= -.15124092E+03  d E =-.920856E-03
       N       E                     dE             d eps       ncg     rms          rms(c)
DAV:   1    -0.151243373252E+03   -0.94685E-04   -0.66977E-03  2912   0.356E-01    0.996E-03
DAV:   2    -0.151243385938E+03   -0.12685E-04   -0.16142E-04  3192   0.491E-02    0.682E-03
DAV:   3    -0.151243384844E+03    0.10931E-05   -0.34389E-06  1664   0.784E-03    0.435E-03
DAV:   4    -0.151243384088E+03    0.75651E-06   -0.11397E-06  1652   0.633E-03    0.210E-03
DAV:   5    -0.151243383594E+03    0.49440E-06   -0.99996E-07  1696   0.738E-03    0.970E-04
DAV:   6    -0.151243383486E+03    0.10802E-06   -0.63135E-07  1596   0.467E-03
  37 F= -.15124338E+03 E0= -.15124104E+03  d E =-.106328E-03
       N       E                     dE             d eps       ncg     rms          rms(c)
DAV:   1    -0.151243579443E+03   -0.19585E-03   -0.60740E-02  2896   0.107E+00    0.334E-02
DAV:   2    -0.151243705785E+03   -0.12634E-03   -0.15001E-03  3180   0.149E-01    0.178E-02
DAV:   3    -0.151243698986E+03    0.67985E-05   -0.20479E-05  2396   0.172E-02    0.117E-02
DAV:   4    -0.151243695565E+03    0.34211E-05   -0.12621E-05  1848   0.178E-02    0.424E-03
DAV:   5    -0.151243695573E+03   -0.78417E-08   -0.79321E-06  1596   0.113E-02    0.310E-03
DAV:   6    -0.151243695573E+03    0.36380E-10   -0.85638E-07  1556   0.457E-03
  38 F= -.15124370E+03 E0= -.15124141E+03  d E =-.418415E-03
       N       E                     dE             d eps       ncg     rms          rms(c)
DAV:   1    -0.151243788259E+03   -0.92686E-04   -0.24279E-01  2896   0.214E+00    0.661E-02
DAV:   2    -0.151244290987E+03   -0.50273E-03   -0.59708E-03  3180   0.298E-01    0.360E-02
DAV:   3    -0.151244264277E+03    0.26710E-04   -0.78780E-05  3056   0.345E-02    0.238E-02
DAV:   4    -0.151244247985E+03    0.16292E-04   -0.51168E-05  3132   0.374E-02    0.839E-03
DAV:   5    -0.151244246702E+03    0.12832E-05   -0.25806E-05  2208   0.227E-02    0.593E-03
DAV:   6    -0.151244245795E+03    0.90715E-06   -0.48361E-06  1684   0.136E-02
  39 F= -.15124425E+03 E0= -.15124206E+03  d E =-.968637E-03
       N       E                     dE             d eps       ncg     rms          rms(c)
DAV:   1    -0.151243196215E+03    0.10505E-02   -0.97054E-01  2896   0.428E+00    0.132E-01
DAV:   2    -0.151245200291E+03   -0.20041E-02   -0.23830E-02  3180   0.597E-01    0.722E-02
DAV:   3    -0.151245096383E+03    0.10391E-03   -0.28765E-04  3312   0.694E-02    0.479E-02
DAV:   4    -0.151245021946E+03    0.74437E-04   -0.21485E-04  3328   0.800E-02    0.157E-02
DAV:   5    -0.151245018345E+03    0.36010E-05   -0.99356E-05  3232   0.470E-02    0.130E-02
DAV:   6    -0.151245012962E+03    0.53833E-05   -0.21191E-05  1996   0.274E-02
  40 F= -.15124501E+03 E0= -.15124302E+03  d E =-.173580E-02
       N       E                     dE             d eps       ncg     rms          rms(c)
DAV:   1    -0.151237721456E+03    0.72969E-02   -0.38823E+00  2896   0.857E+00    0.267E-01
DAV:   2    -0.151245820252E+03   -0.80988E-02   -0.95903E-02  3176   0.120E+00    0.147E-01
DAV:   3    -0.151245415037E+03    0.40522E-03   -0.10571E-03  3336   0.141E-01    0.972E-02
DAV:   4    -0.151245095685E+03    0.31935E-03   -0.91493E-04  3320   0.165E-01    0.314E-02
DAV:   5    -0.151245085818E+03    0.98665E-05   -0.35611E-04  3264   0.956E-02    0.260E-02
DAV:   6    -0.151245062200E+03    0.23618E-04   -0.99849E-05  3084   0.569E-02    0.128E-02
DAV:   7    -0.151245034125E+03    0.28075E-04   -0.73144E-06  1988   0.380E-02    0.809E-03
DAV:   8    -0.151244967991E+03    0.66134E-04   -0.13078E-05  2284   0.919E-02    0.633E-03
DAV:   9    -0.151244903801E+03    0.64190E-04   -0.38557E-05  2952   0.108E-01    0.889E-03
DAV:  10    -0.151244779381E+03    0.12442E-03   -0.14174E-04  4004   0.300E-01    0.110E-02
DAV:  11    -0.151244746352E+03    0.33029E-04   -0.32686E-04  4124   0.304E-01    0.680E-03
DAV:  12    -0.151244781619E+03   -0.35266E-04   -0.38215E-04  3020   0.612E-02    0.194E-02
DAV:  13    -0.151244783378E+03   -0.17598E-05   -0.89135E-06  1880   0.115E-02
  41 F= -.15124478E+03 E0= -.15124315E+03  d E =-.150622E-02
       N       E                     dE             d eps       ncg     rms          rms(c)
DAV:   1    -0.151243137393E+03    0.16442E-02   -0.11079E+00  2904   0.456E+00    0.146E-01
DAV:   2    -0.151245416003E+03   -0.22786E-02   -0.27496E-02  3172   0.635E-01    0.773E-02
DAV:   3    -0.151245295746E+03    0.12026E-03   -0.33972E-04  3304   0.802E-02    0.512E-02
DAV:   4    -0.151245209953E+03    0.85793E-04   -0.23440E-04  3364   0.827E-02    0.172E-02
DAV:   5    -0.151245208089E+03    0.18641E-05   -0.10927E-04  3224   0.509E-02    0.141E-02
DAV:   6    -0.151245202627E+03    0.54626E-05   -0.28986E-05  2296   0.299E-02
  42 F= -.15124520E+03 E0= -.15124338E+03  d E =-.192547E-02
       N       E                     dE             d eps       ncg     rms          rms(c)
DAV:   1    -0.151245079683E+03    0.12841E-03   -0.71236E-02  2912   0.116E+00    0.376E-02
DAV:   2    -0.151245223249E+03   -0.14357E-03   -0.17831E-03  3184   0.164E-01    0.194E-02
DAV:   3    -0.151245212436E+03    0.10813E-04   -0.22933E-05  2432   0.250E-02    0.133E-02
DAV:   4    -0.151245196881E+03    0.15554E-04   -0.12114E-05  1988   0.342E-02    0.487E-03
DAV:   5    -0.151245190769E+03    0.61123E-05   -0.13096E-05  1908   0.264E-02    0.441E-03
DAV:   6    -0.151245183401E+03    0.73684E-05   -0.56753E-06  1808   0.307E-02
  43 F= -.15124518E+03 E0= -.15124331E+03  d E =-.190624E-02
       N       E                     dE             d eps       ncg     rms          rms(c)
DAV:   1    -0.151245487275E+03   -0.29651E-03   -0.12599E-01  2864   0.154E+00    0.537E-02
DAV:   2    -0.151245723557E+03   -0.23628E-03   -0.33984E-03  3184   0.220E-01    0.273E-02
DAV:   3    -0.151245705618E+03    0.17938E-04   -0.58206E-05  2768   0.335E-02    0.182E-02
DAV:   4    -0.151245686522E+03    0.19096E-04   -0.34053E-05  2952   0.451E-02    0.719E-03
DAV:   5    -0.151245679221E+03    0.73009E-05   -0.17232E-05  1960   0.321E-02    0.700E-03
DAV:   6    -0.151245667951E+03    0.11270E-04   -0.88610E-06  2024   0.400E-02    0.370E-03
DAV:   7    -0.151245661452E+03    0.64986E-05   -0.11011E-05  1876   0.306E-02
  44 F= -.15124566E+03 E0= -.15124389E+03  d E =-.478051E-03
       N       E                     dE             d eps       ncg     rms          rms(c)
DAV:   1    -0.151244475060E+03    0.11929E-02   -0.10977E+00  2872   0.455E+00    0.153E-01
DAV:   2    -0.151246531585E+03   -0.20565E-02   -0.28891E-02  3176   0.647E-01    0.833E-02
DAV:   3    -0.151246402581E+03    0.12900E-03   -0.46074E-04  3292   0.101E-01    0.559E-02
DAV:   4    -0.151246287606E+03    0.11497E-03   -0.37161E-04  3528   0.132E-01    0.226E-02
DAV:   5    -0.151246272034E+03    0.15573E-04   -0.16592E-04  3284   0.691E-02    0.204E-02
DAV:   6    -0.151246250845E+03    0.21188E-04   -0.40199E-05  2956   0.385E-02    0.100E-02
DAV:   7    -0.151246223077E+03    0.27768E-04   -0.31939E-06  2004   0.478E-02    0.652E-03
DAV:   8    -0.151246182296E+03    0.40781E-04   -0.12373E-05  2244   0.739E-02    0.551E-03
DAV:   9    -0.151246119329E+03    0.62967E-04   -0.43428E-05  3108   0.147E-01    0.685E-03
DAV:  10    -0.151246041917E+03    0.77412E-04   -0.17953E-04  4276   0.327E-01    0.768E-03
DAV:  11    -0.151246060365E+03   -0.18448E-04   -0.29235E-04  3044   0.929E-02    0.890E-03
DAV:  12    -0.151246067393E+03   -0.70274E-05   -0.73582E-05  2772   0.290E-02
  45 F= -.15124607E+03 E0= -.15124453E+03  d E =-.883992E-03
       N       E                     dE             d eps       ncg     rms          rms(c)
DAV:   1    -0.151246026573E+03    0.33793E-04   -0.49399E-02  2908   0.963E-01    0.334E-02
DAV:   2    -0.151246110034E+03   -0.83462E-04   -0.12584E-03  3188   0.141E-01    0.187E-02
DAV:   3    -0.151246104681E+03    0.53535E-05   -0.45181E-05  3064   0.335E-02    0.119E-02
DAV:   4    -0.151246100808E+03    0.38726E-05   -0.72738E-06  1808   0.156E-02    0.708E-03
DAV:   5    -0.151246096250E+03    0.45581E-05   -0.50078E-06  1956   0.257E-02    0.347E-03
DAV:   6    -0.151246094538E+03    0.17117E-05   -0.69524E-06  1960   0.217E-02
  46 F= -.15124609E+03 E0= -.15124452E+03  d E =-.911138E-03
       N       E                     dE             d eps       ncg     rms          rms(c)
DAV:   1    -0.151246366699E+03   -0.27045E-03   -0.10943E-01  2872   0.144E+00    0.460E-02
DAV:   2    -0.151246572509E+03   -0.20581E-03   -0.27750E-03  3204   0.205E-01    0.259E-02
DAV:   3    -0.151246558980E+03    0.13528E-04   -0.37841E-05  2724   0.285E-02    0.176E-02
DAV:   4    -0.151246547459E+03    0.11521E-04   -0.25205E-05  2480   0.342E-02    0.597E-03
DAV:   5    -0.151246546200E+03    0.12591E-05   -0.14437E-05  1836   0.234E-02    0.454E-03
DAV:   6    -0.151246545177E+03    0.10227E-05   -0.51759E-06  1740   0.142E-02
  47 F= -.15124655E+03 E0= -.15124502E+03  d E =-.450639E-03
       N       E                     dE             d eps       ncg     rms          rms(c)
DAV:   1    -0.151245554191E+03    0.99201E-03   -0.98581E-01  2864   0.434E+00    0.140E-01
DAV:   2    -0.151247435587E+03   -0.18814E-02   -0.25205E-02  3204   0.616E-01    0.782E-02
DAV:   3    -0.151247321488E+03    0.11410E-03   -0.35429E-04  3348   0.862E-02    0.530E-02
DAV:   4    -0.151247237317E+03    0.84171E-04   -0.23808E-04  3348   0.923E-02    0.196E-02
DAV:   5    -0.151247230203E+03    0.71140E-05   -0.10080E-04  3232   0.586E-02    0.140E-02
DAV:   6    -0.151247223746E+03    0.64573E-05   -0.37160E-05  2744   0.360E-02
  48 F= -.15124722E+03 E0= -.15124581E+03  d E =-.112921E-02
       N       E                     dE             d eps       ncg     rms          rms(c)
DAV:   1    -0.151247795585E+03   -0.56538E-03   -0.12380E-01  2936   0.152E+00    0.511E-02
DAV:   2    -0.151248009870E+03   -0.21429E-03   -0.30470E-03  3224   0.220E-01    0.276E-02
DAV:   3    -0.151247991521E+03    0.18349E-04   -0.51170E-05  3020   0.365E-02    0.197E-02
DAV:   4    -0.151247970450E+03    0.21071E-04   -0.30581E-05  2620   0.482E-02    0.759E-03
DAV:   5    -0.151247963210E+03    0.72408E-05   -0.29703E-05  2596   0.366E-02    0.719E-03
DAV:   6    -0.151247957244E+03    0.59657E-05   -0.15370E-05  1796   0.249E-02
  49 F= -.15124796E+03 E0= -.15124654E+03  d E =-.733498E-03
       N       E                     dE             d eps       ncg     rms          rms(c)
DAV:   1    -0.151247035089E+03    0.92812E-03   -0.10824E+00  2928   0.450E+00    0.146E-01
DAV:   2    -0.151248916990E+03   -0.18819E-02   -0.26511E-02  3224   0.651E-01    0.819E-02
DAV:   3    -0.151248769483E+03    0.14751E-03   -0.48299E-04  3380   0.983E-02    0.587E-02
DAV:   4    -0.151248634457E+03    0.13503E-03   -0.28665E-04  3320   0.109E-01    0.237E-02
DAV:   5    -0.151248600364E+03    0.34092E-04   -0.17164E-04  3360   0.767E-02    0.192E-02
DAV:   6    -0.151248576471E+03    0.23893E-04   -0.10058E-04  3296   0.538E-02    0.110E-02
DAV:   7    -0.151248555204E+03    0.21266E-04   -0.10503E-05  2008   0.369E-02    0.971E-03
DAV:   8    -0.151248519828E+03    0.35377E-04   -0.85337E-06  2176   0.585E-02    0.730E-03
DAV:   9    -0.151248477835E+03    0.41993E-04   -0.28530E-05  2760   0.830E-02    0.557E-03
DAV:  10    -0.151248427418E+03    0.50418E-04   -0.34076E-05  2764   0.131E-01    0.692E-03
DAV:  11    -0.151248394705E+03    0.32713E-04   -0.89747E-05  3796   0.153E-01    0.650E-03
DAV:  12    -0.151248395820E+03   -0.11155E-05   -0.12305E-04  3052   0.795E-02    0.547E-03
DAV:  13    -0.151248400083E+03   -0.42626E-05   -0.50557E-05  2656   0.252E-02
  50 F= -.15124840E+03 E0= -.15124683E+03  d E =-.117634E-02
       N       E                     dE             d eps       ncg     rms          rms(c)
DAV:   1    -0.151248392352E+03    0.34686E-05   -0.87372E-02  3024   0.128E+00    0.442E-02
DAV:   2    -0.151248539647E+03   -0.14730E-03   -0.21741E-03  3240   0.187E-01    0.239E-02
DAV:   3    -0.151248526015E+03    0.13632E-04   -0.48176E-05  3228   0.326E-02    0.164E-02
DAV:   4    -0.151248515013E+03    0.11002E-04   -0.19242E-05  2024   0.246E-02    0.675E-03
DAV:   5    -0.151248511769E+03    0.32438E-05   -0.10566E-05  1972   0.211E-02    0.478E-03
DAV:   6    -0.151248510069E+03    0.17002E-05   -0.87061E-06  2000   0.216E-02
  51 F= -.15124851E+03 E0= -.15124700E+03  d E =-.128632E-02
       N       E                     dE             d eps       ncg     rms          rms(c)
DAV:   1    -0.151248932639E+03   -0.42087E-03   -0.24655E-02  2888   0.649E-01    0.245E-02
DAV:   2    -0.151248957779E+03   -0.25140E-04   -0.61484E-04  3216   0.951E-02    0.125E-02
DAV:   3    -0.151248953983E+03    0.37963E-05   -0.18333E-05  2488   0.179E-02    0.858E-03
DAV:   4    -0.151248950390E+03    0.35933E-05   -0.53147E-06  1812   0.158E-02    0.403E-03
DAV:   5    -0.151248947556E+03    0.28335E-05   -0.28813E-06  1892   0.177E-02    0.280E-03
DAV:   6    -0.151248944948E+03    0.26083E-05   -0.20490E-06  1736   0.176E-02
  52 F= -.15124894E+03 E0= -.15124739E+03  d E =-.434879E-03
       N       E                     dE             d eps       ncg     rms          rms(c)
DAV:   1    -0.151249596663E+03   -0.64911E-03   -0.22159E-01  2856   0.195E+00    0.746E-02
DAV:   2    -0.151249829894E+03   -0.23323E-03   -0.57071E-03  3224   0.290E-01    0.391E-02
DAV:   3    -0.151249794266E+03    0.35628E-04   -0.19838E-04  3336   0.546E-02    0.272E-02
DAV:   4    -0.151249768168E+03    0.26098E-04   -0.48050E-05  3160   0.378E-02    0.142E-02
DAV:   5    -0.151249744676E+03    0.23492E-04   -0.11313E-05  2120   0.464E-02    0.729E-03
DAV:   6    -0.151249719131E+03    0.25545E-04   -0.10515E-05  2172   0.582E-02    0.498E-03
DAV:   7    -0.151249691245E+03    0.27886E-04   -0.11897E-05  2292   0.685E-02    0.445E-03
DAV:   8    -0.151249611773E+03    0.79471E-04   -0.75403E-05  3336   0.237E-01    0.863E-03
DAV:   9    -0.151249608532E+03    0.32412E-05   -0.14253E-04  3048   0.768E-02    0.697E-03
DAV:  10    -0.151249609025E+03   -0.49243E-06   -0.45503E-05  2668   0.302E-02
  53 F= -.15124961E+03 E0= -.15124784E+03  d E =-.109896E-02
       N       E                     dE             d eps       ncg     rms          rms(c)
DAV:   1    -0.151249647024E+03   -0.38492E-04   -0.17458E-02  2952   0.547E-01    0.216E-02
DAV:   2    -0.151249665276E+03   -0.18252E-04   -0.46754E-04  3236   0.831E-02    0.118E-02
DAV:   3    -0.151249661296E+03    0.39804E-05   -0.15706E-05  2368   0.156E-02    0.791E-03
DAV:   4    -0.151249658350E+03    0.29456E-05   -0.52143E-06  1780   0.132E-02    0.356E-03
DAV:   5    -0.151249656260E+03    0.20901E-05   -0.18052E-06  1768   0.141E-02    0.235E-03
DAV:   6    -0.151249653864E+03    0.23957E-05   -0.91084E-07  1748   0.168E-02
  54 F= -.15124965E+03 E0= -.15124781E+03  d E =-.114380E-02
       N       E                     dE             d eps       ncg     rms          rms(c)
DAV:   1    -0.151250011172E+03   -0.35491E-03   -0.37609E-02  3072   0.843E-01    0.321E-02
DAV:   2    -0.151250069281E+03   -0.58109E-04   -0.10625E-03  3300   0.136E-01    0.207E-02
DAV:   3    -0.151250056961E+03    0.12319E-04   -0.50136E-05  3136   0.345E-02    0.168E-02
DAV:   4    -0.151250048022E+03    0.89398E-05   -0.17862E-05  2116   0.236E-02    0.864E-03
DAV:   5    -0.151250037546E+03    0.10476E-04   -0.14205E-05  2164   0.300E-02    0.420E-03
DAV:   6    -0.151250033675E+03    0.38709E-05   -0.14292E-05  2296   0.258E-02
  55 F= -.15125003E+03 E0= -.15124817E+03  d E =-.379810E-03
       N       E                     dE             d eps       ncg     rms          rms(c)
DAV:   1    -0.151250177250E+03   -0.13970E-03   -0.66553E-02  3016   0.112E+00    0.421E-02
DAV:   2    -0.151250281003E+03   -0.10375E-03   -0.18828E-03  3308   0.182E-01    0.276E-02
DAV:   3    -0.151250257190E+03    0.23813E-04   -0.80393E-05  3312   0.456E-02    0.224E-02
DAV:   4    -0.151250238837E+03    0.18354E-04   -0.34783E-05  2832   0.339E-02    0.113E-02
DAV:   5    -0.151250218556E+03    0.20280E-04   -0.22158E-05  2508   0.432E-02    0.569E-03
DAV:   6    -0.151250210540E+03    0.80158E-05   -0.25876E-05  2576   0.397E-02
  56 F= -.15125021E+03 E0= -.15124831E+03  d E =-.556676E-03
       N       E                     dE             d eps       ncg     rms          rms(c)
DAV:   1    -0.151250303086E+03   -0.84530E-04   -0.59520E-03  3080   0.329E-01    0.130E-02
DAV:   2    -0.151250308162E+03   -0.50760E-05   -0.15241E-04  3332   0.549E-02    0.826E-03
DAV:   3    -0.151250304794E+03    0.33684E-05   -0.81166E-06  1932   0.171E-02    0.652E-03
DAV:   4    -0.151250301445E+03    0.33488E-05   -0.45087E-06  1912   0.150E-02    0.328E-03
DAV:   5    -0.151250298683E+03    0.27622E-05   -0.39286E-06  2032   0.183E-02    0.219E-03
DAV:   6    -0.151250297789E+03    0.89369E-06   -0.47451E-06  1844   0.161E-02
  57 F= -.15125030E+03 E0= -.15124838E+03  d E =-.872491E-04
       N       E                     dE             d eps       ncg     rms          rms(c)
DAV:   1    -0.151250338946E+03   -0.40263E-04   -0.93403E-03  3064   0.413E-01    0.153E-02
DAV:   2    -0.151250350819E+03   -0.11872E-04   -0.24613E-04  3356   0.695E-02    0.106E-02
DAV:   3    -0.151250347057E+03    0.37621E-05   -0.12249E-05  1992   0.194E-02    0.866E-03
DAV:   4    -0.151250343328E+03    0.37281E-05   -0.61184E-06  1872   0.153E-02    0.423E-03
DAV:   5    -0.151250340406E+03    0.29224E-05   -0.56606E-06  2072   0.199E-02    0.298E-03
DAV:   6    -0.151250339837E+03    0.56915E-06   -0.56502E-06  1776   0.164E-02
  58 F= -.15125034E+03 E0= -.15124841E+03  d E =-.129297E-03
       N       E                     dE             d eps       ncg     rms          rms(c)
DAV:   1    -0.151250423425E+03   -0.83019E-04   -0.35346E-03  2936   0.247E-01    0.101E-02
DAV:   2    -0.151250430407E+03   -0.69824E-05   -0.10824E-04  3224   0.407E-02    0.658E-03
DAV:   3    -0.151250429350E+03    0.10571E-05   -0.35014E-06  1716   0.946E-03    0.447E-03
DAV:   4    -0.151250428561E+03    0.78900E-06   -0.17083E-06  1640   0.739E-03    0.205E-03
DAV:   5    -0.151250428087E+03    0.47451E-06   -0.83670E-07  1716   0.704E-03    0.104E-03
DAV:   6    -0.151250427758E+03    0.32841E-06   -0.54478E-07  1684   0.637E-03
  59 F= -.15125043E+03 E0= -.15124848E+03  d E =-.879215E-04
