       N       E                     dE             d eps       ncg     rms          rms(c)
DAV:   1     0.497398543755E+03    0.49740E+03   -0.44609E+04  6296   0.135E+03
DAV:   2    -0.103570854490E+03   -0.60097E+03   -0.57344E+03  8088   0.260E+02
DAV:   3    -0.155778429139E+03   -0.52208E+02   -0.51908E+02  7384   0.832E+01
DAV:   4    -0.156409800797E+03   -0.63137E+00   -0.63031E+00  7312   0.100E+01
DAV:   5    -0.156418892460E+03   -0.90917E-02   -0.90885E-02  7504   0.118E+00    0.229E+01
DAV:   6    -0.141014176310E+03    0.15405E+02   -0.87484E+01  7600   0.321E+01    0.786E+00
DAV:   7    -0.140905565637E+03    0.10861E+00   -0.21940E+00  7072   0.621E+00    0.480E+00
DAV:   8    -0.140832337930E+03    0.73228E-01   -0.81853E-01  7400   0.474E+00    0.132E+00
DAV:   9    -0.140795842309E+03    0.36496E-01   -0.15150E-01  7248   0.169E+00    0.651E-01
DAV:  10    -0.140799737333E+03   -0.38950E-02   -0.12909E-01  7216   0.145E+00    0.476E-01
DAV:  11    -0.140796122076E+03    0.36153E-02   -0.12563E-02  7480   0.538E-01    0.298E-01
DAV:  12    -0.140795708840E+03    0.41324E-03   -0.20274E-02  7312   0.619E-01    0.167E-01
DAV:  13    -0.140795225369E+03    0.48347E-03   -0.21525E-03  8024   0.265E-01    0.939E-02
DAV:  14    -0.140795012620E+03    0.21275E-03   -0.12703E-03  7576   0.176E-01    0.260E-02
DAV:  15    -0.140794796227E+03    0.21639E-03   -0.16388E-04  8880   0.135E-01    0.180E-02
DAV:  16    -0.140794683871E+03    0.11236E-03   -0.15337E-04  7488   0.101E-01    0.179E-02
DAV:  17    -0.140794550241E+03    0.13363E-03   -0.14694E-04  8928   0.147E-01    0.174E-02
DAV:  18    -0.140794466098E+03    0.84143E-04   -0.12127E-04  8344   0.141E-01    0.172E-02
DAV:  19    -0.140794398059E+03    0.68038E-04   -0.21703E-04  9688   0.186E-01    0.165E-02
DAV:  20    -0.140794385296E+03    0.12764E-04   -0.16161E-04  7152   0.910E-02    0.185E-02
DAV:  21    -0.140794366659E+03    0.18636E-04   -0.58613E-05  6872   0.517E-02    0.726E-03
DAV:  22    -0.140794342504E+03    0.24155E-04   -0.23313E-05  5760   0.112E-01    0.561E-03
DAV:  23    -0.140794340923E+03    0.15813E-05   -0.39905E-05  6472   0.604E-02
   1 F= -.14079434E+03 E0= -.14079229E+03  d E =-.140794E+03
       N       E                     dE             d eps       ncg     rms          rms(c)
DAV:   1    -0.140795677313E+03   -0.13348E-02   -0.15165E-02  6656   0.497E-01    0.409E-02
DAV:   2    -0.140795642544E+03    0.34769E-04   -0.12607E-03  7392   0.160E-01    0.372E-02
DAV:   3    -0.140795619651E+03    0.22893E-04   -0.18609E-04  7272   0.558E-02    0.293E-02
DAV:   4    -0.140795601569E+03    0.18082E-04   -0.50298E-05  6944   0.295E-02    0.157E-02
DAV:   5    -0.140795581922E+03    0.19647E-04   -0.40456E-05  6960   0.348E-02    0.757E-03
DAV:   6    -0.140795578689E+03    0.32335E-05   -0.17315E-05  5352   0.252E-02
   2 F= -.14079558E+03 E0= -.14079343E+03  d E =-.123777E-02
       N       E                     dE             d eps       ncg     rms          rms(c)
DAV:   1    -0.140795817781E+03   -0.23586E-03   -0.55371E-03  6632   0.301E-01    0.234E-02
DAV:   2    -0.140795809303E+03    0.84784E-05   -0.48158E-04  7368   0.920E-02    0.233E-02
DAV:   3    -0.140795797831E+03    0.11472E-04   -0.53922E-05  6832   0.307E-02    0.176E-02
DAV:   4    -0.140795787997E+03    0.98341E-05   -0.29067E-05  6288   0.245E-02    0.797E-03
DAV:   5    -0.140795779521E+03    0.84751E-05   -0.17453E-05  5712   0.265E-02    0.668E-03
DAV:   6    -0.140795776652E+03    0.28696E-05   -0.76179E-06  4512   0.153E-02
   3 F= -.14079578E+03 E0= -.14079355E+03  d E =-.143573E-02
       N       E                     dE             d eps       ncg     rms          rms(c)
DAV:   1    -0.140796166968E+03   -0.38745E-03   -0.16148E-01  6336   0.171E+00    0.557E-02
DAV:   2    -0.140796531903E+03   -0.36494E-03   -0.42412E-03  7256   0.240E-01    0.345E-02
DAV:   3    -0.140796504510E+03    0.27394E-04   -0.54322E-05  7456   0.447E-02    0.235E-02
DAV:   4    -0.140796488162E+03    0.16347E-04   -0.30069E-05  6352   0.348E-02    0.110E-02
DAV:   5    -0.140796480419E+03    0.77425E-05   -0.14093E-05  4936   0.317E-02    0.390E-03
DAV:   6    -0.140796479097E+03    0.13226E-05   -0.14641E-05  4312   0.199E-02
   4 F= -.14079648E+03 E0= -.14079424E+03  d E =-.702445E-03
       N       E                     dE             d eps       ncg     rms          rms(c)
DAV:   1    -0.140795768935E+03    0.71148E-03   -0.64364E-01  6288   0.342E+00    0.113E-01
DAV:   2    -0.140797254004E+03   -0.14851E-02   -0.17139E-02  7240   0.480E-01    0.687E-02
DAV:   3    -0.140797144371E+03    0.10963E-03   -0.18726E-04  7488   0.864E-02    0.466E-02
DAV:   4    -0.140797079769E+03    0.64602E-04   -0.13752E-04  7368   0.752E-02    0.202E-02
DAV:   5    -0.140797061409E+03    0.18360E-04   -0.70046E-05  7280   0.551E-02    0.744E-03
DAV:   6    -0.140797056165E+03    0.52437E-05   -0.28019E-05  5944   0.297E-02
   5 F= -.14079706E+03 E0= -.14079477E+03  d E =-.127951E-02
       N       E                     dE             d eps       ncg     rms          rms(c)
DAV:   1    -0.140797235540E+03   -0.17413E-03   -0.18981E-01  6464   0.193E+00    0.613E-02
DAV:   2    -0.140797676489E+03   -0.44095E-03   -0.48354E-03  7136   0.273E-01    0.342E-02
DAV:   3    -0.140797649674E+03    0.26816E-04   -0.51683E-05  7344   0.419E-02    0.236E-02
DAV:   4    -0.140797628529E+03    0.21144E-04   -0.51590E-05  6816   0.475E-02    0.836E-03
DAV:   5    -0.140797625735E+03    0.27939E-05   -0.24141E-05  5808   0.304E-02    0.702E-03
DAV:   6    -0.140797623795E+03    0.19401E-05   -0.12727E-05  4272   0.221E-02
   6 F= -.14079762E+03 E0= -.14079532E+03  d E =-.567630E-03
       N       E                     dE             d eps       ncg     rms          rms(c)
DAV:   1    -0.140795867459E+03    0.17583E-02   -0.10530E+00  6416   0.455E+00    0.142E-01
DAV:   2    -0.140798307857E+03   -0.24404E-02   -0.26873E-02  7168   0.645E-01    0.820E-02
DAV:   3    -0.140798147338E+03    0.16052E-03   -0.27322E-04  7464   0.945E-02    0.577E-02
DAV:   4    -0.140798006851E+03    0.14049E-03   -0.32365E-04  7528   0.114E-01    0.208E-02
DAV:   5    -0.140797984763E+03    0.22088E-04   -0.15670E-04  7376   0.714E-02    0.174E-02
DAV:   6    -0.140797970065E+03    0.14698E-04   -0.67579E-05  6640   0.458E-02    0.804E-03
DAV:   7    -0.140797953662E+03    0.16403E-04   -0.70220E-06  4744   0.359E-02    0.630E-03
DAV:   8    -0.140797942320E+03    0.11341E-04   -0.14325E-05  5200   0.329E-02    0.492E-03
DAV:   9    -0.140797933261E+03    0.90596E-05   -0.12111E-05  4840   0.318E-02
   7 F= -.14079793E+03 E0= -.14079559E+03  d E =-.877096E-03
       N       E                     dE             d eps       ncg     rms          rms(c)
DAV:   1    -0.140797868393E+03    0.73928E-04   -0.59510E-02  6544   0.108E+00    0.356E-02
DAV:   2    -0.140798010879E+03   -0.14249E-03   -0.15638E-03  7128   0.154E-01    0.195E-02
DAV:   3    -0.140798001236E+03    0.96431E-05   -0.14007E-05  4856   0.260E-02    0.131E-02
DAV:   4    -0.140797992967E+03    0.82691E-05   -0.25631E-05  6008   0.386E-02    0.414E-03
DAV:   5    -0.140797993032E+03   -0.64479E-07   -0.12952E-05  4128   0.174E-02    0.439E-03
DAV:   6    -0.140797992490E+03    0.54199E-06   -0.24504E-06  3880   0.758E-03
   8 F= -.14079799E+03 E0= -.14079567E+03  d E =-.936324E-03
       N       E                     dE             d eps       ncg     rms          rms(c)
DAV:   1    -0.140798067875E+03   -0.74844E-04   -0.16323E-01  6368   0.180E+00    0.537E-02
DAV:   2    -0.140798423154E+03   -0.35528E-03   -0.38893E-03  7176   0.252E-01    0.300E-02
DAV:   3    -0.140798404089E+03    0.19066E-04   -0.42459E-05  7048   0.323E-02    0.212E-02
DAV:   4    -0.140798387751E+03    0.16338E-04   -0.41904E-05  6744   0.335E-02    0.815E-03
DAV:   5    -0.140798384598E+03    0.31531E-05   -0.12532E-05  4360   0.240E-02    0.679E-03
DAV:   6    -0.140798381265E+03    0.33326E-05   -0.91468E-06  4600   0.263E-02
   9 F= -.14079838E+03 E0= -.14079603E+03  d E =-.388776E-03
       N       E                     dE             d eps       ncg     rms          rms(c)
DAV:   1    -0.140796696128E+03    0.16885E-02   -0.10428E+00  6352   0.456E+00    0.135E-01
DAV:   2    -0.140798973581E+03   -0.22775E-02   -0.24741E-02  7144   0.632E-01    0.761E-02
DAV:   3    -0.140798847730E+03    0.12585E-03   -0.23309E-04  7472   0.770E-02    0.527E-02
DAV:   4    -0.140798740912E+03    0.10682E-03   -0.29025E-04  7336   0.898E-02    0.192E-02
DAV:   5    -0.140798726934E+03    0.13979E-04   -0.91100E-05  7168   0.569E-02    0.162E-02
DAV:   6    -0.140798709010E+03    0.17923E-04   -0.49380E-05  6352   0.547E-02    0.754E-03
DAV:   7    -0.140798692202E+03    0.16808E-04   -0.12202E-05  4760   0.470E-02    0.734E-03
DAV:   8    -0.140798674042E+03    0.18159E-04   -0.76102E-06  4440   0.442E-02    0.554E-03
DAV:   9    -0.140798640397E+03    0.33645E-04   -0.15330E-05  5096   0.805E-02    0.570E-03
DAV:  10    -0.140798609357E+03    0.31040E-04   -0.45308E-05  7112   0.104E-01    0.937E-03
DAV:  11    -0.140798594843E+03    0.14513E-04   -0.55438E-05  7280   0.964E-02    0.725E-03
DAV:  12    -0.140798595329E+03   -0.48544E-06   -0.63945E-05  6704   0.691E-02
  10 F= -.14079860E+03 E0= -.14079618E+03  d E =-.602839E-03
       N       E                     dE             d eps       ncg     rms          rms(c)
DAV:   1    -0.140798812580E+03   -0.21774E-03   -0.90642E-02  6432   0.134E+00    0.392E-02
DAV:   2    -0.140799001701E+03   -0.18912E-03   -0.20648E-03  7168   0.182E-01    0.228E-02
DAV:   3    -0.140798992628E+03    0.90727E-05   -0.27887E-05  5856   0.287E-02    0.157E-02
DAV:   4    -0.140798985556E+03    0.70725E-05   -0.15121E-05  4344   0.253E-02    0.654E-03
DAV:   5    -0.140798983364E+03    0.21921E-05   -0.85794E-06  4256   0.224E-02    0.471E-03
DAV:   6    -0.140798981594E+03    0.17695E-05   -0.70169E-06  4192   0.213E-02
  11 F= -.14079898E+03 E0= -.14079654E+03  d E =-.386265E-03
       N       E                     dE             d eps       ncg     rms          rms(c)
DAV:   1    -0.140797866594E+03    0.11168E-02   -0.81614E-01  6288   0.402E+00    0.122E-01
DAV:   2    -0.140799622887E+03   -0.17563E-02   -0.19227E-02  7136   0.553E-01    0.670E-02
DAV:   3    -0.140799533927E+03    0.88959E-04   -0.20615E-04  7440   0.778E-02    0.461E-02
DAV:   4    -0.140799454425E+03    0.79503E-04   -0.20860E-04  7296   0.920E-02    0.182E-02
DAV:   5    -0.140799438421E+03    0.16004E-04   -0.90593E-05  7112   0.581E-02    0.176E-02
DAV:   6    -0.140799417397E+03    0.21024E-04   -0.52528E-05  6536   0.474E-02    0.842E-03
DAV:   7    -0.140799399362E+03    0.18035E-04   -0.66163E-06  4288   0.366E-02    0.730E-03
DAV:   8    -0.140799361716E+03    0.37646E-04   -0.12296E-05  4928   0.704E-02    0.467E-03
DAV:   9    -0.140799320468E+03    0.41248E-04   -0.38885E-05  6656   0.927E-02    0.668E-03
DAV:  10    -0.140799274822E+03    0.45646E-04   -0.40008E-05  6768   0.141E-01    0.676E-03
DAV:  11    -0.140799258542E+03    0.16280E-04   -0.11086E-04  8760   0.151E-01    0.702E-03
DAV:  12    -0.140799270311E+03   -0.11769E-04   -0.13486E-04  6496   0.486E-02    0.105E-02
DAV:  13    -0.140799270404E+03   -0.93347E-07   -0.10975E-05  4600   0.147E-02
  12 F= -.14079927E+03 E0= -.14079669E+03  d E =-.675076E-03
       N       E                     dE             d eps       ncg     rms          rms(c)
DAV:   1    -0.140799227150E+03    0.43161E-04   -0.48857E-02  6408   0.990E-01    0.320E-02
DAV:   2    -0.140799330175E+03   -0.10302E-03   -0.11775E-03  7144   0.142E-01    0.158E-02
DAV:   3    -0.140799326104E+03    0.40706E-05   -0.21781E-05  5128   0.239E-02    0.115E-02
DAV:   4    -0.140799322360E+03    0.37445E-05   -0.10418E-05  4184   0.188E-02    0.487E-03
DAV:   5    -0.140799320629E+03    0.17313E-05   -0.42460E-06  4200   0.171E-02    0.416E-03
DAV:   6    -0.140799319243E+03    0.13858E-05   -0.33565E-06  4136   0.170E-02
  13 F= -.14079932E+03 E0= -.14079676E+03  d E =-.723914E-03
       N       E                     dE             d eps       ncg     rms          rms(c)
DAV:   1    -0.140799585147E+03   -0.26452E-03   -0.82659E-02  6440   0.127E+00    0.352E-02
DAV:   2    -0.140799739086E+03   -0.15394E-03   -0.17534E-03  7264   0.172E-01    0.214E-02
DAV:   3    -0.140799726202E+03    0.12884E-04   -0.19413E-05  5208   0.263E-02    0.148E-02
DAV:   4    -0.140799715144E+03    0.11058E-04   -0.24446E-05  5992   0.341E-02    0.511E-03
DAV:   5    -0.140799714509E+03    0.63491E-06   -0.16779E-05  4400   0.214E-02    0.416E-03
DAV:   6    -0.140799714496E+03    0.13093E-07   -0.36933E-06  4032   0.801E-03
  14 F= -.14079971E+03 E0= -.14079713E+03  d E =-.395253E-03
       N       E                     dE             d eps       ncg     rms          rms(c)
DAV:   1    -0.140799055883E+03    0.65863E-03   -0.74403E-01  6368   0.382E+00    0.109E-01
DAV:   2    -0.140800442643E+03   -0.13868E-02   -0.15876E-02  7256   0.520E-01    0.632E-02
DAV:   3    -0.140800327099E+03    0.11554E-03   -0.21003E-04  7488   0.843E-02    0.432E-02
DAV:   4    -0.140800236569E+03    0.90530E-04   -0.18263E-04  7416   0.900E-02    0.167E-02
DAV:   5    -0.140800225008E+03    0.11561E-04   -0.12613E-04  7376   0.638E-02    0.132E-02
DAV:   6    -0.140800224041E+03    0.96644E-06   -0.36377E-05  5944   0.268E-02
  15 F= -.14080022E+03 E0= -.14079757E+03  d E =-.904798E-03
       N       E                     dE             d eps       ncg     rms          rms(c)
DAV:   1    -0.140800397060E+03   -0.17205E-03   -0.17933E-01  6288   0.187E+00    0.574E-02
DAV:   2    -0.140800769225E+03   -0.37217E-03   -0.40847E-03  7160   0.261E-01    0.311E-02
DAV:   3    -0.140800747958E+03    0.21267E-04   -0.47068E-05  6312   0.329E-02    0.214E-02
DAV:   4    -0.140800734667E+03    0.13291E-04   -0.53311E-05  6712   0.423E-02    0.753E-03
DAV:   5    -0.140800733898E+03    0.76910E-06   -0.20715E-05  4928   0.219E-02    0.691E-03
DAV:   6    -0.140800732992E+03    0.90611E-06   -0.37678E-06  4104   0.955E-03
  16 F= -.14080073E+03 E0= -.14079806E+03  d E =-.508950E-03
       N       E                     dE             d eps       ncg     rms          rms(c)
DAV:   1    -0.140798508426E+03    0.22255E-02   -0.16139E+00  6304   0.562E+00    0.164E-01
DAV:   2    -0.140801821719E+03   -0.33133E-02   -0.36389E-02  7232   0.779E-01    0.939E-02
DAV:   3    -0.140801619495E+03    0.20222E-03   -0.44047E-04  7488   0.108E-01    0.656E-02
DAV:   4    -0.140801465155E+03    0.15434E-03   -0.39713E-04  7296   0.131E-01    0.247E-02
DAV:   5    -0.140801440365E+03    0.24791E-04   -0.23879E-04  7400   0.894E-02    0.222E-02
DAV:   6    -0.140801433529E+03    0.68360E-05   -0.72325E-05  6816   0.370E-02
  17 F= -.14080143E+03 E0= -.14079869E+03  d E =-.120949E-02
       N       E                     dE             d eps       ncg     rms          rms(c)
DAV:   1    -0.140801398020E+03    0.42345E-04   -0.35067E-01  6328   0.258E+00    0.783E-02
DAV:   2    -0.140802081320E+03   -0.68330E-03   -0.76506E-03  7216   0.353E-01    0.433E-02
DAV:   3    -0.140802030824E+03    0.50495E-04   -0.76005E-05  6944   0.526E-02    0.293E-02
DAV:   4    -0.140801988701E+03    0.42123E-04   -0.10189E-04  7240   0.768E-02    0.106E-02
DAV:   5    -0.140801980807E+03    0.78949E-05   -0.75209E-05  6936   0.468E-02    0.947E-03
DAV:   6    -0.140801974994E+03    0.58124E-05   -0.11563E-05  4216   0.173E-02
  18 F= -.14080197E+03 E0= -.14079921E+03  d E =-.541465E-03
       N       E                     dE             d eps       ncg     rms          rms(c)
DAV:   1    -0.140800349606E+03    0.16312E-02   -0.11324E+00  6304   0.464E+00    0.134E-01
DAV:   2    -0.140802561612E+03   -0.22120E-02   -0.24500E-02  7192   0.633E-01    0.769E-02
DAV:   3    -0.140802425650E+03    0.13596E-03   -0.26481E-04  7488   0.809E-02    0.530E-02
DAV:   4    -0.140802332217E+03    0.93434E-04   -0.32136E-04  7248   0.105E-01    0.189E-02
DAV:   5    -0.140802323624E+03    0.85930E-05   -0.14522E-04  7160   0.582E-02    0.156E-02
DAV:   6    -0.140802316863E+03    0.67605E-05   -0.28072E-05  5800   0.248E-02
  19 F= -.14080232E+03 E0= -.14079952E+03  d E =-.883334E-03
       N       E                     dE             d eps       ncg     rms          rms(c)
DAV:   1    -0.140802079500E+03    0.24412E-03   -0.34530E-01  6344   0.263E+00    0.794E-02
DAV:   2    -0.140802727828E+03   -0.64833E-03   -0.77820E-03  7216   0.370E-01    0.448E-02
DAV:   3    -0.140802684906E+03    0.42922E-04   -0.17169E-04  7464   0.609E-02    0.328E-02
DAV:   4    -0.140802659316E+03    0.25589E-04   -0.80295E-05  7096   0.402E-02    0.158E-02
DAV:   5    -0.140802647193E+03    0.12124E-04   -0.29775E-05  6408   0.377E-02    0.983E-03
DAV:   6    -0.140802643755E+03    0.34381E-05   -0.22460E-05  5256   0.358E-02
  20 F= -.14080264E+03 E0= -.14079984E+03  d E =-.326892E-03
       N       E                     dE             d eps       ncg     rms          rms(c)
DAV:   1    -0.140802643799E+03    0.33936E-05   -0.34212E-03  6408   0.262E-01    0.841E-03
DAV:   2    -0.140802647929E+03   -0.41295E-05   -0.67446E-05  6976   0.355E-02    0.590E-03
DAV:   3    -0.140802647224E+03    0.70490E-06   -0.31602E-06  3936   0.772E-03    0.345E-03
DAV:   4    -0.140802646852E+03    0.37141E-06   -0.57954E-07  3800   0.576E-03    0.199E-03
DAV:   5    -0.140802646534E+03    0.31779E-06   -0.67856E-07  3968   0.726E-03    0.951E-04
DAV:   6    -0.140802646490E+03    0.44774E-07   -0.65509E-07  3520   0.398E-03
  21 F= -.14080265E+03 E0= -.14079985E+03  d E =-.329627E-03
       N       E                     dE             d eps       ncg     rms          rms(c)
DAV:   1    -0.140802710361E+03   -0.63827E-04   -0.52549E-02  6680   0.101E+00    0.291E-02
DAV:   2    -0.140802785695E+03   -0.75334E-04   -0.11114E-03  7336   0.143E-01    0.199E-02
DAV:   3    -0.140802770930E+03    0.14766E-04   -0.21647E-05  5336   0.268E-02    0.146E-02
DAV:   4    -0.140802754291E+03    0.16639E-04   -0.19665E-05  5576   0.297E-02    0.675E-03
DAV:   5    -0.140802746220E+03    0.80707E-05   -0.14637E-05  4712   0.284E-02    0.461E-03
DAV:   6    -0.140802738007E+03    0.82128E-05   -0.23280E-05  5672   0.453E-02
  22 F= -.14080274E+03 E0= -.14079992E+03  d E =-.915177E-04
