 vasp.5.3.5 31Mar14 (build Apr 08 2024 10:12:10) complex                        
  
 executed on             LinuxIFC date 2024.07.29  13:29:43
 running on    8 total cores
 distrk:  each k-point on    8 cores,    1 groups
 distr:  one band on NCORES_PER_BAND=   4 cores,    2 groups


--------------------------------------------------------------------------------------------------------


 INCAR:
 POTCAR:    PAW_PBE O 08Apr2002                   
 POTCAR:    PAW_PBE Mg 13Apr2007                  
 POTCAR:    PAW_PBE Al 04Jan2001                  
 POTCAR:    PAW_PBE O 08Apr2002                   
   VRHFIN =O: s2p4                                                              
   LEXCH  = PE                                                                  
   EATOM  =   432.3788 eV,   31.7789 Ry                                         
                                                                                
   TITEL  = PAW_PBE O 08Apr2002                                                 
   LULTRA =        F    use ultrasoft PP ?                                      
   IUNSCR =        1    unscreen: 0-lin 1-nonlin 2-no                           
   RPACOR =    1.200    partial core radius                                     
   POMASS =   16.000; ZVAL   =    6.000    mass and valenz                      
   RCORE  =    1.520    outmost cutoff radius                                   
   RWIGS  =    1.550; RWIGS  =    0.820    wigner-seitz radius (au A)           
   ENMAX  =  400.000; ENMIN  =  300.000 eV                                      
   ICORE  =        2    local potential                                         
   LCOR   =        T    correct aug charges                                     
   LPAW   =        T    paw PP                                                  
   EAUG   =  605.392                                                            
   DEXC   =    0.000                                                            
   RMAX   =    1.553    core radius for proj-oper                               
   RAUG   =    1.300    factor for augmentation sphere                          
   RDEP   =    1.550    radius for radial grids                                 
   RDEPT  =    1.329    core radius for aug-charge                              
                                                                                
   Atomic configuration                                                         
    4 entries                                                                   
     n  l   j            E        occ.                                          
     1  0  0.50      -514.6923   2.0000                                         
     2  0  0.50       -23.9615   2.0000                                         
     2  1  0.50        -9.0305   4.0000                                         
     3  2  1.50        -9.5241   0.0000                                         
   Description                                                                  
     l       E           TYP  RCUT    TYP  RCUT                                 
     0    -23.9615318     23  1.200                                             
     0     -9.5240782     23  1.200                                             
     1     -9.0304911     23  1.520                                             
     1      8.1634956     23  1.520                                             
     2     -9.5240782      7  1.500                                             
  local pseudopotential read in
  partial core-charges read in
  partial kinetic energy density read in
  kinetic energy density of atom read in
  atomic valenz-charges read in
  non local Contribution for L=           0  read in
    real space projection operators read in
  non local Contribution for L=           0  read in
    real space projection operators read in
  non local Contribution for L=           1  read in
    real space projection operators read in
  non local Contribution for L=           1  read in
    real space projection operators read in
    PAW grid and wavefunctions read in
 
   number of l-projection  operators is LMAX  =           4
   number of lm-projection operators is LMMAX =           8
 
 POTCAR:    PAW_PBE Mg 13Apr2007                  
   VRHFIN =Mg: s2p0                                                             
   LEXCH  = PE                                                                  
   EATOM  =    23.0369 eV,    1.6932 Ry                                         
                                                                                
   TITEL  = PAW_PBE Mg 13Apr2007                                                
   LULTRA =        F    use ultrasoft PP ?                                      
   IUNSCR =        1    unscreen: 0-lin 1-nonlin 2-no                           
   RPACOR =    1.500    partial core radius                                     
   POMASS =   24.305; ZVAL   =    2.000    mass and valenz                      
   RCORE  =    2.000    outmost cutoff radius                                   
   RWIGS  =    2.880; RWIGS  =    1.524    wigner-seitz radius (au A)           
   ENMAX  =  200.000; ENMIN  =  100.000 eV                                      
   RCLOC  =    1.506    cutoff for local pot                                    
   LCOR   =        T    correct aug charges                                     
   LPAW   =        T    paw PP                                                  
   EAUG   =  454.734                                                            
   DEXC   =    0.000                                                            
   RMAX   =    2.045    core radius for proj-oper                               
   RAUG   =    1.300    factor for augmentation sphere                          
   RDEP   =    2.025    radius for radial grids                                 
   RDEPT  =    1.942    core radius for aug-charge                              
                                                                                
   Atomic configuration                                                         
    6 entries                                                                   
     n  l   j            E        occ.                                          
     1  0  0.50     -1259.6230   2.0000                                         
     2  0  0.50       -79.8442   2.0000                                         
     2  1  1.50       -46.6121   6.0000                                         
     3  0  0.50        -4.7055   2.0000                                         
     3  1  0.50        -1.3660   0.0000                                         
     3  2  1.50        -1.3606   0.0000                                         
   Description                                                                  
     l       E           TYP  RCUT    TYP  RCUT                                 
     0     -4.7054661     23  2.000                                             
     0     27.2116520     23  2.000                                             
     1      1.3605826     23  2.000                                             
     1     27.2116520     23  2.000                                             
     2     -1.3605826     23  2.000                                             
  local pseudopotential read in
  partial core-charges read in
  partial kinetic energy density read in
  atomic valenz-charges read in
  non local Contribution for L=           0  read in
    real space projection operators read in
  non local Contribution for L=           0  read in
    real space projection operators read in
  non local Contribution for L=           1  read in
    real space projection operators read in
  non local Contribution for L=           1  read in
    real space projection operators read in
  non local Contribution for L=           2  read in
    real space projection operators read in
    PAW grid and wavefunctions read in
 
   number of l-projection  operators is LMAX  =           5
   number of lm-projection operators is LMMAX =          13
 
 POTCAR:    PAW_PBE Al 04Jan2001                  
   VRHFIN =Al: s2p1                                                             
   LEXCH  = PE                                                                  
   EATOM  =    53.5387 eV,    3.9350 Ry                                         
                                                                                
   TITEL  = PAW_PBE Al 04Jan2001                                                
   LULTRA =        F    use ultrasoft PP ?                                      
   IUNSCR =        1    unscreen: 0-lin 1-nonlin 2-no                           
   RPACOR =    1.500    partial core radius                                     
   POMASS =   26.981; ZVAL   =    3.000    mass and valenz                      
   RCORE  =    1.900    outmost cutoff radius                                   
   RWIGS  =    2.650; RWIGS  =    1.402    wigner-seitz radius (au A)           
   ENMAX  =  240.300; ENMIN  =  180.225 eV                                      
   ICORE  =        2    local potential                                         
   LCOR   =        T    correct aug charges                                     
   LPAW   =        T    paw PP                                                  
   EAUG   =  291.052                                                            
   DEXC   =    0.000                                                            
   RMAX   =    1.939    core radius for proj-oper                               
   RAUG   =    1.300    factor for augmentation sphere                          
   RDEP   =    1.966    radius for radial grids                                 
   RDEPT  =    1.856    core radius for aug-charge                              
                                                                                
   Atomic configuration                                                         
    6 entries                                                                   
     n  l   j            E        occ.                                          
     1  0  0.50     -1511.1048   2.0000                                         
     2  0  0.50      -108.1629   2.0000                                         
     2  1  1.50       -69.6402   6.0000                                         
     3  0  0.50        -7.7528   2.0000                                         
     3  1  1.50        -2.7121   1.0000                                         
     3  2  2.50        -2.7212   0.0000                                         
   Description                                                                  
     l       E           TYP  RCUT    TYP  RCUT                                 
     0     -7.7528455     23  1.900                                             
     0     -3.3096929     23  1.900                                             
     1     -2.7120682     23  1.900                                             
     1     13.6058260     23  1.900                                             
     2     -2.7211652      7  1.900                                             
  local pseudopotential read in
  partial core-charges read in
  partial kinetic energy density read in
  atomic valenz-charges read in
  non local Contribution for L=           0  read in
    real space projection operators read in
  non local Contribution for L=           0  read in
    real space projection operators read in
  non local Contribution for L=           1  read in
    real space projection operators read in
  non local Contribution for L=           1  read in
    real space projection operators read in
    PAW grid and wavefunctions read in
 
   number of l-projection  operators is LMAX  =           4
   number of lm-projection operators is LMMAX =           8
 

 ----------------------------------------------------------------------------- 
|                                                                             |
|  ADVICE TO THIS USER RUNNING 'VASP/VAMP'   (HEAR YOUR MASTER'S VOICE ...):  |
|                                                                             |
|      You have a (more or less) 'large supercell' and for larger cells       |
|      it might be more efficient to use real space projection opertators     |
|      So try LREAL= Auto  in the INCAR   file.                               |
|      Mind: At the moment your POTCAR file does not contain real space       |
|       projectors, and has to be modified,  BUT if you                       |
|      want to do an extremely  accurate calculation you might also keep the  |
|      reciprocal projection scheme          (i.e. LREAL=.FALSE.)             |
|                                                                             |
 ----------------------------------------------------------------------------- 

  PAW_PBE O 08Apr2002                   :
 energy of atom  1       EATOM= -432.3788
 kinetic energy error for atom=    0.0208 (will be added to EATOM!!)
  PAW_PBE Mg 13Apr2007                  :
 energy of atom  2       EATOM=  -23.0369
 kinetic energy error for atom=    0.0000 (will be added to EATOM!!)
  PAW_PBE Al 04Jan2001                  :
 energy of atom  3       EATOM=  -53.5387
 kinetic energy error for atom=    0.0002 (will be added to EATOM!!)
 
 
 POSCAR: OT hollow                               
  positions in direct lattice
  velocities in cartesian coordinates
 exchange correlation table for  LEXCH =        8
   RHO(1)=    0.500       N(1)  =     2000
   RHO(2)=  100.500       N(2)  =     4000
 


--------------------------------------------------------------------------------------------------------


 ion  position               nearest neighbor table
   1  0.506  0.494  0.243-  21 2.10  21 2.10  14 2.10  14 2.15  14 2.15
   2  0.506  0.494  0.432-  16 2.12  16 2.12  15 2.12  15 2.12  16 2.16  15 2.16
   3  0.494  0.506  0.620-  17 2.12  17 2.12  18 2.12  18 2.12  18 2.16  17 2.16
   4  0.494  0.506  0.809-  24 2.10  24 2.10  19 2.10  19 2.15  19 2.15
   5  0.848  0.152  0.306-  14 2.12  14 2.12  11 2.12  11 2.12  11 2.16  14 2.17
   6  0.177  0.823  0.369-  11 2.12  11 2.12  15 2.12  15 2.12  15 2.16  11 2.16
   7  0.835  0.165  0.495-  16 2.12  16 2.12  12 2.12  12 2.12  16 2.16  12 2.16
   8  0.165  0.835  0.558-  17 2.12  17 2.12  12 2.12  12 2.12  17 2.16  12 2.16
   9  0.823  0.177  0.683-  13 2.12  13 2.12  18 2.12  18 2.12  18 2.16  13 2.16
  10  0.152  0.848  0.746-  19 2.12  19 2.12  13 2.12  13 2.12  13 2.16  19 2.17
  11  0.512  0.488  0.337-   6 2.12   6 2.12   5 2.12   5 2.12   6 2.16   5 2.16  15 3.06  15 3.06
                            14 3.06  14 3.06  14 3.06  15 3.07
  12  0.500  0.500  0.526-   7 2.12   7 2.12   8 2.12   8 2.12   7 2.16   8 2.16  16 3.06  16 3.06
                            17 3.06  17 3.06  16 3.07  17 3.07
  13  0.488  0.512  0.715-   9 2.12   9 2.12  10 2.12  10 2.12   9 2.16  10 2.16  18 3.06  18 3.06
                            19 3.06  19 3.06  19 3.06  18 3.07
  14  0.184  0.816  0.274-   1 2.10   5 2.12   5 2.12   1 2.15   1 2.15   5 2.17  21 2.93  11 3.06
                            11 3.06  11 3.06  21 3.50  21 3.50
  15  0.841  0.159  0.400-   2 2.12   2 2.12   6 2.12   6 2.12   2 2.16   6 2.16  16 3.06  16 3.06
                            11 3.06  11 3.06  16 3.07  11 3.07
  16  0.171  0.829  0.463-   2 2.12   2 2.12   7 2.12   7 2.12   7 2.16   2 2.16  12 3.06  12 3.06
                            15 3.06  15 3.06  15 3.07  12 3.07
  17  0.829  0.171  0.589-   3 2.12   3 2.12   8 2.12   8 2.12   8 2.16   3 2.16  12 3.06  12 3.06
                            18 3.06  18 3.06  18 3.07  12 3.07
  18  0.159  0.841  0.652-   3 2.12   3 2.12   9 2.12   9 2.12   3 2.16   9 2.16  17 3.06  17 3.06
                            13 3.06  13 3.06  17 3.07  13 3.07
  19  0.816  0.184  0.778-   4 2.10  10 2.12  10 2.12   4 2.15   4 2.15  10 2.17  24 2.93  13 3.06
                            13 3.06  13 3.06  24 3.50  24 3.50
  20  0.000  1.000  0.026-  25 2.97  25 2.97  23 2.97  23 2.97  23 2.98  25 2.98
  21  0.989  0.011  0.206-   1 2.10   1 2.10  22 2.86  14 2.93  22 2.95  22 2.95  14 3.50  14 3.50

  22  0.682  0.318  0.147-  21 2.86  21 2.95  21 2.95  23 2.96  23 2.96  23 3.06
  23  0.331  0.669  0.086-  22 2.96  22 2.96  20 2.97  20 2.97  20 2.98  22 3.06
  24  0.011  0.989  0.846-   4 2.10   4 2.10  26 2.86  19 2.93  26 2.95  26 2.95  19 3.50  19 3.50

  25  0.669  0.331  0.966-  26 2.96  26 2.96  20 2.97  20 2.97  20 2.98  26 3.06
  26  0.318  0.682  0.905-  24 2.86  24 2.95  24 2.95  25 2.96  25 2.96  25 3.06
 
  LATTYP: Found a base centered monoclinic cell.
 ALAT       =     5.2353752010
 B/A-ratio  =     0.5612349741
 C/A-ratio  =     7.7449213461
 COS(beta)  =    -0.1107328417
  
  Lattice vectors:
  
 A1 = (  -2.5811541393,   1.5324138014,  -0.0027477724)
 A2 = (  -0.0365325771,   3.0015513009,  -0.0027477717)
 A3 = (   2.5954821263,  -4.4955056313, -40.2139188035)


Analysis of symmetry for initial positions (statically):
=====================================================================
 Subroutine PRICEL returns:
 Original cell was already a primitive cell.
 

 Routine SETGRP: Setting up the symmetry group for a 
 base centered monoclinic supercell.


 Subroutine GETGRP returns: Found  2 space group operations
 (whereof  2 operations were pure point group operations)
 out of a pool of  4 trial point group operations.


The static configuration has the point symmetry C_1h.


Analysis of symmetry for dynamics (positions and initial velocities):
=====================================================================
 Subroutine PRICEL returns:
 Original cell was already a primitive cell.
 

 Routine SETGRP: Setting up the symmetry group for a 
 base centered monoclinic supercell.


 Subroutine GETGRP returns: Found  2 space group operations
 (whereof  2 operations were pure point group operations)
 out of a pool of  4 trial point group operations.


The dynamic configuration has the point symmetry C_1h.


Analysis of constrained symmetry for selective dynamics:
=====================================================================
 Subroutine PRICEL returns:
 Original cell was already a primitive cell.
 

 Routine SETGRP: Setting up the symmetry group for a 
 base centered monoclinic supercell.


 Subroutine GETGRP returns: Found  2 space group operations
 (whereof  2 operations were pure point group operations)
 out of a pool of  4 trial point group operations.


The constrained configuration has the point symmetry C_1h.
 
 
 KPOINTS: K-Spacing Value to Generate K-Mesh: 0.02

Automatic generation of k-mesh.
Space group operators:
 irot       det(A)        alpha          n_x          n_y          n_z        tau_x        tau_y        tau_z
    1     1.000000     0.000000     1.000000     0.000000     0.000000     0.000000     0.000000     0.000000
    2    -1.000000   180.000000     0.866025     0.500000     0.000000     0.000000     0.000000     0.000000
 
 Subroutine IBZKPT returns following result:
 ===========================================
 
 Found     49 irreducible k-points:
 
 Following reciprocal coordinates:
            Coordinates               Weight
  0.000000  0.000000  0.000000      1.000000
  0.076923 -0.000000 -0.000000      4.000000
  0.153846 -0.000000 -0.000000      4.000000
  0.230769 -0.000000  0.000000      4.000000
  0.307692 -0.000000 -0.000000      4.000000
  0.384615 -0.000000  0.000000      4.000000
  0.461538 -0.000000  0.000000      4.000000
  0.076923  0.076923 -0.000000      2.000000
  0.153846  0.076923 -0.000000      4.000000
  0.230769  0.076923 -0.000000      4.000000
  0.307692  0.076923  0.000000      4.000000
  0.384615  0.076923 -0.000000      4.000000
  0.461538  0.076923 -0.000000      4.000000
 -0.461538  0.076923  0.000000      4.000000
 -0.384615  0.076923 -0.000000      4.000000
 -0.307692  0.076923  0.000000      4.000000
 -0.230769  0.076923 -0.000000      4.000000
 -0.153846  0.076923 -0.000000      4.000000
 -0.076923  0.076923 -0.000000      2.000000
  0.153846  0.153846 -0.000000      2.000000
  0.230769  0.153846 -0.000000      4.000000
  0.307692  0.153846 -0.000000      4.000000
  0.384615  0.153846  0.000000      4.000000
  0.461538  0.153846 -0.000000      4.000000
 -0.461538  0.153846 -0.000000      4.000000
 -0.384615  0.153846 -0.000000      4.000000
 -0.307692  0.153846  0.000000      4.000000
 -0.230769  0.153846 -0.000000      4.000000
 -0.153846  0.153846 -0.000000      2.000000
  0.230769  0.230769 -0.000000      2.000000
  0.307692  0.230769 -0.000000      4.000000
  0.384615  0.230769 -0.000000      4.000000
  0.461538  0.230769 -0.000000      4.000000
 -0.461538  0.230769  0.000000      4.000000
 -0.384615  0.230769 -0.000000      4.000000
 -0.307692  0.230769 -0.000000      4.000000
 -0.230769  0.230769 -0.000000      2.000000
  0.307692  0.307692 -0.000000      2.000000
  0.384615  0.307692 -0.000000      4.000000
  0.461538  0.307692 -0.000000      4.000000
 -0.461538  0.307692  0.000000      4.000000
 -0.384615  0.307692 -0.000000      4.000000
 -0.307692  0.307692  0.000000      2.000000
  0.384615  0.384615 -0.000000      2.000000
  0.461538  0.384615 -0.000000      4.000000
 -0.461538  0.384615 -0.000000      4.000000
 -0.384615  0.384615 -0.000000      2.000000
  0.461538  0.461538 -0.000000      2.000000
 -0.461538  0.461538 -0.000000      2.000000
 
 Following cartesian coordinates:
            Coordinates               Weight
  0.000000  0.000000  0.000000      1.000000
  0.030019  0.000365 -0.000016      4.000000
  0.060037  0.000731 -0.000032      4.000000
  0.090056  0.001096 -0.000049      4.000000
  0.120075  0.001461 -0.000065      4.000000
  0.150094  0.001827 -0.000081      4.000000
  0.180112  0.002192 -0.000097      4.000000
  0.045345  0.026180  0.000000      2.000000
  0.075363  0.026545 -0.000016      4.000000
  0.105382  0.026910 -0.000032      4.000000
  0.135401  0.027276 -0.000049      4.000000
  0.165419  0.027641 -0.000065      4.000000
  0.195438  0.028006 -0.000081      4.000000
 -0.164787  0.023622  0.000114      4.000000
 -0.134768  0.023988  0.000097      4.000000
 -0.104749  0.024353  0.000081      4.000000
 -0.074730  0.024718  0.000065      4.000000
 -0.044712  0.025084  0.000049      4.000000
 -0.014693  0.025449  0.000032      2.000000
  0.090689  0.052359  0.000000      2.000000
  0.120708  0.052725 -0.000016      4.000000
  0.150726  0.053090 -0.000032      4.000000
  0.180745  0.053455 -0.000049      4.000000
  0.210764  0.053821 -0.000065      4.000000
 -0.149461  0.049437  0.000130      4.000000
 -0.119442  0.049802  0.000114      4.000000
 -0.089423  0.050167  0.000097      4.000000
 -0.059405  0.050533  0.000081      4.000000
 -0.029386  0.050898  0.000065      2.000000
  0.136034  0.078539  0.000000      2.000000
  0.166052  0.078904 -0.000016      4.000000
  0.196071  0.079270 -0.000032      4.000000
  0.226090  0.079635 -0.000049      4.000000
 -0.134135  0.075251  0.000146      4.000000
 -0.104116  0.075616  0.000130      4.000000
 -0.074098  0.075982  0.000114      4.000000
 -0.044079  0.076347  0.000097      2.000000
  0.181378  0.104719  0.000000      2.000000
  0.211397  0.105084 -0.000016      4.000000
  0.241416  0.105449 -0.000032      4.000000
 -0.118809  0.101065  0.000162      4.000000
 -0.088791  0.101431  0.000146      4.000000
 -0.058772  0.101796  0.000130      2.000000
  0.226723  0.130898  0.000000      2.000000
  0.256741  0.131264 -0.000016      4.000000
 -0.103484  0.126880  0.000178      4.000000
 -0.073465  0.127245  0.000162      2.000000
  0.272067  0.157078  0.000000      2.000000
 -0.088158  0.152694  0.000195      2.000000
 


--------------------------------------------------------------------------------------------------------




 Dimension of arrays:
   k-points           NKPTS =     49   k-points in BZ     NKDIM =     49   number of bands    NBANDS=     64
   number of dos      NEDOS =    301   number of ions     NIONS =     26
   non local maximal  LDIM  =      5   non local SUM 2l+1 LMDIM =     13
   total plane-waves  NPLWV = 172800
   max r-space proj   IRMAX =      1   max aug-charges    IRDMAX= 190010
   dimension x,y,z NGX =    24 NGY =   24 NGZ =  300
   dimension x,y,z NGXF=    48 NGYF=   48 NGZF=  600
   support grid    NGXF=    96 NGYF=   96 NGZF= 1200
   ions per type =              10   9   7
 NGX,Y,Z   is equivalent  to a cutoff of  13.29, 13.29, 12.40 a.u.
 NGXF,Y,Z  is equivalent  to a cutoff of  26.58, 26.58, 24.80 a.u.


 I would recommend the setting:
   dimension x,y,z NGX =    22 NGY =   22 NGZ =  299
 SYSTEM =  unknown system                          
 POSCAR =  OT hollow                               

 Startparameter for this run:
   NWRITE =      2    write-flag & timer
   PREC   = accura    normal or accurate (medium, high low for compatibility)
   ISTART =      0    job   : 0-new  1-cont  2-samecut
   ICHARG =      2    charge: 1-file 2-atom 10-const
   ISPIN  =      1    spin polarized calculation?
   LNONCOLLINEAR =      F non collinear calculations
   LSORBIT =      F    spin-orbit coupling
   INIWAV =      1    electr: 0-lowe 1-rand  2-diag
   LASPH  =      F    aspherical Exc in radial PAW
   METAGGA=      F    non-selfconsistent MetaGGA calc.

 Electronic Relaxation 1
   ENCUT  =  520.0 eV  38.22 Ry    6.18 a.u.   5.58  5.58 74.78*2*pi/ulx,y,z
   ENINI  =  520.0     initial cutoff
   ENAUG  =  605.4 eV  augmentation charge cutoff
   NELM   =    100;   NELMIN=  6; NELMDL=  0     # of ELM steps 
   EDIFF  = 0.1E-04   stopping-criterion for ELM
   LREAL  =      F    real-space projection
   NLSPLINE    = F    spline interpolate recip. space projectors
   LCOMPAT=      F    compatible to vasp.4.4
   GGA_COMPAT  = T    GGA compatible to vasp.4.4-vasp.4.6
   LMAXPAW     = -100 max onsite density
   LMAXMIX     =    2 max onsite mixed and CHGCAR
   VOSKOWN=      0    Vosko Wilk Nusair interpolation
   ROPT   =    0.00000   0.00000   0.00000
 Ionic relaxation
   EDIFFG = -.2E-01   stopping-criterion for IOM
   NSW    =    500    number of steps for IOM
   NBLOCK =      1;   KBLOCK =    500    inner block; outer block 
   IBRION =      2    ionic relax: 0-MD 1-quasi-New 2-CG
   NFREE  =      1    steps in history (QN), initial steepest desc. (CG)
   ISIF   =      2    stress and relaxation
   IWAVPR =     11    prediction:  0-non 1-charg 2-wave 3-comb
   ISYM   =      2    0-nonsym 1-usesym 2-fastsym
   LCORR  =      T    Harris-Foulkes like correction to forces

   POTIM  = 0.5000    time-step for ionic-motion
   TEIN   =    0.0    initial temperature
   TEBEG  =    0.0;   TEEND  =   0.0 temperature during run
   SMASS  =  -3.00    Nose mass-parameter (am)
   estimated Nose-frequenzy (Omega)   =  0.10E-29 period in steps =****** mass=  -0.206E-27a.u.
   SCALEE = 1.0000    scale energy and forces
   NPACO  =    256;   APACO  = 16.0  distance and # of slots for P.C.
   PSTRESS=    0.0 pullay stress

  Mass of Ions in am
   POMASS =  16.00 24.30 26.98
  Ionic Valenz
   ZVAL   =   6.00  2.00  3.00
  Atomic Wigner-Seitz radii
   RWIGS  =  -1.00 -1.00 -1.00
  virtual crystal weights 
   VCA    =   1.00  1.00  1.00
   NELECT =      99.0000    total number of electrons
   NUPDOWN=      -1.0000    fix difference up-down

 DOS related values:
   EMIN   =  10.00;   EMAX   =-10.00  energy-range for DOS
   EFERMI =   0.00
   ISMEAR =     0;   SIGMA  =   0.05  broadening in eV -4-tet -1-fermi 0-gaus

 Electronic relaxation 2 (details)
   IALGO  =     38    algorithm
   LDIAG  =      T    sub-space diagonalisation (order eigenvalues)
   LSUBROT=      F    optimize rotation matrix (better conditioning)
   TURBO    =      0    0=normal 1=particle mesh
   IRESTART =      0    0=no restart 2=restart with 2 vectors
   NREBOOT  =      0    no. of reboots
   NMIN     =      0    reboot dimension
   EREF     =   0.00    reference energy to select bands
   IMIX   =      4    mixing-type and parameters
     AMIX     =   0.40;   BMIX     =  1.00
     AMIX_MAG =   1.60;   BMIX_MAG =  1.00
     AMIN     =   0.01
     WC   =   100.;   INIMIX=   1;  MIXPRE=   1;  MAXMIX= -45

 Intra band minimization:
   WEIMIN = 0.0010     energy-eigenvalue tresh-hold
   EBREAK =  0.39E-07  absolut break condition
   DEPER  =   0.30     relativ break condition  

   TIME   =   0.40     timestep for ELM

  volume/ion in A,a.u.               =      11.90        80.29
  Fermi-wavevector in a.u.,A,eV,Ry     =   1.119794  2.116104 17.060868  1.253938
  Thomas-Fermi vector in A             =   2.256436
 
 Write flags
   LWAVE  =      F    write WAVECAR
   LCHARG =      T    write CHGCAR
   LVTOT  =      F    write LOCPOT, total local potential
   LVHAR  =      F    write LOCPOT, Hartree potential only
   LELF   =      F    write electronic localiz. function (ELF)
   LORBIT =      0    0 simple, 1 ext, 2 COOP (PROOUT)


 Dipole corrections
   LMONO  =      F    monopole corrections only (constant potential shift)
   LDIPOL =      F    correct potential (dipole corrections)
   IDIPOL =      0    1-x, 2-y, 3-z, 4-all directions 
   EPSILON=  1.0000000 bulk dielectric constant

 Exchange correlation treatment:
   GGA     =    --    GGA type
   LEXCH   =     8    internal setting for exchange type
   VOSKOWN=      0    Vosko Wilk Nusair interpolation
   LHFCALC =     F    Hartree Fock is set to
   LHFONE  =     F    Hartree Fock one center treatment
   AEXX    =    0.0000 exact exchange contribution

 Linear response parameters
   LEPSILON=     F    determine dielectric tensor
   LRPA    =     F    only Hartree local field effects (RPA)
   LNABLA  =     F    use nabla operator in PAW spheres
   LVEL    =     F    velocity operator in full k-point grid
   LINTERFAST=   F  fast interpolation
   KINTER  =     0    interpolate to denser k-point grid
   CSHIFT  =0.1000    complex shift for real part using Kramers Kronig
   OMEGAMAX=  -1.0    maximum frequency
   DEG_THRESHOLD= 0.2000000E-02 threshold for treating states as degnerate
   RTIME   =    0.100 relaxation time in fs

 Orbital magnetization related:
   ORBITALMAG=     F  switch on orbital magnetization
   LCHIMAG   =     F  perturbation theory with respect to B field
   DQ        =  0.001000  dq finite difference perturbation B field



--------------------------------------------------------------------------------------------------------


 conjugate gradient relaxation of ions
   using selective dynamics as specified on POSCAR
 charge density and potential will be updated during run
 non-spin polarized calculation
 Variant of blocked Davidson
 Davidson routine will perform the subspace rotation
 perform sub-space diagonalisation
    after iterative eigenvector-optimisation
 modified Broyden-mixing scheme, WC =      100.0
 initial mixing is a Kerker type mixing with AMIX =  0.4000 and BMIX =      1.0000
 Hartree-type preconditioning will be used
 using additional bands           14
 reciprocal scheme for non local part
 use partial core corrections
 calculate Harris-corrections to forces 
   (improved forces if not selfconsistent)
 use gradient corrections 
 use of overlap-Matrix (Vanderbilt PP)
 Gauss-broadening in eV      SIGMA  =   0.05


--------------------------------------------------------------------------------------------------------


  energy-cutoff  :      520.00
  volume of cell :      309.35
      direct lattice vectors                 reciprocal lattice vectors
     2.581154139 -1.532413801  0.002747772     0.390243590  0.004749552 -0.000210906
    -0.036532577  3.001551301 -0.002747772     0.199235030  0.335586184  0.000210906
     0.022204590 -0.038459471 40.219414348    -0.000013050  0.000022603  0.024863643

  length of vectors
     3.001775525  3.001774874 40.219438865     0.390272549  0.390272634  0.024863657


 
 k-points in units of 2pi/SCALE and weight: K-Spacing Value to Generate K-Mesh: 0.02
   0.00000000  0.00000000  0.00000000       0.006
   0.03001874  0.00036535 -0.00001622       0.024
   0.06003748  0.00073070 -0.00003245       0.024
   0.09005621  0.00109605 -0.00004867       0.024
   0.12007495  0.00146140 -0.00006489       0.024
   0.15009369  0.00182675 -0.00008112       0.024
   0.18011243  0.00219210 -0.00009734       0.024
   0.04534451  0.02617967  0.00000000       0.012
   0.07536325  0.02654502 -0.00001622       0.024
   0.10538198  0.02691037 -0.00003245       0.024
   0.13540072  0.02727572 -0.00004867       0.024
   0.16541946  0.02764107 -0.00006489       0.024
   0.19543820  0.02800642 -0.00008112       0.024
  -0.16478665  0.02362222  0.00011357       0.024
  -0.13476792  0.02398757  0.00009734       0.024
  -0.10474918  0.02435292  0.00008112       0.024
  -0.07473044  0.02471827  0.00006489       0.024
  -0.04471170  0.02508362  0.00004867       0.024
  -0.01469297  0.02544897  0.00003245       0.012
   0.09068902  0.05235934  0.00000000       0.012
   0.12070776  0.05272469 -0.00001622       0.024
   0.15072649  0.05309004 -0.00003245       0.024
   0.18074523  0.05345539 -0.00004867       0.024
   0.21076397  0.05382074 -0.00006489       0.024
  -0.14946088  0.04943654  0.00012979       0.024
  -0.11944215  0.04980189  0.00011357       0.024
  -0.08942341  0.05016724  0.00009734       0.024
  -0.05940467  0.05053259  0.00008112       0.024
  -0.02938593  0.05089794  0.00006489       0.012
   0.13603353  0.07853902  0.00000000       0.012
   0.16605227  0.07890437 -0.00001622       0.024
   0.19607100  0.07926972 -0.00003245       0.024
   0.22608974  0.07963507 -0.00004867       0.024
  -0.13413511  0.07525086  0.00014601       0.024
  -0.10411637  0.07561621  0.00012979       0.024
  -0.07409764  0.07598156  0.00011357       0.024
  -0.04407890  0.07634692  0.00009734       0.012
   0.18137804  0.10471869  0.00000000       0.012
   0.21139677  0.10508404 -0.00001622       0.024
   0.24141551  0.10544939 -0.00003245       0.024
  -0.11880934  0.10106519  0.00016224       0.024
  -0.08879060  0.10143054  0.00014601       0.024
  -0.05877186  0.10179589  0.00012979       0.012
   0.22672255  0.13089836  0.00000000       0.012
   0.25674128  0.13126371 -0.00001622       0.024
  -0.10348357  0.12687951  0.00017846       0.024
  -0.07346483  0.12724486  0.00016224       0.012
   0.27206706  0.15707803  0.00000000       0.012
  -0.08815780  0.15269383  0.00019468       0.012
 
 k-points in reciprocal lattice and weights: K-Spacing Value to Generate K-Mesh: 0.02
   0.00000000  0.00000000  0.00000000       0.006
   0.07692308 -0.00000000 -0.00000000       0.024
   0.15384615 -0.00000000 -0.00000000       0.024
   0.23076923 -0.00000000  0.00000000       0.024
   0.30769231 -0.00000000 -0.00000000       0.024
   0.38461538 -0.00000000  0.00000000       0.024
   0.46153846 -0.00000000  0.00000000       0.024
   0.07692308  0.07692308 -0.00000000       0.012
   0.15384615  0.07692308 -0.00000000       0.024
   0.23076923  0.07692308 -0.00000000       0.024
   0.30769231  0.07692308  0.00000000       0.024
   0.38461538  0.07692308 -0.00000000       0.024
   0.46153846  0.07692308 -0.00000000       0.024
  -0.46153846  0.07692308  0.00000000       0.024
  -0.38461538  0.07692308 -0.00000000       0.024
  -0.30769231  0.07692308  0.00000000       0.024
  -0.23076923  0.07692308 -0.00000000       0.024
  -0.15384615  0.07692308 -0.00000000       0.024
  -0.07692308  0.07692308 -0.00000000       0.012
   0.15384615  0.15384615 -0.00000000       0.012
   0.23076923  0.15384615 -0.00000000       0.024
   0.30769231  0.15384615 -0.00000000       0.024
   0.38461538  0.15384615  0.00000000       0.024
   0.46153846  0.15384615 -0.00000000       0.024
  -0.46153846  0.15384615 -0.00000000       0.024
  -0.38461538  0.15384615 -0.00000000       0.024
  -0.30769231  0.15384615  0.00000000       0.024
  -0.23076923  0.15384615 -0.00000000       0.024
  -0.15384615  0.15384615 -0.00000000       0.012
   0.23076923  0.23076923 -0.00000000       0.012
   0.30769231  0.23076923 -0.00000000       0.024
   0.38461538  0.23076923 -0.00000000       0.024
   0.46153846  0.23076923 -0.00000000       0.024
  -0.46153846  0.23076923  0.00000000       0.024
  -0.38461538  0.23076923 -0.00000000       0.024
  -0.30769231  0.23076923 -0.00000000       0.024
  -0.23076923  0.23076923 -0.00000000       0.012
   0.30769231  0.30769231 -0.00000000       0.012
   0.38461538  0.30769231 -0.00000000       0.024
   0.46153846  0.30769231 -0.00000000       0.024
  -0.46153846  0.30769231  0.00000000       0.024
  -0.38461538  0.30769231 -0.00000000       0.024
  -0.30769231  0.30769231  0.00000000       0.012
   0.38461538  0.38461538 -0.00000000       0.012
   0.46153846  0.38461538 -0.00000000       0.024
  -0.46153846  0.38461538 -0.00000000       0.024
  -0.38461538  0.38461538 -0.00000000       0.012
   0.46153846  0.46153846 -0.00000000       0.012
  -0.46153846  0.46153846 -0.00000000       0.012
 
 position of ions in fractional coordinates (direct lattice) 
   0.50575438  0.49424562  0.24294330
   0.50598065  0.49401935  0.43161831
   0.49400192  0.50599808  0.62045220
   0.49426507  0.50573493  0.80914650
   0.84784352  0.15215648  0.30564511
   0.17674169  0.82325831  0.36864193
   0.83529437  0.16470563  0.49455646
   0.16467819  0.83532181  0.55750758
   0.82324966  0.17675034  0.68343068
   0.15213717  0.84786283  0.74642823
   0.51225895  0.48774105  0.33716556
   0.49999453  0.50000547  0.52603036
   0.48773879  0.51226121  0.71491860
   0.18436146  0.81563854  0.27417017
   0.84135538  0.15864462  0.40013317
   0.17059530  0.82940470  0.46308685
   0.82939738  0.17060262  0.58897820
   0.15863810  0.84136190  0.65193132
   0.81564344  0.18435656  0.77791693
   0.00002549  0.99997451  0.02603516
   0.98939512  0.01060488  0.20581018
   0.68164986  0.31835014  0.14714985
   0.33070738  0.66929262  0.08631162
   0.01060516  0.98939484  0.84627522
   0.66933156  0.33066844  0.96575903
   0.31835547  0.68164453  0.90492447
 
 position of ions in cartesian coordinates  (Angst):
   1.29276841  0.69913510  9.77106907
   1.29755016  0.69085287 17.35946839
   1.27038658  0.73790156 24.95419105
   1.27526530  0.72945138 32.54336688
   2.18964286 -0.85429657 12.29477889
   0.43430735  2.18603286 14.82478588
   2.16098782 -0.80466459 19.89261388
   0.40692257  2.23346467 22.42078576
   2.13365241 -0.75731829 27.48895825
   0.37828899  2.28305946 30.01899468
   1.31188750  0.66601988 13.56066876
   1.28397674  0.71436272 21.15663279
   1.25608924  0.76266527 28.75353999
   0.45215581  2.15511842 11.02522899
   2.17475703 -0.82851356 16.09499755
   0.42031512  2.21026810 18.62327171
   2.14764795 -0.78155928 23.69016859
   0.39320814  2.25721875 26.21841998
   2.11583976 -0.72646589 31.28909811
  -0.03588775  3.00043443  1.04437120
   2.55796382 -1.49224700  8.28025441
   1.75108061 -0.09468468  5.91927888
   0.83107225  1.49881609  3.47047257
   0.01001960  2.92092059 34.03400429
   1.73701204 -0.07031721 38.84319334
   0.81691579  1.52333578 36.39453396
 


--------------------------------------------------------------------------------------------------------


 k-point  1 :   0.0000 0.0000 0.0000  plane waves:    8461
 k-point  2 :   0.0769-0.0000-0.0000  plane waves:    8449
 k-point  3 :   0.1538-0.0000-0.0000  plane waves:    8403
 k-point  4 :   0.2308-0.0000 0.0000  plane waves:    8343
 k-point  5 :   0.3077-0.0000-0.0000  plane waves:    8340
 k-point  6 :   0.3846-0.0000 0.0000  plane waves:    8311
 k-point  7 :   0.4615-0.0000 0.0000  plane waves:    8263
 k-point  8 :   0.0769 0.0769-0.0000  plane waves:    8425
 k-point  9 :   0.1538 0.0769-0.0000  plane waves:    8359
 k-point 10 :   0.2308 0.0769-0.0000  plane waves:    8337
 k-point 11 :   0.3077 0.0769 0.0000  plane waves:    8315
 k-point 12 :   0.3846 0.0769-0.0000  plane waves:    8262
 k-point 13 :   0.4615 0.0769-0.0000  plane waves:    8253
 k-point 14 :  -0.4615 0.0769 0.0000  plane waves:    8303
 k-point 15 :  -0.3846 0.0769-0.0000  plane waves:    8330
 k-point 16 :  -0.3077 0.0769 0.0000  plane waves:    8371
 k-point 17 :  -0.2308 0.0769-0.0000  plane waves:    8388
 k-point 18 :  -0.1538 0.0769-0.0000  plane waves:    8424
 k-point 19 :  -0.0769 0.0769-0.0000  plane waves:    8440
 k-point 20 :   0.1538 0.1538-0.0000  plane waves:    8305
 k-point 21 :   0.2308 0.1538-0.0000  plane waves:    8324
 k-point 22 :   0.3077 0.1538-0.0000  plane waves:    8286
 k-point 23 :   0.3846 0.1538 0.0000  plane waves:    8271
 k-point 24 :   0.4615 0.1538-0.0000  plane waves:    8267
 k-point 25 :  -0.4615 0.1538-0.0000  plane waves:    8314
 k-point 26 :  -0.3846 0.1538-0.0000  plane waves:    8350
 k-point 27 :  -0.3077 0.1538 0.0000  plane waves:    8358
 k-point 28 :  -0.2308 0.1538-0.0000  plane waves:    8412
 k-point 29 :  -0.1538 0.1538-0.0000  plane waves:    8436
 k-point 30 :   0.2308 0.2308-0.0000  plane waves:    8299
 k-point 31 :   0.3077 0.2308-0.0000  plane waves:    8296
 k-point 32 :   0.3846 0.2308-0.0000  plane waves:    8289
 k-point 33 :   0.4615 0.2308-0.0000  plane waves:    8299
 k-point 34 :  -0.4615 0.2308 0.0000  plane waves:    8332
 k-point 35 :  -0.3846 0.2308-0.0000  plane waves:    8326
 k-point 36 :  -0.3077 0.2308-0.0000  plane waves:    8345
 k-point 37 :  -0.2308 0.2308-0.0000  plane waves:    8401
 k-point 38 :   0.3077 0.3077-0.0000  plane waves:    8298
 k-point 39 :   0.3846 0.3077-0.0000  plane waves:    8325
 k-point 40 :   0.4615 0.3077-0.0000  plane waves:    8314
 k-point 41 :  -0.4615 0.3077 0.0000  plane waves:    8325
 k-point 42 :  -0.3846 0.3077-0.0000  plane waves:    8295
 k-point 43 :  -0.3077 0.3077 0.0000  plane waves:    8309
 k-point 44 :   0.3846 0.3846-0.0000  plane waves:    8320
 k-point 45 :   0.4615 0.3846-0.0000  plane waves:    8298
 k-point 46 :  -0.4615 0.3846-0.0000  plane waves:    8281
 k-point 47 :  -0.3846 0.3846-0.0000  plane waves:    8286
 k-point 48 :   0.4615 0.4615-0.0000  plane waves:    8292
 k-point 49 :  -0.4615 0.4615-0.0000  plane waves:    8246

 maximum and minimum number of plane-waves per node :      2145     2041

 maximum number of plane-waves:      8461
 maximum index in each direction: 
   IXMAX=    6   IYMAX=    5   IZMAX=   74
   IXMIN=   -6   IYMIN=   -6   IZMIN=  -74

 WARNING: aliasing errors must be expected set NGX to  26 to avoid them
 NGY is ok and might be reduce to  24
 NGZ is ok and might be reduce to 298
 aliasing errors are usually negligible using standard VASP settings
 and one can safely disregard these warnings

 parallel 3D FFT for wavefunctions:
    minimum data exchange during FFTs selected (reduces bandwidth)
 parallel 3D FFT for charge:
    minimum data exchange during FFTs selected (reduces bandwidth)


 total amount of memory used by VASP on root node   191143. kBytes
========================================================================

   base      :      30000. kBytes
   nonl-proj :      33480. kBytes
   fftplans  :      51728. kBytes
   grid      :      20736. kBytes
   one-center:         56. kBytes
   wavefun   :      55143. kBytes
 
     INWAV:  cpu time    0.00: real time    0.00
 Broyden mixing: mesh for mixing (old mesh)
   NGX = 11   NGY = 11   NGZ =149
  (NGX  = 48   NGY  = 48   NGZ  =600)
  gives a total of  18029 points

 initial charge density was supplied:
 charge density of overlapping atoms calculated
 number of electron      99.0000000 magnetization 
 keeping initial charge density in first step


--------------------------------------------------------------------------------------------------------


 Maximum index for augmentation-charges        23041 (set IRDMAX)


--------------------------------------------------------------------------------------------------------


 First call to EWALD:  gamma=   0.262
 Maximum number of real-space cells 6x 6x 1
 Maximum number of reciprocal cells 1x 1x14

 FEWALD executed in parallel
    FEWALD:  cpu time    0.00: real time    0.00


----------------------------------------- Iteration    1(   1)  ---------------------------------------


    POTLOK:  cpu time    0.09: real time    0.09
    SETDIJ:  cpu time    0.09: real time    0.09
     EDDAV:  cpu time    9.17: real time    9.20
       DOS:  cpu time    0.00: real time    0.00
    --------------------------------------------
      LOOP:  cpu time    9.36: real time    9.40

 eigenvalue-minimisations  :  6296
 total energy-change (2. order) : 0.4973985E+03  (-0.4460873E+04)
 number of electron      99.0000000 magnetization 
 augmentation part       99.0000000 magnetization 

 Free energy of the ion-electron system (eV)
  ---------------------------------------------------
  alpha Z        PSCENC =       136.42187532
  Ewald energy   TEWEN  =      8835.63433054
  -Hartree energ DENC   =    -14036.38279287
  -exchange      EXHF   =         0.00000000
  -V(xc)+E(xc)   XCENC  =      -342.12382127
  PAW double counting   =      4516.65612620    -3844.19644948
  entropy T*S    EENTRO =        -0.00547237
  eigenvalues    EBANDS =       325.71390912
  atomic energy  EATOM  =      4905.68083858
  ---------------------------------------------------
  free energy    TOTEN  =       497.39854376 eV

  energy without entropy =      497.40401613  energy(sigma->0) =      497.40127994


--------------------------------------------------------------------------------------------------------




----------------------------------------- Iteration    1(   2)  ---------------------------------------


     EDDAV:  cpu time   11.03: real time   11.04
       DOS:  cpu time    0.00: real time    0.00
    --------------------------------------------
      LOOP:  cpu time   11.03: real time   11.05

 eigenvalue-minimisations  :  8088
 total energy-change (2. order) :-0.6009694E+03  (-0.5734430E+03)
 number of electron      99.0000000 magnetization 
 augmentation part       99.0000000 magnetization 

 Free energy of the ion-electron system (eV)
  ---------------------------------------------------
  alpha Z        PSCENC =       136.42187532
  Ewald energy   TEWEN  =      8835.63433054
  -Hartree energ DENC   =    -14036.38279287
  -exchange      EXHF   =         0.00000000
  -V(xc)+E(xc)   XCENC  =      -342.12382127
  PAW double counting   =      4516.65612620    -3844.19644948
  entropy T*S    EENTRO =        -0.00473298
  eigenvalues    EBANDS =      -275.25622852
  atomic energy  EATOM  =      4905.68083858
  ---------------------------------------------------
  free energy    TOTEN  =      -103.57085449 eV

  energy without entropy =     -103.56612151  energy(sigma->0) =     -103.56848800


--------------------------------------------------------------------------------------------------------




----------------------------------------- Iteration    1(   3)  ---------------------------------------


     EDDAV:  cpu time   10.18: real time   10.19
       DOS:  cpu time    0.00: real time    0.00
    --------------------------------------------
      LOOP:  cpu time   10.18: real time   10.19

 eigenvalue-minimisations  :  7384
 total energy-change (2. order) :-0.5220757E+02  (-0.5190823E+02)
 number of electron      99.0000000 magnetization 
 augmentation part       99.0000000 magnetization 

 Free energy of the ion-electron system (eV)
  ---------------------------------------------------
  alpha Z        PSCENC =       136.42187532
  Ewald energy   TEWEN  =      8835.63433054
  -Hartree energ DENC   =    -14036.38279287
  -exchange      EXHF   =         0.00000000
  -V(xc)+E(xc)   XCENC  =      -342.12382127
  PAW double counting   =      4516.65612620    -3844.19644948
  entropy T*S    EENTRO =        -0.00369617
  eigenvalues    EBANDS =      -327.46483998
  atomic energy  EATOM  =      4905.68083858
  ---------------------------------------------------
  free energy    TOTEN  =      -155.77842914 eV

  energy without entropy =     -155.77473296  energy(sigma->0) =     -155.77658105


--------------------------------------------------------------------------------------------------------




----------------------------------------- Iteration    1(   4)  ---------------------------------------


     EDDAV:  cpu time   10.20: real time   10.21
       DOS:  cpu time    0.00: real time    0.00
    --------------------------------------------
      LOOP:  cpu time   10.20: real time   10.22

 eigenvalue-minimisations  :  7312
 total energy-change (2. order) :-0.6313717E+00  (-0.6303107E+00)
 number of electron      99.0000000 magnetization 
 augmentation part       99.0000000 magnetization 

 Free energy of the ion-electron system (eV)
  ---------------------------------------------------
  alpha Z        PSCENC =       136.42187532
  Ewald energy   TEWEN  =      8835.63433054
  -Hartree energ DENC   =    -14036.38279287
  -exchange      EXHF   =         0.00000000
  -V(xc)+E(xc)   XCENC  =      -342.12382127
  PAW double counting   =      4516.65612620    -3844.19644948
  entropy T*S    EENTRO =        -0.00356286
  eigenvalues    EBANDS =      -328.09634495
  atomic energy  EATOM  =      4905.68083858
  ---------------------------------------------------
  free energy    TOTEN  =      -156.40980080 eV

  energy without entropy =     -156.40623794  energy(sigma->0) =     -156.40801937


--------------------------------------------------------------------------------------------------------




----------------------------------------- Iteration    1(   5)  ---------------------------------------


     EDDAV:  cpu time   10.42: real time   10.43
       DOS:  cpu time    0.00: real time    0.00
    CHARGE:  cpu time    0.70: real time    0.70
    MIXING:  cpu time    0.00: real time    0.00
    --------------------------------------------
      LOOP:  cpu time   11.12: real time   11.13

 eigenvalue-minimisations  :  7504
 total energy-change (2. order) :-0.9091664E-02  (-0.9088521E-02)
 number of electron      99.0000001 magnetization 
 augmentation part        7.7121852 magnetization 

 Broyden mixing:
  rms(total) = 0.22942E+01    rms(broyden)= 0.22937E+01
  rms(prec ) = 0.23537E+01
  weight for this iteration     100.00

 Free energy of the ion-electron system (eV)
  ---------------------------------------------------
  alpha Z        PSCENC =       136.42187532
  Ewald energy   TEWEN  =      8835.63433054
  -Hartree energ DENC   =    -14036.38279287
  -exchange      EXHF   =         0.00000000
  -V(xc)+E(xc)   XCENC  =      -342.12382127
  PAW double counting   =      4516.65612620    -3844.19644948
  entropy T*S    EENTRO =        -0.00356103
  eigenvalues    EBANDS =      -328.10543844
  atomic energy  EATOM  =      4905.68083858
  ---------------------------------------------------
  free energy    TOTEN  =      -156.41889246 eV

  energy without entropy =     -156.41533143  energy(sigma->0) =     -156.41711195


--------------------------------------------------------------------------------------------------------




----------------------------------------- Iteration    1(   6)  ---------------------------------------


    POTLOK:  cpu time    0.10: real time    0.10
    SETDIJ:  cpu time    0.10: real time    0.10
     EDDAV:  cpu time   10.50: real time   10.52
       DOS:  cpu time    0.00: real time    0.00
    CHARGE:  cpu time    0.69: real time    0.69
    MIXING:  cpu time    0.00: real time    0.00
    --------------------------------------------
      LOOP:  cpu time   11.39: real time   11.41

 eigenvalue-minimisations  :  7600
 total energy-change (2. order) : 0.1540472E+02  (-0.8748363E+01)
 number of electron      99.0000001 magnetization 
 augmentation part        6.2291178 magnetization 

 Broyden mixing:
  rms(total) = 0.78626E+00    rms(broyden)= 0.78529E+00
  rms(prec ) = 0.79624E+00
  weight for this iteration     100.00

 eigenvalues of (default mixing * dielectric matrix)
  average eigenvalue GAMMA=   0.8382
  0.8382

 Free energy of the ion-electron system (eV)
  ---------------------------------------------------
  alpha Z        PSCENC =       136.42187532
  Ewald energy   TEWEN  =      8835.63433054
  -Hartree energ DENC   =    -14225.95297760
  -exchange      EXHF   =         0.00000000
  -V(xc)+E(xc)   XCENC  =      -328.92338610
  PAW double counting   =      5362.78998007    -4693.72067640
  entropy T*S    EENTRO =        -0.00411825
  eigenvalues    EBANDS =      -132.94004247
  atomic energy  EATOM  =      4905.68083858
  ---------------------------------------------------
  free energy    TOTEN  =      -141.01417631 eV

  energy without entropy =     -141.01005806  energy(sigma->0) =     -141.01211718


--------------------------------------------------------------------------------------------------------




----------------------------------------- Iteration    1(   7)  ---------------------------------------


    POTLOK:  cpu time    0.09: real time    0.09
    SETDIJ:  cpu time    0.10: real time    0.10
     EDDAV:  cpu time    9.96: real time    9.97
       DOS:  cpu time    0.00: real time    0.00
    CHARGE:  cpu time    0.69: real time    0.69
    MIXING:  cpu time    0.00: real time    0.00
    --------------------------------------------
      LOOP:  cpu time   10.84: real time   10.85

 eigenvalue-minimisations  :  7072
 total energy-change (2. order) : 0.1086107E+00  (-0.2193962E+00)
 number of electron      99.0000001 magnetization 
 augmentation part        6.2616081 magnetization 

 Broyden mixing:
  rms(total) = 0.47989E+00    rms(broyden)= 0.47988E+00
  rms(prec ) = 0.48553E+00
  weight for this iteration     100.00

 eigenvalues of (default mixing * dielectric matrix)
  average eigenvalue GAMMA=   1.5419
  0.9899  2.0938

 Free energy of the ion-electron system (eV)
  ---------------------------------------------------
  alpha Z        PSCENC =       136.42187532
  Ewald energy   TEWEN  =      8835.63433054
  -Hartree energ DENC   =    -14220.86076835
  -exchange      EXHF   =         0.00000000
  -V(xc)+E(xc)   XCENC  =      -328.66458514
  PAW double counting   =      5684.08996879    -5014.54630416
  entropy T*S    EENTRO =        -0.00384479
  eigenvalues    EBANDS =      -138.65707643
  atomic energy  EATOM  =      4905.68083858
  ---------------------------------------------------
  free energy    TOTEN  =      -140.90556564 eV

  energy without entropy =     -140.90172085  energy(sigma->0) =     -140.90364324


--------------------------------------------------------------------------------------------------------




----------------------------------------- Iteration    1(   8)  ---------------------------------------


    POTLOK:  cpu time    0.09: real time    0.09
    SETDIJ:  cpu time    0.09: real time    0.09
     EDDAV:  cpu time   10.18: real time   10.19
       DOS:  cpu time    0.00: real time    0.00
    CHARGE:  cpu time    0.69: real time    0.69
    MIXING:  cpu time    0.01: real time    0.01
    --------------------------------------------
      LOOP:  cpu time   11.07: real time   11.08

 eigenvalue-minimisations  :  7400
 total energy-change (2. order) : 0.7322771E-01  (-0.8185251E-01)
 number of electron      99.0000001 magnetization 
 augmentation part        6.3356413 magnetization 

 Broyden mixing:
  rms(total) = 0.13212E+00    rms(broyden)= 0.13205E+00
  rms(prec ) = 0.13917E+00
  weight for this iteration     100.00

 eigenvalues of (default mixing * dielectric matrix)
  average eigenvalue GAMMA=   1.3299
  2.2856  0.8877  0.8163

 Free energy of the ion-electron system (eV)
  ---------------------------------------------------
  alpha Z        PSCENC =       136.42187532
  Ewald energy   TEWEN  =      8835.63433054
  -Hartree energ DENC   =    -14222.63707276
  -exchange      EXHF   =         0.00000000
  -V(xc)+E(xc)   XCENC  =      -327.51882562
  PAW double counting   =      6147.16097251    -5477.23939840
  entropy T*S    EENTRO =        -0.00388938
  eigenvalues    EBANDS =      -138.33116873
  atomic energy  EATOM  =      4905.68083858
  ---------------------------------------------------
  free energy    TOTEN  =      -140.83233793 eV

  energy without entropy =     -140.82844855  energy(sigma->0) =     -140.83039324


--------------------------------------------------------------------------------------------------------




----------------------------------------- Iteration    1(   9)  ---------------------------------------


    POTLOK:  cpu time    0.09: real time    0.09
    SETDIJ:  cpu time    0.09: real time    0.09
     EDDAV:  cpu time   10.15: real time   10.16
       DOS:  cpu time    0.00: real time    0.00
    CHARGE:  cpu time    0.69: real time    0.69
    MIXING:  cpu time    0.00: real time    0.00
    --------------------------------------------
      LOOP:  cpu time   11.03: real time   11.04

 eigenvalue-minimisations  :  7248
 total energy-change (2. order) : 0.3649562E-01  (-0.1515022E-01)
 number of electron      99.0000001 magnetization 
 augmentation part        6.3032727 magnetization 

 Broyden mixing:
  rms(total) = 0.65095E-01    rms(broyden)= 0.65088E-01
  rms(prec ) = 0.66619E-01
  weight for this iteration     100.00

 eigenvalues of (default mixing * dielectric matrix)
  average eigenvalue GAMMA=   1.4553
  2.4696  0.9200  0.9200  1.5117

 Free energy of the ion-electron system (eV)
  ---------------------------------------------------
  alpha Z        PSCENC =       136.42187532
  Ewald energy   TEWEN  =      8835.63433054
  -Hartree energ DENC   =    -14227.82703185
  -exchange      EXHF   =         0.00000000
  -V(xc)+E(xc)   XCENC  =      -326.99634443
  PAW double counting   =      6188.52930691    -5518.67298399
  entropy T*S    EENTRO =        -0.00396933
  eigenvalues    EBANDS =      -133.56186406
  atomic energy  EATOM  =      4905.68083858
  ---------------------------------------------------
  free energy    TOTEN  =      -140.79584231 eV

  energy without entropy =     -140.79187298  energy(sigma->0) =     -140.79385765


--------------------------------------------------------------------------------------------------------




----------------------------------------- Iteration    1(  10)  ---------------------------------------


    POTLOK:  cpu time    0.09: real time    0.09
    SETDIJ:  cpu time    0.09: real time    0.09
     EDDAV:  cpu time   10.10: real time   10.11
       DOS:  cpu time    0.00: real time    0.00
    CHARGE:  cpu time    0.69: real time    0.69
    MIXING:  cpu time    0.00: real time    0.00
    --------------------------------------------
      LOOP:  cpu time   10.98: real time   10.99

 eigenvalue-minimisations  :  7216
 total energy-change (2. order) :-0.3895024E-02  (-0.1290882E-01)
 number of electron      99.0000001 magnetization 
 augmentation part        6.2741666 magnetization 

 Broyden mixing:
  rms(total) = 0.47599E-01    rms(broyden)= 0.47557E-01
  rms(prec ) = 0.51362E-01
  weight for this iteration     100.00

 eigenvalues of (default mixing * dielectric matrix)
  average eigenvalue GAMMA=   1.3004
  2.5197  1.4917  0.9743  0.7581  0.7581

 Free energy of the ion-electron system (eV)
  ---------------------------------------------------
  alpha Z        PSCENC =       136.42187532
  Ewald energy   TEWEN  =      8835.63433054
  -Hartree energ DENC   =    -14230.64671237
  -exchange      EXHF   =         0.00000000
  -V(xc)+E(xc)   XCENC  =      -326.66688496
  PAW double counting   =      6174.68014255    -5504.86682380
  entropy T*S    EENTRO =        -0.00389263
  eigenvalues    EBANDS =      -131.03261056
  atomic energy  EATOM  =      4905.68083858
  ---------------------------------------------------
  free energy    TOTEN  =      -140.79973733 eV

  energy without entropy =     -140.79584471  energy(sigma->0) =     -140.79779102


--------------------------------------------------------------------------------------------------------




----------------------------------------- Iteration    1(  11)  ---------------------------------------


    POTLOK:  cpu time    0.09: real time    0.09
    SETDIJ:  cpu time    0.09: real time    0.09
     EDDAV:  cpu time   10.37: real time   10.39
       DOS:  cpu time    0.00: real time    0.00
    CHARGE:  cpu time    0.68: real time    0.68
    MIXING:  cpu time    0.00: real time    0.00
    --------------------------------------------
      LOOP:  cpu time   11.25: real time   11.26

 eigenvalue-minimisations  :  7480
 total energy-change (2. order) : 0.3615257E-02  (-0.1256340E-02)
 number of electron      99.0000001 magnetization 
 augmentation part        6.2810829 magnetization 

 Broyden mixing:
  rms(total) = 0.29771E-01    rms(broyden)= 0.29770E-01
  rms(prec ) = 0.31065E-01
  weight for this iteration     100.00

 eigenvalues of (default mixing * dielectric matrix)
  average eigenvalue GAMMA=   1.3464
  2.5940  1.7245  1.0051  1.0051  1.0420  0.7075

 Free energy of the ion-electron system (eV)
  ---------------------------------------------------
  alpha Z        PSCENC =       136.42187532
  Ewald energy   TEWEN  =      8835.63433054
  -Hartree energ DENC   =    -14229.91676957
  -exchange      EXHF   =         0.00000000
  -V(xc)+E(xc)   XCENC  =      -326.68183326
  PAW double counting   =      6167.98993290    -5498.16940901
  entropy T*S    EENTRO =        -0.00395219
  eigenvalues    EBANDS =      -131.75113537
  atomic energy  EATOM  =      4905.68083858
  ---------------------------------------------------
  free energy    TOTEN  =      -140.79612208 eV

  energy without entropy =     -140.79216988  energy(sigma->0) =     -140.79414598


--------------------------------------------------------------------------------------------------------




----------------------------------------- Iteration    1(  12)  ---------------------------------------


    POTLOK:  cpu time    0.09: real time    0.09
    SETDIJ:  cpu time    0.09: real time    0.09
     EDDAV:  cpu time   10.05: real time   10.06
       DOS:  cpu time    0.00: real time    0.00
    CHARGE:  cpu time    0.69: real time    0.69
    MIXING:  cpu time    0.00: real time    0.00
    --------------------------------------------
      LOOP:  cpu time   10.93: real time   10.94

 eigenvalue-minimisations  :  7312
 total energy-change (2. order) : 0.4132359E-03  (-0.2027411E-02)
 number of electron      99.0000001 magnetization 
 augmentation part        6.2845697 magnetization 

 Broyden mixing:
  rms(total) = 0.16692E-01    rms(broyden)= 0.16674E-01
  rms(prec ) = 0.17708E-01
  weight for this iteration     100.00

 eigenvalues of (default mixing * dielectric matrix)
  average eigenvalue GAMMA=   1.3600
  2.7696  2.4435  0.9034  0.9034  0.9375  0.9375  0.6254

 Free energy of the ion-electron system (eV)
  ---------------------------------------------------
  alpha Z        PSCENC =       136.42187532
  Ewald energy   TEWEN  =      8835.63433054
  -Hartree energ DENC   =    -14229.49259153
  -exchange      EXHF   =         0.00000000
  -V(xc)+E(xc)   XCENC  =      -326.65729274
  PAW double counting   =      6148.09895876    -5478.28592720
  entropy T*S    EENTRO =        -0.00398441
  eigenvalues    EBANDS =      -132.19191615
  atomic energy  EATOM  =      4905.68083858
  ---------------------------------------------------
  free energy    TOTEN  =      -140.79570884 eV

  energy without entropy =     -140.79172443  energy(sigma->0) =     -140.79371663


--------------------------------------------------------------------------------------------------------




----------------------------------------- Iteration    1(  13)  ---------------------------------------


    POTLOK:  cpu time    0.09: real time    0.09
    SETDIJ:  cpu time    0.09: real time    0.09
     EDDAV:  cpu time   10.95: real time   10.97
       DOS:  cpu time    0.00: real time    0.00
    CHARGE:  cpu time    0.69: real time    0.69
    MIXING:  cpu time    0.00: real time    0.00
    --------------------------------------------
      LOOP:  cpu time   11.83: real time   11.85

 eigenvalue-minimisations  :  8024
 total energy-change (2. order) : 0.4834708E-03  (-0.2152516E-03)
 number of electron      99.0000001 magnetization 
 augmentation part        6.2874019 magnetization 

 Broyden mixing:
  rms(total) = 0.93864E-02    rms(broyden)= 0.93856E-02
  rms(prec ) = 0.10576E-01
  weight for this iteration     100.00

 eigenvalues of (default mixing * dielectric matrix)
  average eigenvalue GAMMA=   1.3621
  2.8799  2.4836  0.9460  0.9460  1.1179  0.9312  0.9312  0.6609

 Free energy of the ion-electron system (eV)
  ---------------------------------------------------
  alpha Z        PSCENC =       136.42187532
  Ewald energy   TEWEN  =      8835.63433054
  -Hartree energ DENC   =    -14228.95362548
  -exchange      EXHF   =         0.00000000
  -V(xc)+E(xc)   XCENC  =      -326.66580867
  PAW double counting   =      6132.50627393    -5462.69164379
  entropy T*S    EENTRO =        -0.00399085
  eigenvalues    EBANDS =      -132.72347495
  atomic energy  EATOM  =      4905.68083858
  ---------------------------------------------------
  free energy    TOTEN  =      -140.79522537 eV

  energy without entropy =     -140.79123452  energy(sigma->0) =     -140.79322995


--------------------------------------------------------------------------------------------------------




----------------------------------------- Iteration    1(  14)  ---------------------------------------


    POTLOK:  cpu time    0.09: real time    0.09
    SETDIJ:  cpu time    0.09: real time    0.09
     EDDAV:  cpu time   10.48: real time   10.50
       DOS:  cpu time    0.00: real time    0.00
    CHARGE:  cpu time    0.68: real time    0.68
    MIXING:  cpu time    0.00: real time    0.00
    --------------------------------------------
      LOOP:  cpu time   11.36: real time   11.37

 eigenvalue-minimisations  :  7576
 total energy-change (2. order) : 0.2127485E-03  (-0.1270334E-03)
 number of electron      99.0000001 magnetization 
 augmentation part        6.2873624 magnetization 

 Broyden mixing:
  rms(total) = 0.26027E-02    rms(broyden)= 0.25968E-02
  rms(prec ) = 0.49161E-02
  weight for this iteration     100.00

 eigenvalues of (default mixing * dielectric matrix)
  average eigenvalue GAMMA=   1.4021
  3.0405  2.5837  1.5806  0.8989  0.8989  1.0712  0.9378  0.9378  0.6700

 Free energy of the ion-electron system (eV)
  ---------------------------------------------------
  alpha Z        PSCENC =       136.42187532
  Ewald energy   TEWEN  =      8835.63433054
  -Hartree energ DENC   =    -14228.72801492
  -exchange      EXHF   =         0.00000000
  -V(xc)+E(xc)   XCENC  =      -326.66572758
  PAW double counting   =      6130.51214962    -5460.69722631
  entropy T*S    EENTRO =        -0.00399696
  eigenvalues    EBANDS =      -132.94924090
  atomic energy  EATOM  =      4905.68083858
  ---------------------------------------------------
  free energy    TOTEN  =      -140.79501262 eV

  energy without entropy =     -140.79101566  energy(sigma->0) =     -140.79301414


--------------------------------------------------------------------------------------------------------




----------------------------------------- Iteration    1(  15)  ---------------------------------------


    POTLOK:  cpu time    0.09: real time    0.09
    SETDIJ:  cpu time    0.09: real time    0.09
     EDDAV:  cpu time   11.77: real time   11.79
       DOS:  cpu time    0.00: real time    0.00
    CHARGE:  cpu time    0.68: real time    0.68
    MIXING:  cpu time    0.01: real time    0.01
    --------------------------------------------
      LOOP:  cpu time   12.64: real time   12.66

 eigenvalue-minimisations  :  8880
 total energy-change (2. order) : 0.2163934E-03  (-0.1638798E-04)
 number of electron      99.0000001 magnetization 
 augmentation part        6.2873250 magnetization 

 Broyden mixing:
  rms(total) = 0.18016E-02    rms(broyden)= 0.18010E-02
  rms(prec ) = 0.37072E-02
  weight for this iteration     100.00

 eigenvalues of (default mixing * dielectric matrix)
  average eigenvalue GAMMA=   1.4360
  3.0994  2.5692  2.4729  0.9043  0.9043  0.9483  0.9483  0.9230  0.9230  0.6677

 Free energy of the ion-electron system (eV)
  ---------------------------------------------------
  alpha Z        PSCENC =       136.42187532
  Ewald energy   TEWEN  =      8835.63433054
  -Hartree energ DENC   =    -14228.33536976
  -exchange      EXHF   =         0.00000000
  -V(xc)+E(xc)   XCENC  =      -326.66404158
  PAW double counting   =      6129.97791957    -5460.16197131
  entropy T*S    EENTRO =        -0.00402578
  eigenvalues    EBANDS =      -133.34435181
  atomic energy  EATOM  =      4905.68083858
  ---------------------------------------------------
  free energy    TOTEN  =      -140.79479623 eV

  energy without entropy =     -140.79077045  energy(sigma->0) =     -140.79278334


--------------------------------------------------------------------------------------------------------




----------------------------------------- Iteration    1(  16)  ---------------------------------------


    POTLOK:  cpu time    0.09: real time    0.09
    SETDIJ:  cpu time    0.10: real time    0.10
     EDDAV:  cpu time   10.42: real time   10.44
       DOS:  cpu time    0.00: real time    0.00
    CHARGE:  cpu time    0.68: real time    0.68
    MIXING:  cpu time    0.00: real time    0.00
    --------------------------------------------
      LOOP:  cpu time   11.31: real time   11.33

 eigenvalue-minimisations  :  7488
 total energy-change (2. order) : 0.1123562E-03  (-0.1533660E-04)
 number of electron      99.0000001 magnetization 
 augmentation part        6.2867880 magnetization 

 Broyden mixing:
  rms(total) = 0.17919E-02    rms(broyden)= 0.17916E-02
  rms(prec ) = 0.32708E-02
  weight for this iteration     100.00

 eigenvalues of (default mixing * dielectric matrix)
  average eigenvalue GAMMA=   1.4827
  3.2664  2.8265  2.4670  0.9208  0.9208  1.2302  1.2302  0.9234  0.9234  0.9322
  0.6688

 Free energy of the ion-electron system (eV)
  ---------------------------------------------------
  alpha Z        PSCENC =       136.42187532
  Ewald energy   TEWEN  =      8835.63433054
  -Hartree energ DENC   =    -14228.12891054
  -exchange      EXHF   =         0.00000000
  -V(xc)+E(xc)   XCENC  =      -326.65879083
  PAW double counting   =      6132.31971921    -5462.50400027
  entropy T*S    EENTRO =        -0.00403937
  eigenvalues    EBANDS =      -133.55570651
  atomic energy  EATOM  =      4905.68083858
  ---------------------------------------------------
  free energy    TOTEN  =      -140.79468387 eV

  energy without entropy =     -140.79064450  energy(sigma->0) =     -140.79266419


--------------------------------------------------------------------------------------------------------




----------------------------------------- Iteration    1(  17)  ---------------------------------------


    POTLOK:  cpu time    0.09: real time    0.09
    SETDIJ:  cpu time    0.10: real time    0.10
     EDDAV:  cpu time   11.93: real time   11.95
       DOS:  cpu time    0.00: real time    0.00
    CHARGE:  cpu time    0.68: real time    0.68
    MIXING:  cpu time    0.00: real time    0.00
    --------------------------------------------
      LOOP:  cpu time   12.82: real time   12.83

 eigenvalue-minimisations  :  8928
 total energy-change (2. order) : 0.1336301E-03  (-0.1469383E-04)
 number of electron      99.0000001 magnetization 
 augmentation part        6.2869844 magnetization 

 Broyden mixing:
  rms(total) = 0.17403E-02    rms(broyden)= 0.17398E-02
  rms(prec ) = 0.27363E-02
  weight for this iteration     100.00

 eigenvalues of (default mixing * dielectric matrix)
  average eigenvalue GAMMA=   1.5384
  3.3020  3.3020  2.5517  2.2645  0.9171  0.9171  0.6681  0.9003  0.9003  0.9267
  0.9267  0.8850

 Free energy of the ion-electron system (eV)
  ---------------------------------------------------
  alpha Z        PSCENC =       136.42187532
  Ewald energy   TEWEN  =      8835.63433054
  -Hartree energ DENC   =    -14227.68189448
  -exchange      EXHF   =         0.00000000
  -V(xc)+E(xc)   XCENC  =      -326.66001845
  PAW double counting   =      6132.99366312    -5463.17789145
  entropy T*S    EENTRO =        -0.00405709
  eigenvalues    EBANDS =      -134.00139633
  atomic energy  EATOM  =      4905.68083858
  ---------------------------------------------------
  free energy    TOTEN  =      -140.79455024 eV

  energy without entropy =     -140.79049315  energy(sigma->0) =     -140.79252169


--------------------------------------------------------------------------------------------------------




----------------------------------------- Iteration    1(  18)  ---------------------------------------


    POTLOK:  cpu time    0.09: real time    0.09
    SETDIJ:  cpu time    0.09: real time    0.09
     EDDAV:  cpu time   11.32: real time   11.34
       DOS:  cpu time    0.00: real time    0.00
    CHARGE:  cpu time    0.68: real time    0.68
    MIXING:  cpu time    0.00: real time    0.00
    --------------------------------------------
      LOOP:  cpu time   12.20: real time   12.21

 eigenvalue-minimisations  :  8344
 total energy-change (2. order) : 0.8414302E-04  (-0.1212719E-04)
 number of electron      99.0000001 magnetization 
 augmentation part        6.2871610 magnetization 

 Broyden mixing:
  rms(total) = 0.17217E-02    rms(broyden)= 0.17215E-02
  rms(prec ) = 0.23720E-02
  weight for this iteration     100.00

 eigenvalues of (default mixing * dielectric matrix)
  average eigenvalue GAMMA=   1.5914
  4.2814  3.1865  2.5484  2.3766  0.9078  0.9078  1.0992  1.0992  0.9259  0.9259
  0.9681  0.6678  0.7933

 Free energy of the ion-electron system (eV)
  ---------------------------------------------------
  alpha Z        PSCENC =       136.42187532
  Ewald energy   TEWEN  =      8835.63433054
  -Hartree energ DENC   =    -14227.33217298
  -exchange      EXHF   =         0.00000000
  -V(xc)+E(xc)   XCENC  =      -326.65939397
  PAW double counting   =      6133.11570079    -5463.29997002
  entropy T*S    EENTRO =        -0.00406943
  eigenvalues    EBANDS =      -134.35160493
  atomic energy  EATOM  =      4905.68083858
  ---------------------------------------------------
  free energy    TOTEN  =      -140.79446610 eV

  energy without entropy =     -140.79039667  energy(sigma->0) =     -140.79243138


--------------------------------------------------------------------------------------------------------




----------------------------------------- Iteration    1(  19)  ---------------------------------------


    POTLOK:  cpu time    0.09: real time    0.09
    SETDIJ:  cpu time    0.09: real time    0.09
     EDDAV:  cpu time   12.74: real time   12.76
       DOS:  cpu time    0.00: real time    0.00
    CHARGE:  cpu time    0.68: real time    0.68
    MIXING:  cpu time    0.01: real time    0.01
    --------------------------------------------
      LOOP:  cpu time   13.62: real time   13.64

 eigenvalue-minimisations  :  9688
 total energy-change (2. order) : 0.6803844E-04  (-0.2170300E-04)
 number of electron      99.0000001 magnetization 
 augmentation part        6.2869191 magnetization 

 Broyden mixing:
  rms(total) = 0.16465E-02    rms(broyden)= 0.16458E-02
  rms(prec ) = 0.19987E-02
  weight for this iteration     100.00

 eigenvalues of (default mixing * dielectric matrix)
  average eigenvalue GAMMA=   1.7024
  6.1539  2.8655  2.6510  2.6510  1.1058  1.1058  0.9153  0.9153  1.0447  1.0447
  0.9307  0.9307  0.6678  0.8512

 Free energy of the ion-electron system (eV)
  ---------------------------------------------------
  alpha Z        PSCENC =       136.42187532
  Ewald energy   TEWEN  =      8835.63433054
  -Hartree energ DENC   =    -14227.04316733
  -exchange      EXHF   =         0.00000000
  -V(xc)+E(xc)   XCENC  =      -326.65539634
  PAW double counting   =      6132.87121807    -5463.05684057
  entropy T*S    EENTRO =        -0.00408269
  eigenvalues    EBANDS =      -134.64317364
  atomic energy  EATOM  =      4905.68083858
  ---------------------------------------------------
  free energy    TOTEN  =      -140.79439806 eV

  energy without entropy =     -140.79031537  energy(sigma->0) =     -140.79235671


--------------------------------------------------------------------------------------------------------




----------------------------------------- Iteration    1(  20)  ---------------------------------------


    POTLOK:  cpu time    0.09: real time    0.09
    SETDIJ:  cpu time    0.09: real time    0.09
     EDDAV:  cpu time   10.10: real time   10.11
       DOS:  cpu time    0.00: real time    0.00
    CHARGE:  cpu time    0.69: real time    0.69
    MIXING:  cpu time    0.01: real time    0.01
    --------------------------------------------
      LOOP:  cpu time   10.98: real time   10.99

 eigenvalue-minimisations  :  7152
 total energy-change (2. order) : 0.1276356E-04  (-0.1616118E-04)
 number of electron      99.0000001 magnetization 
 augmentation part        6.2868513 magnetization 

 Broyden mixing:
  rms(total) = 0.18506E-02    rms(broyden)= 0.18504E-02
  rms(prec ) = 0.20339E-02
  weight for this iteration     100.00

 eigenvalues of (default mixing * dielectric matrix)
  average eigenvalue GAMMA=   1.6143
  6.2539  2.9126  2.7238  2.5532  1.1143  1.1143  0.9151  0.9151  1.0673  1.0673
  0.9266  0.9266  0.6679  0.8641  0.1921

 Free energy of the ion-electron system (eV)
  ---------------------------------------------------
  alpha Z        PSCENC =       136.42187532
  Ewald energy   TEWEN  =      8835.63433054
  -Hartree energ DENC   =    -14226.85835195
  -exchange      EXHF   =         0.00000000
  -V(xc)+E(xc)   XCENC  =      -326.65611000
  PAW double counting   =      6132.50030299    -5462.68605853
  entropy T*S    EENTRO =        -0.00409137
  eigenvalues    EBANDS =      -134.82712087
  atomic energy  EATOM  =      4905.68083858
  ---------------------------------------------------
  free energy    TOTEN  =      -140.79438530 eV

  energy without entropy =     -140.79029392  energy(sigma->0) =     -140.79233961


--------------------------------------------------------------------------------------------------------




----------------------------------------- Iteration    1(  21)  ---------------------------------------


    POTLOK:  cpu time    0.09: real time    0.09
    SETDIJ:  cpu time    0.09: real time    0.09
     EDDAV:  cpu time    9.76: real time    9.77
       DOS:  cpu time    0.00: real time    0.00
    CHARGE:  cpu time    0.69: real time    0.69
    MIXING:  cpu time    0.01: real time    0.01
    --------------------------------------------
      LOOP:  cpu time   10.64: real time   10.65

 eigenvalue-minimisations  :  6872
 total energy-change (2. order) : 0.1863645E-04  (-0.5861305E-05)
 number of electron      99.0000001 magnetization 
 augmentation part        6.2872357 magnetization 

 Broyden mixing:
  rms(total) = 0.72599E-03    rms(broyden)= 0.72553E-03
  rms(prec ) = 0.97491E-03
  weight for this iteration     100.00

 eigenvalues of (default mixing * dielectric matrix)
  average eigenvalue GAMMA=   1.7601
  7.3745  3.3873  2.6298  2.6298  1.5896  1.5896  0.9151  0.9151  1.0386  1.0386
  0.9413  0.9413  0.6676  0.8014  0.8507  0.8507

 Free energy of the ion-electron system (eV)
  ---------------------------------------------------
  alpha Z        PSCENC =       136.42187532
  Ewald energy   TEWEN  =      8835.63433054
  -Hartree energ DENC   =    -14226.76225495
  -exchange      EXHF   =         0.00000000
  -V(xc)+E(xc)   XCENC  =      -326.65796844
  PAW double counting   =      6132.94400786    -5463.12890095
  entropy T*S    EENTRO =        -0.00409406
  eigenvalues    EBANDS =      -134.92220055
  atomic energy  EATOM  =      4905.68083858
  ---------------------------------------------------
  free energy    TOTEN  =      -140.79436666 eV

[...]
 k-point    47 :      -0.3846    0.3846   -0.0000
  band No.  band energies     occupation 
      1     -13.1163      2.00000
      2     -13.1157      2.00000
      3     -13.0089      2.00000
      4     -12.9631      2.00000
      5     -12.8965      2.00000
      6     -12.8210      2.00000
      7     -12.7451      2.00000
      8     -12.6758      2.00000
      9     -12.6224      2.00000
     10     -12.5837      2.00000
     11      -1.0262      2.00000
     12      -0.9823      2.00000
     13      -0.8995      2.00000
     14      -0.7878      2.00000
     15      -0.6723      2.00000
     16      -0.6577      2.00000
     17      -0.5310      2.00000
     18      -0.4728      2.00000
     19      -0.3984      2.00000
     20      -0.2934      2.00000
     21      -0.1118      2.00000
     22      -0.0396      2.00000
     23       0.1402      2.00000
     24       0.4468      2.00000
     25       0.6746      2.00000
     26       0.9842      2.00000
     27       1.2000      2.00000
     28       1.4450      2.00000
     29       1.6647      2.00000
     30       1.7643      2.00000
     31       1.8506      2.00000
     32       1.9358      2.00000
     33       1.9364      2.00000
     34       2.1070      2.00000
     35       2.1539      2.00000
     36       2.1715      2.00000
     37       2.2218      2.00000
     38       2.2984      2.00000
     39       2.3743      2.00000
     40       2.3888      2.00000
     41       2.4824      2.00000
     42       2.5700      2.00000
     43       2.6397      2.00000
     44       2.6895      2.00000
     45       3.2068      2.00000
     46       4.4615      2.00000
     47       4.6579      2.00000
     48       4.9588      2.00000
     49       5.4036      2.00000
     50       6.1874      2.00000
     51       6.5058      2.00000
     52       7.6090      0.00000
     53       7.8081      0.00000
     54       8.8619      0.00000
     55       9.4120      0.00000
     56      10.1501      0.00000
     57      10.7344      0.00000
     58      10.8131      0.00000
     59      11.0479      0.00000
     60      11.3232      0.00000
     61      11.6174      0.00000
     62      11.8851      0.00000
     63      12.1061      0.00000
     64      12.2448      0.00000

 k-point    48 :       0.4615    0.4615   -0.0000
  band No.  band energies     occupation 
      1     -12.9563      2.00000
      2     -12.9558      2.00000
      3     -12.7783      2.00000
      4     -12.7614      2.00000
      5     -12.7316      2.00000
      6     -12.6967      2.00000
      7     -12.6602      2.00000
      8     -12.6261      2.00000
      9     -12.5998      2.00000
     10     -12.5787      2.00000
     11      -1.2882      2.00000
     12      -1.2030      2.00000
     13      -1.0646      2.00000
     14      -0.8887      2.00000
     15      -0.8010      2.00000
     16      -0.7412      2.00000
     17      -0.7015      2.00000
     18      -0.6477      2.00000
     19      -0.5692      2.00000
     20      -0.5628      2.00000
     21       0.4660      2.00000
     22       0.4715      2.00000
     23       1.1287      2.00000
     24       1.1781      2.00000
     25       1.3132      2.00000
     26       1.3851      2.00000
     27       1.5531      2.00000
     28       1.5644      2.00000
     29       1.6707      2.00000
     30       1.7439      2.00000
     31       1.9121      2.00000
     32       1.9369      2.00000
     33       1.9948      2.00000
     34       2.0728      2.00000
     35       2.0861      2.00000
     36       2.1423      2.00000
     37       2.1927      2.00000
     38       2.2086      2.00000
     39       2.3075      2.00000
     40       2.3801      2.00000
     41       2.4267      2.00000
     42       2.4546      2.00000
     43       2.4611      2.00000
     44       2.6581      2.00000
     45       3.0649      2.00000
     46       3.1810      2.00000
     47       3.9186      2.00000
     48       3.9803      2.00000
     49       4.7641      2.00000
     50       5.5676      2.00000
     51       6.2475      2.00000
     52       6.8988      0.00047
     53       7.7038      0.00000
     54       8.3019      0.00000
     55       9.2443      0.00000
     56       9.9031      0.00000
     57      10.5832      0.00000
     58      10.6325      0.00000
     59      10.9453      0.00000
     60      11.0700      0.00000
     61      11.1742      0.00000
     62      11.4032      0.00000
     63      11.7064      0.00000
     64      11.7329      0.00000

 k-point    49 :      -0.4615    0.4615   -0.0000
  band No.  band energies     occupation 
      1     -12.9915      2.00000
      2     -12.9909      2.00000
      3     -12.8273      2.00000
      4     -12.8047      2.00000
      5     -12.7673      2.00000
      6     -12.7241      2.00000
      7     -12.6798      2.00000
      8     -12.6391      2.00000
      9     -12.6079      2.00000
     10     -12.5836      2.00000
     11      -1.3124      2.00000
     12      -1.2283      2.00000
     13      -1.0916      2.00000
     14      -0.9181      2.00000
     15      -0.8390      2.00000
     16      -0.7787      2.00000
     17      -0.7331      2.00000
     18      -0.6737      2.00000
     19      -0.5994      2.00000
     20      -0.5769      2.00000
     21       0.3640      2.00000
     22       0.3771      2.00000
     23       0.9681      2.00000
     24       1.2371      2.00000
     25       1.2592      2.00000
     26       1.4021      2.00000
     27       1.4385      2.00000
     28       1.5683      2.00000
     29       1.7077      2.00000
     30       1.7190      2.00000
     31       1.8745      2.00000
     32       1.8751      2.00000
     33       2.0500      2.00000
     34       2.1084      2.00000
     35       2.1586      2.00000
     36       2.2352      2.00000
     37       2.2538      2.00000
     38       2.3257      2.00000
     39       2.3618      2.00000
     40       2.4193      2.00000
     41       2.5070      2.00000
     42       2.5768      2.00000
     43       2.6267      2.00000
     44       2.8513      2.00000
     45       3.1959      2.00000
     46       3.2486      2.00000
     47       3.7796      2.00000
     48       4.2287      2.00000
     49       4.6162      2.00000
     50       5.7358      2.00000
     51       5.9816      2.00000
     52       7.1809      0.00000
     53       7.3153      0.00000
     54       8.6181      0.00000
     55       8.8652      0.00000
     56      10.1334      0.00000
     57      10.3747      0.00000
     58      10.8294      0.00000
     59      11.0821      0.00000
     60      11.3025      0.00000
     61      11.6471      0.00000
     62      11.8759      0.00000
     63      12.1050      0.00000
     64      12.2878      0.00000


--------------------------------------------------------------------------------------------------------


 soft charge-density along one line, spin component           1
         0         1         2         3         4         5         6         7         8         9
 total charge-density along one line
 
 pseudopotential strength for first ion, spin component:           1
 12.142   0.000 -14.772   0.000  -0.001   0.000  -0.001   0.000   0.001   0.000   0.001   0.000   0.001   0.000  -0.001   0.000
-14.772   0.000  17.989   0.000   0.001   0.000   0.001   0.000  -0.001   0.000  -0.002   0.000  -0.001   0.000   0.001   0.000
 -0.001   0.000   0.001   0.000  -8.271   0.000   0.002   0.000  -0.015   0.000   9.895   0.000  -0.003   0.000   0.020   0.000
 -0.001   0.000   0.001   0.000   0.002   0.000  -8.294   0.000  -0.001   0.000  -0.003   0.000   9.926   0.000   0.002   0.000
  0.001   0.000  -0.001   0.000  -0.015   0.000  -0.001   0.000  -8.288   0.000   0.020   0.000   0.002   0.000   9.918   0.000
  0.001   0.000  -0.002   0.000   9.895   0.000  -0.003   0.000   0.020   0.000 -11.674   0.000   0.004   0.000  -0.027   0.000
  0.001   0.000  -0.001   0.000  -0.003   0.000   9.926   0.000   0.002   0.000   0.004   0.000 -11.716   0.000  -0.002   0.000
 -0.001   0.000   0.001   0.000   0.020   0.000   0.002   0.000   9.918   0.000  -0.027   0.000  -0.002   0.000 -11.705   0.000
 total augmentation occupancy for first ion, spin component:           1
  2.561   0.346   0.006   0.013  -0.003   0.002  -0.003  -0.001
  0.346   0.086   0.003   0.000  -0.002   0.001  -0.011  -0.000
  0.006   0.003   2.099   0.003   0.004   0.230  -0.002   0.018
  0.013   0.000   0.003   2.110  -0.002  -0.002   0.258   0.001
 -0.003  -0.002   0.004  -0.002   2.103   0.018   0.001   0.251
  0.002   0.001   0.230  -0.002   0.018   0.029  -0.000   0.004
 -0.003  -0.011  -0.002   0.258   0.001  -0.000   0.038   0.000
 -0.001  -0.000   0.018   0.001   0.251   0.004   0.000   0.034


------------------------ aborting loop because EDIFF is reached ----------------------------------------


    CHARGE:  cpu time    0.69: real time    0.69
    FORLOC:  cpu time    0.03: real time    0.03
    FORNL :  cpu time    5.89: real time    5.89
    STRESS:  cpu time    6.71: real time    6.72
    FORCOR:  cpu time    0.13: real time    0.13
    FORHAR:  cpu time    0.05: real time    0.05
    MIXING:  cpu time    0.00: real time    0.00
    OFIELD:  cpu time    0.00: real time    0.00

  FORCE on cell =-STRESS in cart. coord.  units (eV):
  Direction    XX          YY          ZZ          XY          YZ          ZX
  --------------------------------------------------------------------------------------
  Alpha Z   136.42188   136.42188   136.42188
  Ewald   11938.55376 11883.53720-14564.68699    47.64592   -40.30479    23.26984
  Hartree 13707.64178 13693.72350-12757.08640    12.05349   -20.52655    11.85105
  E(xc)    -414.35240  -414.39698  -414.11819     0.03859     0.10559    -0.06096
  Local  -26873.45767-26809.03067 26097.30228   -55.79508    58.69850   -33.88955
  n-local   -60.70776   -70.06156   -64.36124    -1.74976     0.38163     3.10367
  augment    60.27600    60.49151    59.43085    -0.18667     0.15408    -0.08907
  Kinetic  1509.14276  1507.17420  1490.70526    -6.31438     3.33820    -0.72850
  Fock        0.00000     0.00000     0.00000     0.00000     0.00000     0.00000
  -------------------------------------------------------------------------------------
  Total      -4.22125    -4.40133   -16.39256     0.15596    -0.11330     0.06542
  in kB     -21.86280   -22.79548   -84.90083     0.80773    -0.58682     0.33880
  external pressure =      -43.19 kB  Pullay stress =        0.00 kB


 VOLUME and BASIS-vectors are now :
 -----------------------------------------------------------------------------
  energy-cutoff  :      520.00
  volume of cell :      309.35
      direct lattice vectors                 reciprocal lattice vectors
     2.581154139 -1.532413801  0.002747772     0.390243590  0.004749552 -0.000210906
    -0.036532577  3.001551301 -0.002747772     0.199235030  0.335586184  0.000210906
     0.022204590 -0.038459471 40.219414348    -0.000013050  0.000022603  0.024863643

  length of vectors
     3.001775525  3.001774874 40.219438865     0.390272549  0.390272634  0.024863657


 FORCES acting on ions
    electron-ion (+dipol)            ewald-force                    non-local-force                 convergence-correction
 -----------------------------------------------------------------------------------------------
   -.124E+01 0.215E+01 0.113E+04   0.147E+01 -.255E+01 -.113E+04   -.233E+00 0.404E+00 0.311E+00   -.173E-03 0.299E-03 0.756E-01
   -.201E+00 0.349E+00 0.381E+03   0.202E+00 -.350E+00 -.381E+03   -.171E-03 0.297E-03 -.177E-01   -.280E-04 0.485E-04 0.477E-01
   0.201E+00 -.348E+00 -.381E+03   -.201E+00 0.349E+00 0.381E+03   0.160E-03 -.277E-03 0.142E-01   0.305E-04 -.529E-04 -.439E-01
   0.124E+01 -.215E+01 -.113E+04   -.147E+01 0.255E+01 0.113E+04   0.234E+00 -.405E+00 -.310E+00   0.212E-03 -.368E-03 -.947E-01
   -.356E+00 0.617E+00 0.887E+03   0.376E+00 -.652E+00 -.887E+03   -.189E-01 0.328E-01 0.395E-01   -.257E-03 0.445E-03 0.847E-01
   -.343E+00 0.593E+00 0.634E+03   0.346E+00 -.599E+00 -.634E+03   -.115E-02 0.199E-02 -.133E-02   -.984E-04 0.170E-03 0.656E-01
   -.665E-01 0.115E+00 0.127E+03   0.661E-01 -.115E+00 -.127E+03   0.280E-03 -.486E-03 -.259E-01   -.474E-04 0.820E-04 0.162E-01
   0.659E-01 -.114E+00 -.127E+03   -.653E-01 0.113E+00 0.127E+03   -.463E-03 0.802E-03 0.261E-01   0.141E-03 -.244E-03 -.412E-02
   0.343E+00 -.594E+00 -.634E+03   -.346E+00 0.599E+00 0.634E+03   0.120E-02 -.208E-02 0.207E-02   0.236E-03 -.409E-03 -.717E-01
   0.356E+00 -.616E+00 -.887E+03   -.376E+00 0.651E+00 0.887E+03   0.190E-01 -.328E-01 -.383E-01   0.277E-03 -.479E-03 -.105E+00
   -.141E+00 0.243E+00 0.253E+03   0.139E+00 -.242E+00 -.253E+03   0.142E-02 -.246E-02 -.178E-01   -.257E-04 0.445E-04 0.232E-01
   0.661E-03 -.114E-02 0.157E-01   -.560E-03 0.971E-03 -.177E-01   -.175E-03 0.303E-03 -.199E-02   -.538E-05 0.932E-05 0.106E-02
   0.140E+00 -.243E+00 -.253E+03   -.139E+00 0.241E+00 0.253E+03   -.138E-02 0.239E-02 0.187E-01   0.249E-04 -.432E-04 -.278E-01
   0.696E+00 -.121E+01 0.338E+03   -.414E+00 0.718E+00 -.338E+03   -.282E+00 0.489E+00 -.101E+00   -.717E-05 0.124E-04 0.284E-01
   -.852E-01 0.147E+00 0.169E+03   0.858E-01 -.149E+00 -.169E+03   -.102E-02 0.176E-02 -.903E-02   -.318E-05 0.551E-05 0.199E-01
   -.434E-01 0.752E-01 0.847E+02   0.437E-01 -.756E-01 -.847E+02   -.327E-03 0.566E-03 -.354E-02   0.145E-05 -.252E-05 0.117E-01
   0.437E-01 -.757E-01 -.846E+02   -.439E-01 0.760E-01 0.847E+02   0.230E-03 -.398E-03 0.197E-02   0.118E-05 -.205E-05 -.853E-02
   0.854E-01 -.148E+00 -.169E+03   -.860E-01 0.149E+00 0.169E+03   0.944E-03 -.163E-02 0.821E-02   0.369E-05 -.639E-05 -.202E-01
   -.696E+00 0.121E+01 -.338E+03   0.415E+00 -.718E+00 0.338E+03   0.282E+00 -.489E+00 0.102E+00   0.126E-04 -.218E-04 -.347E-01
   0.370E-04 -.641E-04 0.115E-01   -.122E-04 0.212E-04 -.168E-01   -.230E-04 0.399E-04 -.240E-03   -.279E-05 0.482E-05 0.542E-02
   0.285E+00 -.493E+00 0.618E+03   -.297E+00 0.515E+00 -.622E+03   0.144E-01 -.249E-01 0.430E+01   -.199E-04 0.345E-04 0.327E-01
   -.109E+00 0.188E+00 0.430E+03   0.124E+00 -.216E+00 -.430E+03   -.159E-01 0.275E-01 0.155E+00   -.155E-04 0.269E-04 0.271E-01
   -.241E+00 0.417E+00 0.213E+03   0.171E+00 -.296E+00 -.213E+03   0.705E-01 -.122E+00 -.410E-01   -.943E-05 0.163E-04 0.190E-01
   -.286E+00 0.495E+00 -.618E+03   0.298E+00 -.516E+00 0.622E+03   -.144E-01 0.249E-01 -.430E+01   0.261E-04 -.452E-04 -.379E-01
   0.241E+00 -.417E+00 -.213E+03   -.171E+00 0.296E+00 0.213E+03   -.704E-01 0.122E+00 0.404E-01   0.337E-05 -.584E-05 -.100E-01
   0.109E+00 -.189E+00 -.430E+03   -.125E+00 0.216E+00 0.430E+03   0.158E-01 -.273E-01 -.154E+00   0.146E-04 -.253E-04 -.246E-01
 -----------------------------------------------------------------------------------------------
   -.293E-03 0.508E-03 0.269E-01   0.376E-13 0.391E-14 -.512E-12   0.286E-04 -.495E-04 -.195E-02   0.292E-03 -.506E-03 -.246E-01
 
 
 POSITION                                       TOTAL-FORCE (eV/Angst)
 -----------------------------------------------------------------------------------
      1.29600      0.69354      9.82258        -0.000351      0.000608      0.005034
      1.29855      0.68911     17.37772         0.000260     -0.000450     -0.006755
      1.26941      0.73960     24.93624        -0.000217      0.000375      0.005707
      1.27198      0.73515     32.49107         0.000376     -0.000652     -0.005159
      2.19167     -0.85780     12.33536         0.001097     -0.001900      0.011243
      0.43572      2.18358     14.85433         0.001820     -0.003153      0.004774
      2.16141     -0.80540     19.90006        -0.000155      0.000268     -0.012547
      0.40654      2.23412     22.41391         0.000279     -0.000484      0.015064
      2.13225     -0.75489     27.45943        -0.001906      0.003301     -0.004609
      0.37628      2.28653     29.97835        -0.001011      0.001750     -0.011790
      1.31357      0.66311     13.59641         0.000375     -0.000650     -0.008153
      1.28398      0.71435     21.15718        -0.000081      0.000140     -0.002955
      1.25440      0.76560     28.71727        -0.000354      0.000613      0.008720
      0.45452      2.15102     11.07253        -0.000349      0.000605     -0.004055
      2.17604     -0.83073     16.11938        -0.000370      0.000641     -0.002599
      0.42116      2.20880     18.63617        -0.000106      0.000183      0.000935
      2.14680     -0.78009     23.67788         0.000050     -0.000087     -0.000537
      0.39193      2.25943     26.19452         0.000334     -0.000578      0.002268
      2.11344     -0.72231     31.24101         0.000379     -0.000657      0.005638
     -0.03591      3.00047      1.04455        -0.000002      0.000004     -0.000122
      2.56157     -1.49849      8.34142         0.001887     -0.003268      0.012068
      1.75786     -0.10643      5.96270        -0.000231      0.000400      0.006992
      0.82333      1.51222      3.48869         0.000636     -0.001101     -0.002503
      0.00645      2.92711     33.97216        -0.001935      0.003352     -0.011895
      1.74471     -0.08366     38.82525        -0.000626      0.001085      0.002132
      0.81016      1.53503     36.35095         0.000200     -0.000346     -0.006894
 -----------------------------------------------------------------------------------
    total drift:                                0.000028     -0.000048      0.000409


--------------------------------------------------------------------------------------------------------



  FREE ENERGIE OF THE ION-ELECTRON SYSTEM (eV)
  ---------------------------------------------------
  free  energy   TOTEN  =      -140.80273801 eV

  energy  without entropy=     -140.79710832  energy(sigma->0) =     -140.79992316
 
 d Force = 0.1067422E-03[-0.259E-04, 0.239E-03]  d Energy = 0.9151768E-04 0.152E-04
 d Force =-0.5766055E+01[-0.577E+01,-0.576E+01]  d Ewald  =-0.5766056E+01 0.318E-06


--------------------------------------------------------------------------------------------------------


    POTLOK:  cpu time    0.20: real time    0.20


--------------------------------------------------------------------------------------------------------


 Conjugate gradient step on ions:
 trial-energy change:   -0.000092  1 .order   -0.000107   -0.000239    0.000026
  (g-gl).g = 0.886E-04      g.g   = 0.161E-03  gl.gl    = 0.486E-03
 g(Force)  = 0.161E-03   g(Stress)= 0.000E+00 ortho     =-0.411E-05
 gamma     =   0.18225
 trial     =   1.49507
 opt step  =   1.34926  (harmonic =   1.34926) maximal distance =0.00143442
 next E    =  -140.802754   (d E  =  -0.00011)


--------------------------------------------------------------------------------------------------------


  
 reached required accuracy - stopping structural energy minimisation
     LOOP+:  cpu time   71.21: real time   71.29
    4ORBIT:  cpu time    0.00: real time    0.00

 total amount of memory used by VASP on root node   191143. kBytes
========================================================================

   base      :      30000. kBytes
   nonl-proj :      33480. kBytes
   fftplans  :      51728. kBytes
   grid      :      20736. kBytes
   one-center:         56. kBytes
   wavefun   :      55143. kBytes
 
  
  
 General timing and accounting informations for this job:
 ========================================================
  
                  Total CPU time used (sec):     1980.350
                            User time (sec):     1969.257
                          System time (sec):       11.093
                         Elapsed time (sec):     1982.504
  
                   Maximum memory used (kb):      294960.
                   Average memory used (kb):           0.
  
                          Minor page faults:       416133
                          Major page faults:            0
                 Voluntary context switches:           76
