       N       E                     dE             d eps       ncg     rms          rms(c)
DAV:   1     0.549551533847E+03    0.54955E+03   -0.48688E+04  2880   0.138E+03
DAV:   2    -0.111187345882E+03   -0.66074E+03   -0.62985E+03  3660   0.267E+02
DAV:   3    -0.168411259817E+03   -0.57224E+02   -0.56902E+02  3304   0.855E+01
DAV:   4    -0.169136851797E+03   -0.72559E+00   -0.72420E+00  3344   0.104E+01
DAV:   5    -0.169147681489E+03   -0.10830E-01   -0.10824E-01  3408   0.124E+00    0.239E+01
DAV:   6    -0.152448069049E+03    0.16700E+02   -0.96871E+01  3336   0.327E+01    0.826E+00
DAV:   7    -0.152274259237E+03    0.17381E+00   -0.21965E+00  3120   0.626E+00    0.497E+00
DAV:   8    -0.152180893636E+03    0.93366E-01   -0.78032E-01  3328   0.472E+00    0.120E+00
DAV:   9    -0.152150448320E+03    0.30445E-01   -0.15651E-01  3292   0.181E+00    0.536E-01
DAV:  10    -0.152154585730E+03   -0.41374E-02   -0.90679E-02  3196   0.125E+00    0.415E-01
DAV:  11    -0.152151452657E+03    0.31331E-02   -0.12083E-02  3504   0.530E-01    0.238E-01
DAV:  12    -0.152151335960E+03    0.11670E-03   -0.14981E-02  3276   0.507E-01    0.178E-01
DAV:  13    -0.152150476525E+03    0.85943E-03   -0.18875E-03  4280   0.320E-01    0.971E-02
DAV:  14    -0.152150168789E+03    0.30774E-03   -0.15618E-03  3464   0.210E-01    0.260E-02
DAV:  15    -0.152149662290E+03    0.50650E-03   -0.38206E-04  4488   0.236E-01    0.297E-02
DAV:  16    -0.152149388319E+03    0.27397E-03   -0.37159E-04  3936   0.198E-01    0.243E-02
DAV:  17    -0.152149179380E+03    0.20894E-03   -0.29202E-04  4280   0.215E-01    0.146E-02
DAV:  18    -0.152149044252E+03    0.13513E-03   -0.26625E-04  4288   0.226E-01    0.150E-02
DAV:  19    -0.152148900869E+03    0.14338E-03   -0.17030E-04  4432   0.258E-01    0.122E-02
DAV:  20    -0.152148883883E+03    0.16986E-04   -0.29528E-04  3256   0.123E-01    0.120E-02
DAV:  21    -0.152148842604E+03    0.41279E-04   -0.38913E-05  3008   0.126E-01    0.835E-03
DAV:  22    -0.152148812312E+03    0.30292E-04   -0.91156E-05  3992   0.199E-01    0.583E-03
DAV:  23    -0.152148823989E+03   -0.11677E-04   -0.15440E-04  3120   0.749E-02    0.745E-03
DAV:  24    -0.152148828719E+03   -0.47296E-05   -0.54217E-05  2792   0.268E-02
   1 F= -.15214883E+03 E0= -.15214701E+03  d E =-.152149E+03
       N       E                     dE             d eps       ncg     rms          rms(c)
DAV:   1    -0.152150356338E+03   -0.15323E-02   -0.17365E-02  2976   0.541E-01    0.505E-02
DAV:   2    -0.152150342452E+03    0.13886E-04   -0.17272E-03  3276   0.184E-01    0.417E-02
DAV:   3    -0.152150324649E+03    0.17803E-04   -0.22313E-04  3236   0.616E-02    0.319E-02
DAV:   4    -0.152150311272E+03    0.13377E-04   -0.56699E-05  2952   0.294E-02    0.161E-02
DAV:   5    -0.152150298604E+03    0.12668E-04   -0.58068E-05  3104   0.358E-02    0.110E-02
DAV:   6    -0.152150296982E+03    0.16223E-05   -0.81450E-06  2044   0.178E-02
   2 F= -.15215030E+03 E0= -.15214840E+03  d E =-.146826E-02
       N       E                     dE             d eps       ncg     rms          rms(c)
DAV:   1    -0.152150741235E+03   -0.44263E-03   -0.12980E-02  2948   0.470E-01    0.409E-02
DAV:   2    -0.152150741109E+03    0.12619E-06   -0.12602E-03  3304   0.152E-01    0.366E-02
DAV:   3    -0.152150723613E+03    0.17496E-04   -0.14161E-04  3240   0.520E-02    0.273E-02
DAV:   4    -0.152150711880E+03    0.11733E-04   -0.47933E-05  2904   0.290E-02    0.129E-02
DAV:   5    -0.152150698446E+03    0.13434E-04   -0.41234E-05  2960   0.404E-02    0.992E-03
DAV:   6    -0.152150694758E+03    0.36876E-05   -0.95496E-06  2000   0.222E-02
   3 F= -.15215069E+03 E0= -.15214870E+03  d E =-.186604E-02
       N       E                     dE             d eps       ncg     rms          rms(c)
DAV:   1    -0.152151355904E+03   -0.65746E-03   -0.15097E-01  2872   0.167E+00    0.542E-02
DAV:   2    -0.152151670116E+03   -0.31421E-03   -0.38922E-03  3260   0.237E-01    0.342E-02
DAV:   3    -0.152151637423E+03    0.32692E-04   -0.57904E-05  3260   0.484E-02    0.243E-02
DAV:   4    -0.152151606457E+03    0.30967E-04   -0.46476E-05  2896   0.487E-02    0.110E-02
DAV:   5    -0.152151587993E+03    0.18464E-04   -0.21009E-05  2236   0.431E-02    0.667E-03
DAV:   6    -0.152151571448E+03    0.16544E-04   -0.22397E-05  2528   0.440E-02    0.560E-03
DAV:   7    -0.152151559337E+03    0.12111E-04   -0.10722E-05  2140   0.366E-02    0.578E-03
DAV:   8    -0.152151541993E+03    0.17345E-04   -0.13540E-05  2184   0.640E-02    0.393E-03
DAV:   9    -0.152151532821E+03    0.91721E-05   -0.25607E-05  2704   0.640E-02
   4 F= -.15215153E+03 E0= -.15214948E+03  d E =-.838062E-03
       N       E                     dE             d eps       ncg     rms          rms(c)
DAV:   1    -0.152151650979E+03   -0.10899E-03   -0.97731E-02  2912   0.133E+00    0.414E-02
DAV:   2    -0.152151857015E+03   -0.20604E-03   -0.25137E-03  3260   0.189E-01    0.277E-02
DAV:   3    -0.152151838729E+03    0.18286E-04   -0.32230E-05  2916   0.334E-02    0.203E-02
DAV:   4    -0.152151819761E+03    0.18968E-04   -0.41234E-05  2880   0.431E-02    0.818E-03
DAV:   5    -0.152151814803E+03    0.49581E-05   -0.19526E-05  2152   0.277E-02    0.685E-03
DAV:   6    -0.152151810049E+03    0.47542E-05   -0.10945E-05  1880   0.207E-02
   5 F= -.15215181E+03 E0= -.15214975E+03  d E =-.111529E-02
       N       E                     dE             d eps       ncg     rms          rms(c)
DAV:   1    -0.152152004402E+03   -0.18960E-03   -0.35929E-01  2912   0.257E+00    0.792E-02
DAV:   2    -0.152152800633E+03   -0.79623E-03   -0.86664E-03  3164   0.348E-01    0.427E-02
DAV:   3    -0.152152756836E+03    0.43797E-04   -0.91835E-05  3272   0.484E-02    0.294E-02
DAV:   4    -0.152152726954E+03    0.29882E-04   -0.67000E-05  3264   0.498E-02    0.108E-02
DAV:   5    -0.152152722281E+03    0.46729E-05   -0.35447E-05  2992   0.316E-02    0.629E-03
DAV:   6    -0.152152721234E+03    0.10464E-05   -0.10824E-05  1924   0.151E-02
   6 F= -.15215272E+03 E0= -.15215069E+03  d E =-.911186E-03
       N       E                     dE             d eps       ncg     rms          rms(c)
DAV:   1    -0.152147609965E+03    0.51123E-02   -0.32311E+00  2896   0.770E+00    0.235E-01
DAV:   2    -0.152154748689E+03   -0.71387E-02   -0.78446E-02  3136   0.105E+00    0.132E-01
DAV:   3    -0.152154281847E+03    0.46684E-03   -0.76347E-04  3352   0.140E-01    0.899E-02
DAV:   4    -0.152153929786E+03    0.35206E-03   -0.60041E-04  3392   0.154E-01    0.344E-02
DAV:   5    -0.152153821530E+03    0.10826E-03   -0.38571E-04  3296   0.109E-01    0.172E-02
DAV:   6    -0.152153769423E+03    0.52108E-04   -0.97180E-05  3328   0.569E-02    0.110E-02
DAV:   7    -0.152153709778E+03    0.59645E-04   -0.22833E-05  2332   0.611E-02    0.794E-03
DAV:   8    -0.152153638557E+03    0.71221E-04   -0.64075E-05  3304   0.914E-02    0.820E-03
DAV:   9    -0.152153555545E+03    0.83011E-04   -0.57330E-05  3096   0.139E-01    0.726E-03
DAV:  10    -0.152153518244E+03    0.37301E-04   -0.11183E-04  3792   0.130E-01    0.778E-03
DAV:  11    -0.152153503168E+03    0.15076E-04   -0.84034E-05  3192   0.969E-02    0.630E-03
DAV:  12    -0.152153500167E+03    0.30013E-05   -0.60660E-05  2992   0.495E-02
   7 F= -.15215350E+03 E0= -.15215169E+03  d E =-.169012E-02
       N       E                     dE             d eps       ncg     rms          rms(c)
DAV:   1    -0.152153218356E+03    0.28481E-03   -0.20147E-01  2956   0.194E+00    0.586E-02
DAV:   2    -0.152153656356E+03   -0.43800E-03   -0.48916E-03  3192   0.266E-01    0.329E-02
DAV:   3    -0.152153626278E+03    0.30079E-04   -0.57033E-05  3276   0.426E-02    0.230E-02
DAV:   4    -0.152153601600E+03    0.24678E-04   -0.34984E-05  2968   0.448E-02    0.963E-03
DAV:   5    -0.152153591906E+03    0.96943E-05   -0.30000E-05  2884   0.407E-02    0.519E-03
DAV:   6    -0.152153589391E+03    0.25141E-05   -0.16566E-05  2240   0.246E-02
   8 F= -.15215359E+03 E0= -.15215175E+03  d E =-.177934E-02
       N       E                     dE             d eps       ncg     rms          rms(c)
DAV:   1    -0.152153732081E+03   -0.14018E-03   -0.17835E-01  2880   0.184E+00    0.564E-02
DAV:   2    -0.152154134950E+03   -0.40287E-03   -0.43435E-03  3204   0.255E-01    0.310E-02
DAV:   3    -0.152154117479E+03    0.17471E-04   -0.46781E-05  3208   0.331E-02    0.215E-02
DAV:   4    -0.152154106023E+03    0.11456E-04   -0.38124E-05  2888   0.311E-02    0.824E-03
DAV:   5    -0.152154104810E+03    0.12138E-05   -0.10229E-05  1808   0.196E-02    0.581E-03
DAV:   6    -0.152154104302E+03    0.50723E-06   -0.84294E-06  1812   0.190E-02
   9 F= -.15215410E+03 E0= -.15215224E+03  d E =-.514911E-03
       N       E                     dE             d eps       ncg     rms          rms(c)
DAV:   1    -0.152151587871E+03    0.25169E-02   -0.16016E+00  2888   0.553E+00    0.169E-01
DAV:   2    -0.152155194688E+03   -0.36068E-02   -0.38777E-02  3192   0.756E-01    0.915E-02
DAV:   3    -0.152155036962E+03    0.15773E-03   -0.36541E-04  3376   0.975E-02    0.622E-02
DAV:   4    -0.152154940097E+03    0.96865E-04   -0.31318E-04  3312   0.958E-02    0.221E-02
DAV:   5    -0.152154936852E+03    0.32453E-05   -0.11677E-04  3264   0.547E-02    0.150E-02
DAV:   6    -0.152154933980E+03    0.28719E-05   -0.44867E-05  2832   0.353E-02
  10 F= -.15215493E+03 E0= -.15215300E+03  d E =-.134459E-02
       N       E                     dE             d eps       ncg     rms          rms(c)
DAV:   1    -0.152155598932E+03   -0.66208E-03   -0.17872E-01  2952   0.179E+00    0.583E-02
DAV:   2    -0.152155857917E+03   -0.25898E-03   -0.36875E-03  3344   0.248E-01    0.336E-02
DAV:   3    -0.152155819097E+03    0.38819E-04   -0.11209E-04  3376   0.536E-02    0.247E-02
DAV:   4    -0.152155788545E+03    0.30553E-04   -0.57374E-05  3072   0.489E-02    0.119E-02
DAV:   5    -0.152155768136E+03    0.20409E-04   -0.33464E-05  2864   0.436E-02    0.761E-03
DAV:   6    -0.152155756944E+03    0.11192E-04   -0.16082E-05  2224   0.344E-02    0.606E-03
DAV:   7    -0.152155741268E+03    0.15676E-04   -0.90370E-06  2024   0.513E-02    0.643E-03
DAV:   8    -0.152155730915E+03    0.10354E-04   -0.12487E-05  2184   0.439E-02    0.566E-03
DAV:   9    -0.152155727125E+03    0.37901E-05   -0.21394E-05  2288   0.318E-02
  11 F= -.15215573E+03 E0= -.15215365E+03  d E =-.793145E-03
       N       E                     dE             d eps       ncg     rms          rms(c)
DAV:   1    -0.152155796771E+03   -0.65857E-04   -0.19823E-01  3024   0.189E+00    0.618E-02
DAV:   2    -0.152156129606E+03   -0.33283E-03   -0.44948E-03  3352   0.270E-01    0.379E-02
DAV:   3    -0.152156088526E+03    0.41080E-04   -0.12724E-04  3400   0.564E-02    0.259E-02
DAV:   4    -0.152156062110E+03    0.26415E-04   -0.53210E-05  3016   0.448E-02    0.130E-02
DAV:   5    -0.152156045044E+03    0.17066E-04   -0.31771E-05  2832   0.394E-02    0.704E-03
DAV:   6    -0.152156037313E+03    0.77314E-05   -0.16211E-05  2228   0.327E-02
  12 F= -.15215604E+03 E0= -.15215383E+03  d E =-.110333E-02
       N       E                     dE             d eps       ncg     rms          rms(c)
DAV:   1    -0.152156160832E+03   -0.11579E-03   -0.33013E-01  2920   0.247E+00    0.756E-02
DAV:   2    -0.152156841957E+03   -0.68113E-03   -0.74900E-03  3192   0.343E-01    0.434E-02
DAV:   3    -0.152156803378E+03    0.38578E-04   -0.96774E-05  3264   0.466E-02    0.310E-02
DAV:   4    -0.152156777801E+03    0.25577E-04   -0.12601E-04  3192   0.570E-02    0.128E-02
DAV:   5    -0.152156775854E+03    0.19480E-05   -0.32942E-05  2672   0.293E-02    0.138E-02
DAV:   6    -0.152156772898E+03    0.29558E-05   -0.17896E-05  1984   0.236E-02
  13 F= -.15215677E+03 E0= -.15215451E+03  d E =-.735585E-03
       N       E                     dE             d eps       ncg     rms          rms(c)
DAV:   1    -0.152153371959E+03    0.34039E-02   -0.21668E+00  2904   0.632E+00    0.192E-01
DAV:   2    -0.152157794973E+03   -0.44230E-02   -0.48716E-02  3240   0.876E-01    0.111E-01
DAV:   3    -0.152157532677E+03    0.26230E-03   -0.60468E-04  3360   0.121E-01    0.798E-02
DAV:   4    -0.152157339483E+03    0.19319E-03   -0.75114E-04  3316   0.154E-01    0.314E-02
DAV:   5    -0.152157316899E+03    0.22584E-04   -0.28781E-04  3296   0.947E-02    0.351E-02
DAV:   6    -0.152157302359E+03    0.14539E-04   -0.10730E-04  3124   0.479E-02    0.210E-02
DAV:   7    -0.152157289707E+03    0.12652E-04   -0.21513E-05  2068   0.241E-02    0.124E-02
DAV:   8    -0.152157268958E+03    0.20749E-04   -0.50920E-05  3112   0.617E-02    0.113E-02
DAV:   9    -0.152157260140E+03    0.88185E-05   -0.33646E-05  2712   0.468E-02
  14 F= -.15215726E+03 E0= -.15215487E+03  d E =-.122283E-02
       N       E                     dE             d eps       ncg     rms          rms(c)
DAV:   1    -0.152157055517E+03    0.21344E-03   -0.13184E-01  2928   0.156E+00    0.491E-02
DAV:   2    -0.152157344070E+03   -0.28855E-03   -0.31668E-03  3240   0.221E-01    0.324E-02
DAV:   3    -0.152157324730E+03    0.19339E-04   -0.44076E-05  2924   0.336E-02    0.218E-02
DAV:   4    -0.152157314362E+03    0.10369E-04   -0.69461E-05  2964   0.391E-02    0.910E-03
DAV:   5    -0.152157312761E+03    0.16008E-05   -0.98158E-06  1656   0.167E-02    0.773E-03
DAV:   6    -0.152157310999E+03    0.17618E-05   -0.93891E-06  1920   0.219E-02
  15 F= -.15215731E+03 E0= -.15215496E+03  d E =-.127369E-02
       N       E                     dE             d eps       ncg     rms          rms(c)
DAV:   1    -0.152157446125E+03   -0.13336E-03   -0.13077E-01  2928   0.157E+00    0.456E-02
DAV:   2    -0.152157712114E+03   -0.26599E-03   -0.29547E-03  3140   0.215E-01    0.264E-02
DAV:   3    -0.152157694853E+03    0.17261E-04   -0.37019E-05  2680   0.282E-02    0.182E-02
DAV:   4    -0.152157682843E+03    0.12010E-04   -0.23055E-05  2104   0.319E-02    0.775E-03
DAV:   5    -0.152157679546E+03    0.32969E-05   -0.23954E-05  2284   0.280E-02    0.466E-03
DAV:   6    -0.152157679224E+03    0.32281E-06   -0.57391E-06  1656   0.102E-02
  16 F= -.15215768E+03 E0= -.15215531E+03  d E =-.368225E-03
       N       E                     dE             d eps       ncg     rms          rms(c)
DAV:   1    -0.152156249805E+03    0.14297E-02   -0.11783E+00  2928   0.473E+00    0.141E-01
DAV:   2    -0.152158672457E+03   -0.24227E-02   -0.26797E-02  3132   0.647E-01    0.775E-02
DAV:   3    -0.152158526970E+03    0.14549E-03   -0.36753E-04  3336   0.878E-02    0.532E-02
DAV:   4    -0.152158439501E+03    0.87470E-04   -0.22897E-04  3300   0.881E-02    0.229E-02
DAV:   5    -0.152158414588E+03    0.24912E-04   -0.13954E-04  3296   0.658E-02    0.135E-02
DAV:   6    -0.152158408067E+03    0.65217E-05   -0.35349E-05  2656   0.279E-02
  17 F= -.15215841E+03 E0= -.15215600E+03  d E =-.109707E-02
       N       E                     dE             d eps       ncg     rms          rms(c)
DAV:   1    -0.152149524344E+03    0.88902E-02   -0.47126E+00  2912   0.946E+00    0.280E-01
DAV:   2    -0.152159239883E+03   -0.97155E-02   -0.10742E-01  3140   0.130E+00    0.158E-01
DAV:   3    -0.152158634190E+03    0.60569E-03   -0.14694E-03  3328   0.176E-01    0.107E-01
DAV:   4    -0.152158274090E+03    0.36010E-03   -0.92743E-04  3276   0.176E-01    0.455E-02
DAV:   5    -0.152158174520E+03    0.99570E-04   -0.56583E-04  3288   0.130E-01    0.255E-02
DAV:   6    -0.152158149518E+03    0.25002E-04   -0.12995E-04  3316   0.524E-02    0.162E-02
DAV:   7    -0.152158109366E+03    0.40152E-04   -0.51845E-05  3116   0.453E-02    0.128E-02
DAV:   8    -0.152158086245E+03    0.23120E-04   -0.71146E-06  2104   0.374E-02    0.117E-02
DAV:   9    -0.152158038887E+03    0.47359E-04   -0.50661E-05  3144   0.960E-02    0.764E-03
DAV:  10    -0.152158011100E+03    0.27786E-04   -0.47350E-05  2928   0.734E-02    0.776E-03
DAV:  11    -0.152157980138E+03    0.30963E-04   -0.27986E-05  2576   0.984E-02    0.104E-02
DAV:  12    -0.152157967641E+03    0.12497E-04   -0.43263E-05  2928   0.787E-02    0.107E-02
DAV:  13    -0.152157963003E+03    0.46380E-05   -0.72951E-05  2840   0.596E-02
  18 F= -.15215796E+03 E0= -.15215550E+03  d E =-.652004E-03
       N       E                     dE             d eps       ncg     rms          rms(c)
DAV:   1    -0.152155419057E+03    0.25486E-02   -0.16684E+00  2936   0.564E+00    0.168E-01
DAV:   2    -0.152158862213E+03   -0.34432E-02   -0.38152E-02  3148   0.776E-01    0.930E-02
DAV:   3    -0.152158660802E+03    0.20141E-03   -0.56976E-04  3352   0.107E-01    0.646E-02
DAV:   4    -0.152158543036E+03    0.11777E-03   -0.33232E-04  3276   0.964E-02    0.283E-02
DAV:   5    -0.152158507030E+03    0.36005E-04   -0.15837E-04  3312   0.739E-02    0.165E-02
DAV:   6    -0.152158501479E+03    0.55510E-05   -0.78399E-05  3204   0.473E-02
  19 F= -.15215850E+03 E0= -.15215609E+03  d E =-.119048E-02
       N       E                     dE             d eps       ncg     rms          rms(c)
DAV:   1    -0.152158718254E+03   -0.21122E-03   -0.22587E-01  2856   0.211E+00    0.661E-02
DAV:   2    -0.152159175966E+03   -0.45771E-03   -0.54655E-03  3232   0.304E-01    0.356E-02
DAV:   3    -0.152159153574E+03    0.22392E-04   -0.18071E-04  3272   0.539E-02    0.271E-02
DAV:   4    -0.152159136284E+03    0.17290E-04   -0.37253E-05  2764   0.263E-02    0.147E-02
DAV:   5    -0.152159114667E+03    0.21617E-04   -0.25920E-05  2376   0.416E-02    0.106E-02
DAV:   6    -0.152159105276E+03    0.93915E-05   -0.11216E-05  1980   0.329E-02
  20 F= -.15215911E+03 E0= -.15215666E+03  d E =-.603796E-03
       N       E                     dE             d eps       ncg     rms          rms(c)
DAV:   1    -0.152158236543E+03    0.87812E-03   -0.63046E-01  2856   0.353E+00    0.114E-01
DAV:   2    -0.152159535247E+03   -0.12987E-02   -0.15388E-02  3220   0.509E-01    0.573E-02
DAV:   3    -0.152159466711E+03    0.68536E-04   -0.45620E-04  3280   0.869E-02    0.431E-02
DAV:   4    -0.152159411342E+03    0.55369E-04   -0.11018E-04  3196   0.471E-02    0.226E-02
DAV:   5    -0.152159341278E+03    0.70065E-04   -0.65432E-05  3236   0.819E-02    0.192E-02
DAV:   6    -0.152159309636E+03    0.31641E-04   -0.34509E-05  2652   0.585E-02    0.167E-02
DAV:   7    -0.152159282032E+03    0.27604E-04   -0.33383E-05  2616   0.519E-02    0.113E-02
DAV:   8    -0.152159229163E+03    0.52869E-04   -0.11221E-05  2168   0.747E-02    0.148E-02
DAV:   9    -0.152159084916E+03    0.14425E-03   -0.15565E-04  3960   0.281E-01    0.177E-02
DAV:  10    -0.152159051038E+03    0.33877E-04   -0.25646E-04  4124   0.191E-01    0.158E-02
DAV:  11    -0.152159062115E+03   -0.11077E-04   -0.24117E-04  3204   0.115E-01    0.213E-02
DAV:  12    -0.152159062169E+03   -0.53746E-07   -0.53392E-05  2860   0.608E-02
  21 F= -.15215906E+03 E0= -.15215653E+03  d E =-.560689E-03
       N       E                     dE             d eps       ncg     rms          rms(c)
DAV:   1    -0.152159002885E+03    0.59230E-04   -0.10004E-01  2900   0.141E+00    0.461E-02
DAV:   2    -0.152159224156E+03   -0.22127E-03   -0.26125E-03  3236   0.210E-01    0.253E-02
DAV:   3    -0.152159214184E+03    0.99719E-05   -0.70695E-05  3144   0.338E-02    0.186E-02
DAV:   4    -0.152159207900E+03    0.62837E-05   -0.20890E-05  2000   0.188E-02    0.929E-03
DAV:   5    -0.152159203274E+03    0.46259E-05   -0.12897E-05  1792   0.222E-02    0.742E-03
DAV:   6    -0.152159200681E+03    0.25931E-05   -0.39154E-06  1720   0.185E-02
  22 F= -.15215920E+03 E0= -.15215669E+03  d E =-.699202E-03
       N       E                     dE             d eps       ncg     rms          rms(c)
DAV:   1    -0.152159101796E+03    0.10148E-03   -0.37151E-01  2904   0.267E+00    0.761E-02
DAV:   2    -0.152159868070E+03   -0.76627E-03   -0.82764E-03  3180   0.362E-01    0.452E-02
DAV:   3    -0.152159819183E+03    0.48887E-04   -0.74058E-05  3128   0.467E-02    0.307E-02
DAV:   4    -0.152159781267E+03    0.37916E-04   -0.10074E-04  3336   0.709E-02    0.956E-03
DAV:   5    -0.152159780015E+03    0.12523E-05   -0.76654E-05  3124   0.413E-02    0.102E-02
DAV:   6    -0.152159779284E+03    0.73087E-06   -0.71001E-06  1656   0.113E-02
  23 F= -.15215978E+03 E0= -.15215722E+03  d E =-.578602E-03
       N       E                     dE             d eps       ncg     rms          rms(c)
DAV:   1    -0.152154169117E+03    0.56109E-02   -0.33413E+00  2904   0.802E+00    0.238E-01
DAV:   2    -0.152161157606E+03   -0.69885E-02   -0.75600E-02  3164   0.109E+00    0.133E-01
DAV:   3    -0.152160731675E+03    0.42593E-03   -0.70652E-04  3400   0.142E-01    0.898E-02
DAV:   4    -0.152160435425E+03    0.29625E-03   -0.92863E-04  3352   0.209E-01    0.287E-02
DAV:   5    -0.152160436804E+03   -0.13790E-05   -0.66007E-04  3252   0.116E-01    0.324E-02
DAV:   6    -0.152160429041E+03    0.77624E-05   -0.45581E-05  2672   0.286E-02
  24 F= -.15216043E+03 E0= -.15215774E+03  d E =-.122836E-02
       N       E                     dE             d eps       ncg     rms          rms(c)
DAV:   1    -0.152160310096E+03    0.12671E-03   -0.30419E-01  2888   0.245E+00    0.910E-02
DAV:   2    -0.152161018550E+03   -0.70845E-03   -0.82537E-03  3260   0.374E-01    0.476E-02
DAV:   3    -0.152160957727E+03    0.60822E-04   -0.13050E-04  3328   0.635E-02    0.333E-02
DAV:   4    -0.152160893078E+03    0.64649E-04   -0.12768E-04  3288   0.754E-02    0.148E-02
DAV:   5    -0.152160863851E+03    0.29227E-04   -0.52818E-05  3056   0.563E-02    0.138E-02
DAV:   6    -0.152160844324E+03    0.19527E-04   -0.35401E-05  2744   0.379E-02    0.686E-03
DAV:   7    -0.152160800013E+03    0.44311E-04   -0.81135E-06  2140   0.627E-02    0.507E-03
DAV:   8    -0.152160747206E+03    0.52807E-04   -0.22514E-05  2456   0.841E-02    0.647E-03
DAV:   9    -0.152160652476E+03    0.94731E-04   -0.10312E-04  3792   0.227E-01    0.124E-02
DAV:  10    -0.152160608609E+03    0.43867E-04   -0.17691E-04  4108   0.236E-01    0.932E-03
DAV:  11    -0.152160625192E+03   -0.16583E-04   -0.21942E-04  3020   0.572E-02    0.112E-02
DAV:  12    -0.152160625471E+03   -0.27962E-06   -0.15795E-05  2048   0.194E-02
  25 F= -.15216063E+03 E0= -.15215786E+03  d E =-.196430E-03
       N       E                     dE             d eps       ncg     rms          rms(c)
DAV:   1    -0.152160533164E+03    0.92028E-04   -0.48679E-02  2968   0.981E-01    0.360E-02
DAV:   2    -0.152160642452E+03   -0.10929E-03   -0.13017E-03  3268   0.147E-01    0.199E-02
DAV:   3    -0.152160631480E+03    0.10972E-04   -0.18027E-05  2200   0.231E-02    0.134E-02
DAV:   4    -0.152160621318E+03    0.10162E-04   -0.31621E-05  2632   0.302E-02    0.681E-03
DAV:   5    -0.152160619966E+03    0.13516E-05   -0.85694E-06  1700   0.160E-02    0.568E-03
DAV:   6    -0.152160618404E+03    0.15628E-05   -0.42465E-06  1792   0.131E-02
  26 F= -.15216062E+03 E0= -.15215789E+03  d E =-.189362E-03
       N       E                     dE             d eps       ncg     rms          rms(c)
DAV:   1    -0.152160615824E+03    0.41428E-05   -0.94104E-03  2920   0.430E-01    0.139E-02
DAV:   2    -0.152160637981E+03   -0.22157E-04   -0.24357E-04  3284   0.628E-02    0.807E-03
DAV:   3    -0.152160636709E+03    0.12716E-05   -0.29620E-06  1632   0.883E-03    0.562E-03
DAV:   4    -0.152160635797E+03    0.91171E-06   -0.32806E-06  1572   0.962E-03    0.181E-03
DAV:   5    -0.152160635846E+03   -0.48815E-07   -0.11589E-06  1528   0.505E-03    0.191E-03
DAV:   6    -0.152160635803E+03    0.42698E-07   -0.33560E-07  1504   0.415E-03
  27 F= -.15216064E+03 E0= -.15215789E+03  d E =-.206762E-03
       N       E                     dE             d eps       ncg     rms          rms(c)
DAV:   1    -0.152160835064E+03   -0.19922E-03   -0.78434E-02  2864   0.123E+00    0.453E-02
DAV:   2    -0.152160997249E+03   -0.16218E-03   -0.23807E-03  3276   0.209E-01    0.328E-02
DAV:   3    -0.152160966701E+03    0.30548E-04   -0.10093E-04  3320   0.585E-02    0.252E-02
DAV:   4    -0.152160938278E+03    0.28424E-04   -0.35791E-05  2880   0.363E-02    0.138E-02
DAV:   5    -0.152160901321E+03    0.36957E-04   -0.16333E-05  2276   0.586E-02    0.840E-03
DAV:   6    -0.152160867245E+03    0.34076E-04   -0.37764E-05  2968   0.840E-02    0.667E-03
DAV:   7    -0.152160845500E+03    0.21744E-04   -0.47955E-05  3192   0.881E-02    0.648E-03
DAV:   8    -0.152160829972E+03    0.15528E-04   -0.22819E-05  2468   0.852E-02    0.935E-03
DAV:   9    -0.152160816144E+03    0.13828E-04   -0.17196E-05  2324   0.740E-02    0.556E-03
DAV:  10    -0.152160813532E+03    0.26118E-05   -0.40351E-05  2748   0.417E-02
  28 F= -.15216081E+03 E0= -.15215801E+03  d E =-.177729E-03
       N       E                     dE             d eps       ncg     rms          rms(c)
DAV:   1    -0.152160856092E+03   -0.39949E-04   -0.70187E-03  2928   0.369E-01    0.167E-02
DAV:   2    -0.152160865735E+03   -0.96426E-05   -0.21707E-04  3296   0.689E-02    0.953E-03
DAV:   3    -0.152160862557E+03    0.31776E-05   -0.17166E-05  2080   0.225E-02    0.701E-03
DAV:   4    -0.152160859186E+03    0.33711E-05   -0.35629E-06  1780   0.114E-02    0.401E-03
DAV:   5    -0.152160854703E+03    0.44836E-05   -0.35348E-06  1976   0.211E-02    0.284E-03
DAV:   6    -0.152160851857E+03    0.28461E-05   -0.65026E-06  2104   0.278E-02
  29 F= -.15216085E+03 E0= -.15215807E+03  d E =-.216053E-03
       N       E                     dE             d eps       ncg     rms          rms(c)
DAV:   1    -0.152160851534E+03    0.31688E-05   -0.26044E-04  2936   0.768E-02    0.327E-03
DAV:   2    -0.152160852588E+03   -0.10542E-05   -0.15271E-05  1912   0.159E-02    0.420E-03
DAV:   3    -0.152160852427E+03    0.16125E-06   -0.85970E-07  1620   0.380E-03    0.361E-03
DAV:   4    -0.152160852086E+03    0.34045E-06   -0.35444E-06  1584   0.757E-03    0.219E-03
DAV:   5    -0.152160851989E+03    0.97849E-07   -0.42205E-07  1564   0.351E-03    0.142E-03
DAV:   6    -0.152160851944E+03    0.44374E-07   -0.14004E-07  1524   0.243E-03
  30 F= -.15216085E+03 E0= -.15215807E+03  d E =-.216141E-03
       N       E                     dE             d eps       ncg     rms          rms(c)
DAV:   1    -0.152160961882E+03   -0.10989E-03   -0.15826E-02  2928   0.548E-01    0.185E-02
DAV:   2    -0.152160989237E+03   -0.27355E-04   -0.42089E-04  3288   0.872E-02    0.130E-02
DAV:   3    -0.152160983184E+03    0.60528E-05   -0.11544E-05  1968   0.203E-02    0.100E-02
DAV:   4    -0.152160975918E+03    0.72667E-05   -0.75523E-06  1932   0.198E-02    0.496E-03
DAV:   5    -0.152160969687E+03    0.62304E-05   -0.78044E-06  2000   0.265E-02    0.381E-03
DAV:   6    -0.152160968649E+03    0.10383E-05   -0.84079E-06  1644   0.143E-02
  31 F= -.15216097E+03 E0= -.15215818E+03  d E =-.116705E-03
