 vasp.5.3.5 31Mar14 (build Apr 08 2024 10:12:10) complex                        
  
 executed on             LinuxIFC date 2024.07.29  11:40:05
 running on    8 total cores
 distrk:  each k-point on    8 cores,    1 groups
 distr:  one band on NCORES_PER_BAND=   4 cores,    2 groups


--------------------------------------------------------------------------------------------------------


 INCAR:
 POTCAR:    PAW_PBE O 08Apr2002                   
 POTCAR:    PAW_PBE Mg 13Apr2007                  
 POTCAR:    PAW_PBE Al 04Jan2001                  
 POTCAR:    PAW_PBE O 08Apr2002                   
   VRHFIN =O: s2p4                                                              
   LEXCH  = PE                                                                  
   EATOM  =   432.3788 eV,   31.7789 Ry                                         
                                                                                
   TITEL  = PAW_PBE O 08Apr2002                                                 
   LULTRA =        F    use ultrasoft PP ?                                      
   IUNSCR =        1    unscreen: 0-lin 1-nonlin 2-no                           
   RPACOR =    1.200    partial core radius                                     
   POMASS =   16.000; ZVAL   =    6.000    mass and valenz                      
   RCORE  =    1.520    outmost cutoff radius                                   
   RWIGS  =    1.550; RWIGS  =    0.820    wigner-seitz radius (au A)           
   ENMAX  =  400.000; ENMIN  =  300.000 eV                                      
   ICORE  =        2    local potential                                         
   LCOR   =        T    correct aug charges                                     
   LPAW   =        T    paw PP                                                  
   EAUG   =  605.392                                                            
   DEXC   =    0.000                                                            
   RMAX   =    1.553    core radius for proj-oper                               
   RAUG   =    1.300    factor for augmentation sphere                          
   RDEP   =    1.550    radius for radial grids                                 
   RDEPT  =    1.329    core radius for aug-charge                              
                                                                                
   Atomic configuration                                                         
    4 entries                                                                   
     n  l   j            E        occ.                                          
     1  0  0.50      -514.6923   2.0000                                         
     2  0  0.50       -23.9615   2.0000                                         
     2  1  0.50        -9.0305   4.0000                                         
     3  2  1.50        -9.5241   0.0000                                         
   Description                                                                  
     l       E           TYP  RCUT    TYP  RCUT                                 
     0    -23.9615318     23  1.200                                             
     0     -9.5240782     23  1.200                                             
     1     -9.0304911     23  1.520                                             
     1      8.1634956     23  1.520                                             
     2     -9.5240782      7  1.500                                             
  local pseudopotential read in
  partial core-charges read in
  partial kinetic energy density read in
  kinetic energy density of atom read in
  atomic valenz-charges read in
  non local Contribution for L=           0  read in
    real space projection operators read in
  non local Contribution for L=           0  read in
    real space projection operators read in
  non local Contribution for L=           1  read in
    real space projection operators read in
  non local Contribution for L=           1  read in
    real space projection operators read in
    PAW grid and wavefunctions read in
 
   number of l-projection  operators is LMAX  =           4
   number of lm-projection operators is LMMAX =           8
 
 POTCAR:    PAW_PBE Mg 13Apr2007                  
   VRHFIN =Mg: s2p0                                                             
   LEXCH  = PE                                                                  
   EATOM  =    23.0369 eV,    1.6932 Ry                                         
                                                                                
   TITEL  = PAW_PBE Mg 13Apr2007                                                
   LULTRA =        F    use ultrasoft PP ?                                      
   IUNSCR =        1    unscreen: 0-lin 1-nonlin 2-no                           
   RPACOR =    1.500    partial core radius                                     
   POMASS =   24.305; ZVAL   =    2.000    mass and valenz                      
   RCORE  =    2.000    outmost cutoff radius                                   
   RWIGS  =    2.880; RWIGS  =    1.524    wigner-seitz radius (au A)           
   ENMAX  =  200.000; ENMIN  =  100.000 eV                                      
   RCLOC  =    1.506    cutoff for local pot                                    
   LCOR   =        T    correct aug charges                                     
   LPAW   =        T    paw PP                                                  
   EAUG   =  454.734                                                            
   DEXC   =    0.000                                                            
   RMAX   =    2.045    core radius for proj-oper                               
   RAUG   =    1.300    factor for augmentation sphere                          
   RDEP   =    2.025    radius for radial grids                                 
   RDEPT  =    1.942    core radius for aug-charge                              
                                                                                
   Atomic configuration                                                         
    6 entries                                                                   
     n  l   j            E        occ.                                          
     1  0  0.50     -1259.6230   2.0000                                         
     2  0  0.50       -79.8442   2.0000                                         
     2  1  1.50       -46.6121   6.0000                                         
     3  0  0.50        -4.7055   2.0000                                         
     3  1  0.50        -1.3660   0.0000                                         
     3  2  1.50        -1.3606   0.0000                                         
   Description                                                                  
     l       E           TYP  RCUT    TYP  RCUT                                 
     0     -4.7054661     23  2.000                                             
     0     27.2116520     23  2.000                                             
     1      1.3605826     23  2.000                                             
     1     27.2116520     23  2.000                                             
     2     -1.3605826     23  2.000                                             
  local pseudopotential read in
  partial core-charges read in
  partial kinetic energy density read in
  atomic valenz-charges read in
  non local Contribution for L=           0  read in
    real space projection operators read in
  non local Contribution for L=           0  read in
    real space projection operators read in
  non local Contribution for L=           1  read in
    real space projection operators read in
  non local Contribution for L=           1  read in
    real space projection operators read in
  non local Contribution for L=           2  read in
    real space projection operators read in
    PAW grid and wavefunctions read in
 
   number of l-projection  operators is LMAX  =           5
   number of lm-projection operators is LMMAX =          13
 
 POTCAR:    PAW_PBE Al 04Jan2001                  
   VRHFIN =Al: s2p1                                                             
   LEXCH  = PE                                                                  
   EATOM  =    53.5387 eV,    3.9350 Ry                                         
                                                                                
   TITEL  = PAW_PBE Al 04Jan2001                                                
   LULTRA =        F    use ultrasoft PP ?                                      
   IUNSCR =        1    unscreen: 0-lin 1-nonlin 2-no                           
   RPACOR =    1.500    partial core radius                                     
   POMASS =   26.981; ZVAL   =    3.000    mass and valenz                      
   RCORE  =    1.900    outmost cutoff radius                                   
   RWIGS  =    2.650; RWIGS  =    1.402    wigner-seitz radius (au A)           
   ENMAX  =  240.300; ENMIN  =  180.225 eV                                      
   ICORE  =        2    local potential                                         
   LCOR   =        T    correct aug charges                                     
   LPAW   =        T    paw PP                                                  
   EAUG   =  291.052                                                            
   DEXC   =    0.000                                                            
   RMAX   =    1.939    core radius for proj-oper                               
   RAUG   =    1.300    factor for augmentation sphere                          
   RDEP   =    1.966    radius for radial grids                                 
   RDEPT  =    1.856    core radius for aug-charge                              
                                                                                
   Atomic configuration                                                         
    6 entries                                                                   
     n  l   j            E        occ.                                          
     1  0  0.50     -1511.1048   2.0000                                         
     2  0  0.50      -108.1629   2.0000                                         
     2  1  1.50       -69.6402   6.0000                                         
     3  0  0.50        -7.7528   2.0000                                         
     3  1  1.50        -2.7121   1.0000                                         
     3  2  2.50        -2.7212   0.0000                                         
   Description                                                                  
     l       E           TYP  RCUT    TYP  RCUT                                 
     0     -7.7528455     23  1.900                                             
     0     -3.3096929     23  1.900                                             
     1     -2.7120682     23  1.900                                             
     1     13.6058260     23  1.900                                             
     2     -2.7211652      7  1.900                                             
  local pseudopotential read in
  partial core-charges read in
  partial kinetic energy density read in
  atomic valenz-charges read in
  non local Contribution for L=           0  read in
    real space projection operators read in
  non local Contribution for L=           0  read in
    real space projection operators read in
  non local Contribution for L=           1  read in
    real space projection operators read in
  non local Contribution for L=           1  read in
    real space projection operators read in
    PAW grid and wavefunctions read in
 
   number of l-projection  operators is LMAX  =           4
   number of lm-projection operators is LMMAX =           8
 

 ----------------------------------------------------------------------------- 
|                                                                             |
|  ADVICE TO THIS USER RUNNING 'VASP/VAMP'   (HEAR YOUR MASTER'S VOICE ...):  |
|                                                                             |
|      You have a (more or less) 'large supercell' and for larger cells       |
|      it might be more efficient to use real space projection opertators     |
|      So try LREAL= Auto  in the INCAR   file.                               |
|      Mind: At the moment your POTCAR file does not contain real space       |
|       projectors, and has to be modified,  BUT if you                       |
|      want to do an extremely  accurate calculation you might also keep the  |
|      reciprocal projection scheme          (i.e. LREAL=.FALSE.)             |
|                                                                             |
 ----------------------------------------------------------------------------- 

  PAW_PBE O 08Apr2002                   :
 energy of atom  1       EATOM= -432.3788
 kinetic energy error for atom=    0.0208 (will be added to EATOM!!)
  PAW_PBE Mg 13Apr2007                  :
 energy of atom  2       EATOM=  -23.0369
 kinetic energy error for atom=    0.0000 (will be added to EATOM!!)
  PAW_PBE Al 04Jan2001                  :
 energy of atom  3       EATOM=  -53.5387
 kinetic energy error for atom=    0.0002 (will be added to EATOM!!)
 
 
 POSCAR: Layer                                   
  positions in direct lattice
  velocities in cartesian coordinates
 exchange correlation table for  LEXCH =        8
   RHO(1)=    0.500       N(1)  =     2000
   RHO(2)=  100.500       N(2)  =     4000
 


--------------------------------------------------------------------------------------------------------


 ion  position               nearest neighbor table
   1  0.333  0.667  0.228-  12 2.15  12 2.15  12 2.15  23 2.28  23 2.28  23 2.28
   2  0.000  0.000  0.347-  16 2.13  16 2.13  16 2.13  19 2.13  19 2.13  19 2.13
   3  0.333  0.667  0.406-  13 2.13  13 2.13  13 2.13  16 2.13  16 2.13  16 2.13
   4  0.000  0.000  0.525-  17 2.13  17 2.13  17 2.13  20 2.13  20 2.13  20 2.13
   5  0.333  0.667  0.584-  17 2.13  17 2.13  17 2.13  14 2.13  14 2.13  14 2.13
   6  0.000  0.000  0.702-  21 2.13  21 2.13  21 2.13  18 2.13  18 2.13  18 2.13
   7  0.333  0.667  0.761-  15 2.13  15 2.13  15 2.13  18 2.13  18 2.13  18 2.13
   8  0.667  0.333  0.288-  12 2.13  12 2.13  12 2.13  19 2.14  19 2.14  19 2.14
   9  0.667  0.333  0.465-  20 2.13  20 2.13  20 2.13  13 2.13  13 2.13  13 2.13
  10  0.667  0.333  0.643-  14 2.13  14 2.13  14 2.13  21 2.14  21 2.14  21 2.14
  11  0.667  0.333  0.821-  15 2.15  15 2.15  15 2.15  26 2.28  26 2.28  26 2.28
  12  0.000  0.000  0.258-   8 2.13   8 2.13   8 2.13   1 2.15   1 2.15   1 2.15  23 2.81  19 3.06
                            19 3.06  19 3.06
  13  0.000  0.000  0.436-   3 2.13   3 2.13   3 2.13   9 2.13   9 2.13   9 2.13  16 3.06  16 3.06
                            16 3.06  20 3.06  20 3.06  20 3.06
  14  0.000  0.000  0.613-  10 2.13  10 2.13  10 2.13   5 2.13   5 2.13   5 2.13  21 3.06  21 3.06
                            21 3.06  17 3.06  17 3.06  17 3.06
  15  0.000  0.000  0.791-   7 2.13   7 2.13   7 2.13  11 2.15  11 2.15  11 2.15  26 2.81  18 3.06
                            18 3.06  18 3.06
  16  0.667  0.333  0.377-   2 2.13   2 2.13   2 2.13   3 2.13   3 2.13   3 2.13  19 3.06  19 3.06
                            19 3.06  13 3.06  13 3.06  13 3.06
  17  0.667  0.333  0.554-   4 2.13   4 2.13   4 2.13   5 2.13   5 2.13   5 2.13  20 3.06  20 3.06
                            20 3.06  14 3.06  14 3.06  14 3.06
  18  0.667  0.333  0.732-   6 2.13   6 2.13   6 2.13   7 2.13   7 2.13   7 2.13  15 3.06  15 3.06
                            15 3.06  21 3.06  21 3.06  21 3.06
  19  0.333  0.667  0.317-   2 2.13   2 2.13   2 2.13   8 2.14   8 2.14   8 2.14  12 3.06  12 3.06
                            12 3.06  16 3.06  16 3.06  16 3.06
  20  0.333  0.667  0.495-   9 2.13   9 2.13   9 2.13   4 2.13   4 2.13   4 2.13  17 3.06  17 3.06
                            17 3.06  13 3.06  13 3.06  13 3.06
  21  0.333  0.667  0.673-   6 2.13   6 2.13   6 2.13  10 2.14  10 2.14  10 2.14  18 3.06  18 3.06
                            18 3.06  14 3.06  14 3.06  14 3.06
  22  0.000  0.000  0.025-  25 2.96  25 2.96  25 2.96  27 2.96  27 2.96  27 2.96
  23  0.000  0.000  0.193-   1 2.28   1 2.28   1 2.28  12 2.81  24 2.90  24 2.90  24 2.90
  24  0.667  0.333  0.138-  23 2.90  23 2.90  23 2.90  25 2.99  25 2.99  25 2.99
  25  0.333  0.667  0.081-  22 2.96  22 2.96  22 2.96  24 2.99  24 2.99  24 2.99
  26  0.000  0.000  0.856-  11 2.28  11 2.28  11 2.28  15 2.81  28 2.90  28 2.90  28 2.90
  27  0.667  0.333  0.968-  22 2.96  22 2.96  22 2.96  28 2.99  28 2.99  28 2.99
  28  0.333  0.667  0.911-  26 2.90  26 2.90  26 2.90  27 2.99  27 2.99  27 2.99
 
  LATTYP: Found a hexagonal cell.
 ALAT       =     2.9737040142
 C/A-ratio  =    14.4103274877
  
  Lattice vectors:
  
 A1 = (   2.5753034102,  -1.4868516771,   0.0000000000)
 A2 = (   0.0000000000,   2.9737033542,   0.0000000000)
 A3 = (  -0.0000000000,   0.0000000000,  42.8520486961)


Analysis of symmetry for initial positions (statically):
=====================================================================
 Subroutine PRICEL returns:
 Original cell was already a primitive cell.
 

 Routine SETGRP: Setting up the symmetry group for a 
 hexagonal supercell.


 Subroutine GETGRP returns: Found 12 space group operations
 (whereof  6 operations were pure point group operations)
 out of a pool of 24 trial point group operations.


The static configuration has the point symmetry C_3v.
 The point group associated with its full space group is D_3d.


Analysis of symmetry for dynamics (positions and initial velocities):
=====================================================================
 Subroutine PRICEL returns:
 Original cell was already a primitive cell.
 

 Routine SETGRP: Setting up the symmetry group for a 
 hexagonal supercell.


 Subroutine GETGRP returns: Found 12 space group operations
 (whereof  6 operations were pure point group operations)
 out of a pool of 24 trial point group operations.


The dynamic configuration has the point symmetry C_3v.
 The point group associated with its full space group is D_3d.


Analysis of constrained symmetry for selective dynamics:
=====================================================================
 Subroutine PRICEL returns:
 Original cell was already a primitive cell.
 

 Routine SETGRP: Setting up the symmetry group for a 
 hexagonal supercell.


 Subroutine GETGRP returns: Found 12 space group operations
 (whereof  6 operations were pure point group operations)
 out of a pool of 24 trial point group operations.


The constrained configuration has the point symmetry C_3v.
 The point group associated with its full space group is D_3d.
 
 
 KPOINTS: K-Spacing Value to Generate K-Mesh: 0.02

Automatic generation of k-mesh.
Space group operators:
 irot       det(A)        alpha          n_x          n_y          n_z        tau_x        tau_y        tau_z
    1     1.000000     0.000001     1.000000     0.000000     0.000000     0.000000     0.000000     0.000000
    2     1.000000   120.000000     0.000000     0.000000    -1.000000     0.000000     0.000000     0.000000
    3     1.000000   120.000000    -0.000000     0.000000     1.000000     0.000000     0.000000     0.000000
    4    -1.000000   180.000000    -0.866025     0.500000    -0.000000     0.000000     0.000000     0.000000
    5    -1.000000   180.000000     0.000000     1.000000     0.000000     0.000000     0.000000     0.000000
    6    -1.000000   180.000000    -0.866025    -0.500000    -0.000000     0.000000     0.000000     0.000000
    7    -1.000000     0.000001     1.000000     0.000000     0.000000     0.000000     0.000000     0.049083
    8    -1.000000   120.000000     0.000000     0.000000    -1.000000     0.000000     0.000000     0.049083
    9    -1.000000   120.000000    -0.000000     0.000000     1.000000     0.000001     0.000000     0.049083
   10     1.000000   180.000000    -0.866025     0.500000    -0.000000     0.000001     0.000000     0.049083
   11     1.000000   180.000000     0.000000     1.000000     0.000000     0.000000     0.000000     0.049083
   12     1.000000   180.000000    -0.866025    -0.500000    -0.000000     0.000000     0.000000     0.049083
 
 Subroutine IBZKPT returns following result:
 ===========================================
 
 Found     21 irreducible k-points:
 
 Following reciprocal coordinates:
            Coordinates               Weight
  0.000000  0.000000  0.000000      1.000000
  0.076923  0.000000  0.000000      6.000000
  0.153846  0.000000  0.000000      6.000000
  0.230769  0.000000  0.000000      6.000000
  0.307692  0.000000 -0.000000      6.000000
  0.384615  0.000000  0.000000      6.000000
  0.461538  0.000000  0.000000      6.000000
  0.076923  0.076923  0.000000      6.000000
  0.153846  0.076923 -0.000000     12.000000
  0.230769  0.076923  0.000000     12.000000
  0.307692  0.076923  0.000000     12.000000
  0.384615  0.076923  0.000000     12.000000
  0.461538  0.076923  0.000000      6.000000
  0.153846  0.153846  0.000000      6.000000
  0.230769  0.153846  0.000000     12.000000
  0.307692  0.153846  0.000000     12.000000
  0.384615  0.153846  0.000000     12.000000
  0.230769  0.230769  0.000000      6.000000
  0.307692  0.230769  0.000000     12.000000
  0.384615  0.230769  0.000000      6.000000
  0.307692  0.307692  0.000000      6.000000
 
 Following cartesian coordinates:
            Coordinates               Weight
  0.000000  0.000000  0.000000      1.000000
  0.029870  0.000000  0.000000      6.000000
  0.059739  0.000000  0.000000      6.000000
  0.089609  0.000000  0.000000      6.000000
  0.119478  0.000000  0.000000      6.000000
  0.149348  0.000000  0.000000      6.000000
  0.179217  0.000000  0.000000      6.000000
  0.044804  0.025868  0.000000      6.000000
  0.074674  0.025868  0.000000     12.000000
  0.104543  0.025868  0.000000     12.000000
  0.134413  0.025868  0.000000     12.000000
  0.164282  0.025868  0.000000     12.000000
  0.194152  0.025868  0.000000      6.000000
  0.089609  0.051736  0.000000      6.000000
  0.119478  0.051736  0.000000     12.000000
  0.149348  0.051736  0.000000     12.000000
  0.179217  0.051736  0.000000     12.000000
  0.134413  0.077603  0.000000      6.000000
  0.164282  0.077603  0.000000     12.000000
  0.194152  0.077603  0.000000      6.000000
  0.179217  0.103471  0.000000      6.000000
 


--------------------------------------------------------------------------------------------------------




 Dimension of arrays:
   k-points           NKPTS =     21   k-points in BZ     NKDIM =     21   number of bands    NBANDS=     68
   number of dos      NEDOS =    301   number of ions     NIONS =     28
   non local maximal  LDIM  =      5   non local SUM 2l+1 LMDIM =     13
   total plane-waves  NPLWV = 184320
   max r-space proj   IRMAX =      1   max aug-charges    IRDMAX= 191052
   dimension x,y,z NGX =    24 NGY =   24 NGZ =  320
   dimension x,y,z NGXF=    48 NGYF=   48 NGZF=  640
   support grid    NGXF=    96 NGYF=   96 NGZF= 1280
   ions per type =              11  10   7
 NGX,Y,Z   is equivalent  to a cutoff of  13.42, 13.42, 12.41 a.u.
 NGXF,Y,Z  is equivalent  to a cutoff of  26.83, 26.83, 24.83 a.u.


 I would recommend the setting:
   dimension x,y,z NGX =    22 NGY =   22 NGZ =  319
 SYSTEM =  unknown system                          
 POSCAR =  Layer                                   

 Startparameter for this run:
   NWRITE =      2    write-flag & timer
   PREC   = accura    normal or accurate (medium, high low for compatibility)
   ISTART =      0    job   : 0-new  1-cont  2-samecut
   ICHARG =      2    charge: 1-file 2-atom 10-const
   ISPIN  =      1    spin polarized calculation?
   LNONCOLLINEAR =      F non collinear calculations
   LSORBIT =      F    spin-orbit coupling
   INIWAV =      1    electr: 0-lowe 1-rand  2-diag
   LASPH  =      F    aspherical Exc in radial PAW
   METAGGA=      F    non-selfconsistent MetaGGA calc.

 Electronic Relaxation 1
   ENCUT  =  520.0 eV  38.22 Ry    6.18 a.u.   5.53  5.53 79.68*2*pi/ulx,y,z
   ENINI  =  520.0     initial cutoff
   ENAUG  =  605.4 eV  augmentation charge cutoff
   NELM   =    100;   NELMIN=  6; NELMDL=  0     # of ELM steps 
   EDIFF  = 0.1E-04   stopping-criterion for ELM
   LREAL  =      F    real-space projection
   NLSPLINE    = F    spline interpolate recip. space projectors
   LCOMPAT=      F    compatible to vasp.4.4
   GGA_COMPAT  = T    GGA compatible to vasp.4.4-vasp.4.6
   LMAXPAW     = -100 max onsite density
   LMAXMIX     =    2 max onsite mixed and CHGCAR
   VOSKOWN=      0    Vosko Wilk Nusair interpolation
   ROPT   =    0.00000   0.00000   0.00000
 Ionic relaxation
   EDIFFG = -.2E-01   stopping-criterion for IOM
   NSW    =    500    number of steps for IOM
   NBLOCK =      1;   KBLOCK =    500    inner block; outer block 
   IBRION =      2    ionic relax: 0-MD 1-quasi-New 2-CG
   NFREE  =      1    steps in history (QN), initial steepest desc. (CG)
   ISIF   =      2    stress and relaxation
   IWAVPR =     11    prediction:  0-non 1-charg 2-wave 3-comb
   ISYM   =      2    0-nonsym 1-usesym 2-fastsym
   LCORR  =      T    Harris-Foulkes like correction to forces

   POTIM  = 0.5000    time-step for ionic-motion
   TEIN   =    0.0    initial temperature
   TEBEG  =    0.0;   TEEND  =   0.0 temperature during run
   SMASS  =  -3.00    Nose mass-parameter (am)
   estimated Nose-frequenzy (Omega)   =  0.10E-29 period in steps =****** mass=  -0.202E-27a.u.
   SCALEE = 1.0000    scale energy and forces
   NPACO  =    256;   APACO  = 16.0  distance and # of slots for P.C.
   PSTRESS=    0.0 pullay stress

  Mass of Ions in am
   POMASS =  16.00 24.30 26.98
  Ionic Valenz
   ZVAL   =   6.00  2.00  3.00
  Atomic Wigner-Seitz radii
   RWIGS  =  -1.00 -1.00 -1.00
  virtual crystal weights 
   VCA    =   1.00  1.00  1.00
   NELECT =     107.0000    total number of electrons
   NUPDOWN=      -1.0000    fix difference up-down

 DOS related values:
   EMIN   =  10.00;   EMAX   =-10.00  energy-range for DOS
   EFERMI =   0.00
   ISMEAR =     0;   SIGMA  =   0.05  broadening in eV -4-tet -1-fermi 0-gaus

 Electronic relaxation 2 (details)
   IALGO  =     38    algorithm
   LDIAG  =      T    sub-space diagonalisation (order eigenvalues)
   LSUBROT=      F    optimize rotation matrix (better conditioning)
   TURBO    =      0    0=normal 1=particle mesh
   IRESTART =      0    0=no restart 2=restart with 2 vectors
   NREBOOT  =      0    no. of reboots
   NMIN     =      0    reboot dimension
   EREF     =   0.00    reference energy to select bands
   IMIX   =      4    mixing-type and parameters
     AMIX     =   0.40;   BMIX     =  1.00
     AMIX_MAG =   1.60;   BMIX_MAG =  1.00
     AMIN     =   0.01
     WC   =   100.;   INIMIX=   1;  MIXPRE=   1;  MAXMIX= -45

 Intra band minimization:
   WEIMIN = 0.0010     energy-eigenvalue tresh-hold
   EBREAK =  0.37E-07  absolut break condition
   DEPER  =   0.30     relativ break condition  

   TIME   =   0.40     timestep for ELM

  volume/ion in A,a.u.               =      11.72        79.09
  Fermi-wavevector in a.u.,A,eV,Ry     =   1.126774  2.129294 17.274229  1.269620
  Thomas-Fermi vector in A             =   2.263457
 
 Write flags
   LWAVE  =      F    write WAVECAR
   LCHARG =      T    write CHGCAR
   LVTOT  =      F    write LOCPOT, total local potential
   LVHAR  =      F    write LOCPOT, Hartree potential only
   LELF   =      F    write electronic localiz. function (ELF)
   LORBIT =      0    0 simple, 1 ext, 2 COOP (PROOUT)


 Dipole corrections
   LMONO  =      F    monopole corrections only (constant potential shift)
   LDIPOL =      F    correct potential (dipole corrections)
   IDIPOL =      0    1-x, 2-y, 3-z, 4-all directions 
   EPSILON=  1.0000000 bulk dielectric constant

 Exchange correlation treatment:
   GGA     =    --    GGA type
   LEXCH   =     8    internal setting for exchange type
   VOSKOWN=      0    Vosko Wilk Nusair interpolation
   LHFCALC =     F    Hartree Fock is set to
   LHFONE  =     F    Hartree Fock one center treatment
   AEXX    =    0.0000 exact exchange contribution

 Linear response parameters
   LEPSILON=     F    determine dielectric tensor
   LRPA    =     F    only Hartree local field effects (RPA)
   LNABLA  =     F    use nabla operator in PAW spheres
   LVEL    =     F    velocity operator in full k-point grid
   LINTERFAST=   F  fast interpolation
   KINTER  =     0    interpolate to denser k-point grid
   CSHIFT  =0.1000    complex shift for real part using Kramers Kronig
   OMEGAMAX=  -1.0    maximum frequency
   DEG_THRESHOLD= 0.2000000E-02 threshold for treating states as degnerate
   RTIME   =    0.100 relaxation time in fs

 Orbital magnetization related:
   ORBITALMAG=     F  switch on orbital magnetization
   LCHIMAG   =     F  perturbation theory with respect to B field
   DQ        =  0.001000  dq finite difference perturbation B field



--------------------------------------------------------------------------------------------------------


 conjugate gradient relaxation of ions
   using selective dynamics as specified on POSCAR
 charge density and potential will be updated during run
 non-spin polarized calculation
 Variant of blocked Davidson
 Davidson routine will perform the subspace rotation
 perform sub-space diagonalisation
    after iterative eigenvector-optimisation
 modified Broyden-mixing scheme, WC =      100.0
 initial mixing is a Kerker type mixing with AMIX =  0.4000 and BMIX =      1.0000
 Hartree-type preconditioning will be used
 using additional bands           14
 reciprocal scheme for non local part
 use partial core corrections
 calculate Harris-corrections to forces 
   (improved forces if not selfconsistent)
 use gradient corrections 
 use of overlap-Matrix (Vanderbilt PP)
 Gauss-broadening in eV      SIGMA  =   0.05


--------------------------------------------------------------------------------------------------------


  energy-cutoff  :      520.00
  volume of cell :      328.17
      direct lattice vectors                 reciprocal lattice vectors
     2.575303410 -1.486851677  0.000000000     0.388303761  0.000000000  0.000000000
     0.000000000  2.973703354  0.000000000     0.194151881  0.336281021  0.000000000
    -0.000000000  0.000000000 42.852048696     0.000000000  0.000000000  0.023336107

  length of vectors
     2.973704014  2.973703354 42.852048696     0.388303761  0.388303847  0.023336107


 
 k-points in units of 2pi/SCALE and weight: K-Spacing Value to Generate K-Mesh: 0.02
   0.00000000  0.00000000  0.00000000       0.006
   0.02986952  0.00000000  0.00000000       0.036
   0.05973904  0.00000000  0.00000000       0.036
   0.08960856  0.00000000  0.00000000       0.036
   0.11947808  0.00000000  0.00000000       0.036
   0.14934760  0.00000000  0.00000000       0.036
   0.17921712  0.00000000  0.00000000       0.036
   0.04480428  0.02586777  0.00000000       0.036
   0.07467380  0.02586777  0.00000000       0.071
   0.10454332  0.02586777  0.00000000       0.071
   0.13441284  0.02586777  0.00000000       0.071
   0.16428236  0.02586777  0.00000000       0.071
   0.19415188  0.02586777  0.00000000       0.036
   0.08960856  0.05173554  0.00000000       0.036
   0.11947808  0.05173554  0.00000000       0.071
   0.14934760  0.05173554  0.00000000       0.071
   0.17921712  0.05173554  0.00000000       0.071
   0.13441284  0.07760331  0.00000000       0.036
   0.16428236  0.07760331  0.00000000       0.071
   0.19415188  0.07760331  0.00000000       0.036
   0.17921712  0.10347108  0.00000000       0.036
 
 k-points in reciprocal lattice and weights: K-Spacing Value to Generate K-Mesh: 0.02
   0.00000000  0.00000000  0.00000000       0.006
   0.07692308  0.00000000  0.00000000       0.036
   0.15384615  0.00000000  0.00000000       0.036
   0.23076923  0.00000000  0.00000000       0.036
   0.30769231  0.00000000 -0.00000000       0.036
   0.38461538  0.00000000  0.00000000       0.036
   0.46153846  0.00000000  0.00000000       0.036
   0.07692308  0.07692308  0.00000000       0.036
   0.15384615  0.07692308 -0.00000000       0.071
   0.23076923  0.07692308  0.00000000       0.071
   0.30769231  0.07692308  0.00000000       0.071
   0.38461538  0.07692308  0.00000000       0.071
   0.46153846  0.07692308  0.00000000       0.036
   0.15384615  0.15384615  0.00000000       0.036
   0.23076923  0.15384615  0.00000000       0.071
   0.30769231  0.15384615  0.00000000       0.071
   0.38461538  0.15384615  0.00000000       0.071
   0.23076923  0.23076923  0.00000000       0.036
   0.30769231  0.23076923  0.00000000       0.071
   0.38461538  0.23076923  0.00000000       0.036
   0.30769231  0.30769231  0.00000000       0.036
 
 position of ions in fractional coordinates (direct lattice) 
   0.33333300  0.66666700  0.22779740
   0.00000000  0.00000000  0.34691746
   0.33333300  0.66666700  0.40612778
   0.00000000  0.00000000  0.52454119
   0.33333300  0.66666700  0.58374897
   0.00000000  0.00000000  0.70216081
   0.33333300  0.66666700  0.76138574
   0.66666700  0.33333300  0.28769502
   0.66666700  0.33333300  0.46533335
   0.66666700  0.33333300  0.64295299
   0.66666700  0.33333300  0.82128387
   0.00000000  0.00000000  0.25812669
   0.00000000  0.00000000  0.43571885
   0.00000000  0.00000000  0.61336257
   0.00000000  0.00000000  0.79095463
   0.66666700  0.33333300  0.37651351
   0.66666700  0.33333300  0.55414296
   0.66666700  0.33333300  0.73177131
   0.33333300  0.66666700  0.31731462
   0.33333300  0.66666700  0.49493714
   0.33333300  0.66666700  0.67257200
   0.00000000  0.00000000  0.02454226
   0.00000000  0.00000000  0.19261293
   0.66666700  0.33333300  0.13809355
   0.33333300  0.66666700  0.08087413
   0.00000000  0.00000000  0.85647081
   0.66666700  0.33333300  0.96820859
   0.33333300  0.66666700  0.91098988
 
 position of ions in cartesian coordinates  (Angst):
   0.85843361  1.48685316  9.76158511
  -0.00000000  0.00000000 14.86612378
   0.85843361  1.48685316 17.40340746
  -0.00000000  0.00000000 22.47766448
   0.85843361  1.48685316 25.01483949
  -0.00000000  0.00000000 30.08902903
   0.85843361  1.48685316 32.62693886
   1.71686980 -0.00000149 12.32832091
   1.71686980 -0.00000149 19.94048735
   1.71686980 -0.00000149 27.55185267
   1.71686980 -0.00000149 35.19369653
  -0.00000000  0.00000000 11.06125754
  -0.00000000  0.00000000 18.67144535
  -0.00000000  0.00000000 26.28384267
  -0.00000000  0.00000000 33.89402626
   1.71686980 -0.00000149 16.13437539
   1.71686980 -0.00000149 23.74616126
   1.71686980 -0.00000149 31.35789985
   0.85843361  1.48685316 13.59758142
   0.85843361  1.48685316 21.20907047
   0.85843361  1.48685316 28.82108800
  -0.00000000  0.00000000  1.05168605
  -0.00000000  0.00000000  8.25385860
   1.71686980 -0.00000149  5.91759140
   0.85843361  1.48685316  3.46562229
  -0.00000000  0.00000000 36.70152893
   1.71686980 -0.00000149 41.48972159
   0.85843361  1.48685316 39.03778278
 


--------------------------------------------------------------------------------------------------------


 k-point  1 :   0.0000 0.0000 0.0000  plane waves:    8991
 k-point  2 :   0.0769 0.0000 0.0000  plane waves:    8971
 k-point  3 :   0.1538 0.0000 0.0000  plane waves:    8943
 k-point  4 :   0.2308 0.0000 0.0000  plane waves:    8886
 k-point  5 :   0.3077 0.0000-0.0000  plane waves:    8816
 k-point  6 :   0.3846 0.0000 0.0000  plane waves:    8804
 k-point  7 :   0.4615 0.0000 0.0000  plane waves:    8732
 k-point  8 :   0.0769 0.0769 0.0000  plane waves:    8941
 k-point  9 :   0.1538 0.0769-0.0000  plane waves:    8903
 k-point 10 :   0.2308 0.0769 0.0000  plane waves:    8851
 k-point 11 :   0.3077 0.0769 0.0000  plane waves:    8830
 k-point 12 :   0.3846 0.0769 0.0000  plane waves:    8774
 k-point 13 :   0.4615 0.0769 0.0000  plane waves:    8740
 k-point 14 :   0.1538 0.1538 0.0000  plane waves:    8861
 k-point 15 :   0.2308 0.1538 0.0000  plane waves:    8841
 k-point 16 :   0.3077 0.1538 0.0000  plane waves:    8821
 k-point 17 :   0.3846 0.1538 0.0000  plane waves:    8777
 k-point 18 :   0.2308 0.2308 0.0000  plane waves:    8839
 k-point 19 :   0.3077 0.2308 0.0000  plane waves:    8814
 k-point 20 :   0.3846 0.2308 0.0000  plane waves:    8808
 k-point 21 :   0.3077 0.3077 0.0000  plane waves:    8832

 maximum and minimum number of plane-waves per node :      2286     2162

 maximum number of plane-waves:      8991
 maximum index in each direction: 
   IXMAX=    5   IYMAX=    5   IZMAX=   79
   IXMIN=   -5   IYMIN=   -5   IZMIN=  -79

 NGX is ok and might be reduce to  22
 NGY is ok and might be reduce to  22
 NGZ is ok and might be reduce to 318

 parallel 3D FFT for wavefunctions:
    minimum data exchange during FFTs selected (reduces bandwidth)
 parallel 3D FFT for charge:
    minimum data exchange during FFTs selected (reduces bandwidth)


 total amount of memory used by VASP on root node   149511. kBytes
========================================================================

   base      :      30000. kBytes
   nonl-proj :      15708. kBytes
   fftplans  :      55172. kBytes
   grid      :      22118. kBytes
   one-center:         56. kBytes
   wavefun   :      26457. kBytes
 
     INWAV:  cpu time    0.00: real time    0.00
 Broyden mixing: mesh for mixing (old mesh)
   NGX = 11   NGY = 11   NGZ =159
  (NGX  = 48   NGY  = 48   NGZ  =640)
  gives a total of  19239 points

 initial charge density was supplied:
 charge density of overlapping atoms calculated
 number of electron     107.0000000 magnetization 
 keeping initial charge density in first step


--------------------------------------------------------------------------------------------------------


 Maximum index for augmentation-charges        22956 (set IRDMAX)


--------------------------------------------------------------------------------------------------------


 First call to EWALD:  gamma=   0.257
 Maximum number of real-space cells 7x 7x 1
 Maximum number of reciprocal cells 1x 1x15

 FEWALD executed in parallel
    FEWALD:  cpu time    0.00: real time    0.00


----------------------------------------- Iteration    1(   1)  ---------------------------------------


    POTLOK:  cpu time    0.11: real time    0.11
    SETDIJ:  cpu time    0.11: real time    0.11
     EDDAV:  cpu time    4.69: real time    4.71
       DOS:  cpu time    0.00: real time    0.00
    --------------------------------------------
      LOOP:  cpu time    4.91: real time    4.93

 eigenvalue-minimisations  :  2880
 total energy-change (2. order) : 0.5495515E+03  (-0.4868819E+04)
 number of electron     107.0000000 magnetization 
 augmentation part      107.0000000 magnetization 

 Free energy of the ion-electron system (eV)
  ---------------------------------------------------
  alpha Z        PSCENC =       153.87710273
  Ewald energy   TEWEN  =     10156.97040875
  -Hartree energ DENC   =    -15839.23073030
  -exchange      EXHF   =         0.00000000
  -V(xc)+E(xc)   XCENC  =      -362.75022299
  PAW double counting   =      4928.51229836    -4205.98855578
  entropy T*S    EENTRO =        -0.00259810
  eigenvalues    EBANDS =       357.08814230
  atomic energy  EATOM  =      5361.07568887
  ---------------------------------------------------
  free energy    TOTEN  =       549.55153385 eV

  energy without entropy =      549.55413194  energy(sigma->0) =      549.55283290


--------------------------------------------------------------------------------------------------------




----------------------------------------- Iteration    1(   2)  ---------------------------------------


     EDDAV:  cpu time    5.44: real time    5.45
       DOS:  cpu time    0.00: real time    0.00
    --------------------------------------------
      LOOP:  cpu time    5.45: real time    5.45

 eigenvalue-minimisations  :  3660
 total energy-change (2. order) :-0.6607389E+03  (-0.6298530E+03)
 number of electron     107.0000000 magnetization 
 augmentation part      107.0000000 magnetization 

 Free energy of the ion-electron system (eV)
  ---------------------------------------------------
  alpha Z        PSCENC =       153.87710273
  Ewald energy   TEWEN  =     10156.97040875
  -Hartree energ DENC   =    -15839.23073030
  -exchange      EXHF   =         0.00000000
  -V(xc)+E(xc)   XCENC  =      -362.75022299
  PAW double counting   =      4928.51229836    -4205.98855578
  entropy T*S    EENTRO =        -0.00624839
  eigenvalues    EBANDS =      -303.64708713
  atomic energy  EATOM  =      5361.07568887
  ---------------------------------------------------
  free energy    TOTEN  =      -111.18734588 eV

  energy without entropy =     -111.18109749  energy(sigma->0) =     -111.18422169


--------------------------------------------------------------------------------------------------------




----------------------------------------- Iteration    1(   3)  ---------------------------------------


     EDDAV:  cpu time    4.87: real time    4.88
       DOS:  cpu time    0.00: real time    0.00
    --------------------------------------------
      LOOP:  cpu time    4.87: real time    4.88

 eigenvalue-minimisations  :  3304
 total energy-change (2. order) :-0.5722391E+02  (-0.5690175E+02)
 number of electron     107.0000000 magnetization 
 augmentation part      107.0000000 magnetization 

 Free energy of the ion-electron system (eV)
  ---------------------------------------------------
  alpha Z        PSCENC =       153.87710273
  Ewald energy   TEWEN  =     10156.97040875
  -Hartree energ DENC   =    -15839.23073030
  -exchange      EXHF   =         0.00000000
  -V(xc)+E(xc)   XCENC  =      -362.75022299
  PAW double counting   =      4928.51229836    -4205.98855578
  entropy T*S    EENTRO =        -0.00427158
  eigenvalues    EBANDS =      -360.87297788
  atomic energy  EATOM  =      5361.07568887
  ---------------------------------------------------
  free energy    TOTEN  =      -168.41125982 eV

  energy without entropy =     -168.40698824  energy(sigma->0) =     -168.40912403


--------------------------------------------------------------------------------------------------------




----------------------------------------- Iteration    1(   4)  ---------------------------------------


     EDDAV:  cpu time    4.96: real time    4.97
       DOS:  cpu time    0.00: real time    0.00
    --------------------------------------------
      LOOP:  cpu time    4.96: real time    4.97

 eigenvalue-minimisations  :  3344
 total energy-change (2. order) :-0.7255920E+00  (-0.7241998E+00)
 number of electron     107.0000000 magnetization 
 augmentation part      107.0000000 magnetization 

 Free energy of the ion-electron system (eV)
  ---------------------------------------------------
  alpha Z        PSCENC =       153.87710273
  Ewald energy   TEWEN  =     10156.97040875
  -Hartree energ DENC   =    -15839.23073030
  -exchange      EXHF   =         0.00000000
  -V(xc)+E(xc)   XCENC  =      -362.75022299
  PAW double counting   =      4928.51229836    -4205.98855578
  entropy T*S    EENTRO =        -0.00402489
  eigenvalues    EBANDS =      -361.59881656
  atomic energy  EATOM  =      5361.07568887
  ---------------------------------------------------
  free energy    TOTEN  =      -169.13685180 eV

  energy without entropy =     -169.13282691  energy(sigma->0) =     -169.13483935


--------------------------------------------------------------------------------------------------------




----------------------------------------- Iteration    1(   5)  ---------------------------------------


     EDDAV:  cpu time    5.21: real time    5.21
       DOS:  cpu time    0.00: real time    0.00
    CHARGE:  cpu time    0.39: real time    0.39
    MIXING:  cpu time    0.01: real time    0.01
    --------------------------------------------
      LOOP:  cpu time    5.61: real time    5.62

 eigenvalue-minimisations  :  3408
 total energy-change (2. order) :-0.1082969E-01  (-0.1082355E-01)
 number of electron     107.0000001 magnetization 
 augmentation part        8.4899299 magnetization 

 Broyden mixing:
  rms(total) = 0.23899E+01    rms(broyden)= 0.23894E+01
  rms(prec ) = 0.24446E+01
  weight for this iteration     100.00

 Free energy of the ion-electron system (eV)
  ---------------------------------------------------
  alpha Z        PSCENC =       153.87710273
  Ewald energy   TEWEN  =     10156.97040875
  -Hartree energ DENC   =    -15839.23073030
  -exchange      EXHF   =         0.00000000
  -V(xc)+E(xc)   XCENC  =      -362.75022299
  PAW double counting   =      4928.51229836    -4205.98855578
  entropy T*S    EENTRO =        -0.00402197
  eigenvalues    EBANDS =      -361.60964916
  atomic energy  EATOM  =      5361.07568887
  ---------------------------------------------------
  free energy    TOTEN  =      -169.14768149 eV

  energy without entropy =     -169.14365951  energy(sigma->0) =     -169.14567050


--------------------------------------------------------------------------------------------------------




----------------------------------------- Iteration    1(   6)  ---------------------------------------


    POTLOK:  cpu time    0.10: real time    0.10
    SETDIJ:  cpu time    0.10: real time    0.11
     EDDAV:  cpu time    5.05: real time    5.06
       DOS:  cpu time    0.00: real time    0.00
    CHARGE:  cpu time    0.39: real time    0.39
    MIXING:  cpu time    0.00: real time    0.00
    --------------------------------------------
      LOOP:  cpu time    5.66: real time    5.67

 eigenvalue-minimisations  :  3336
 total energy-change (2. order) : 0.1669961E+02  (-0.9687134E+01)
 number of electron     107.0000002 magnetization 
 augmentation part        6.8549570 magnetization 

 Broyden mixing:
  rms(total) = 0.82617E+00    rms(broyden)= 0.82525E+00
  rms(prec ) = 0.83588E+00
  weight for this iteration     100.00

 eigenvalues of (default mixing * dielectric matrix)
  average eigenvalue GAMMA=   0.8332
  0.8332

 Free energy of the ion-electron system (eV)
  ---------------------------------------------------
  alpha Z        PSCENC =       153.87710273
  Ewald energy   TEWEN  =     10156.97040875
  -Hartree energ DENC   =    -16045.90701424
  -exchange      EXHF   =         0.00000000
  -V(xc)+E(xc)   XCENC  =      -348.31363855
  PAW double counting   =      5835.81787459    -5116.99526479
  entropy T*S    EENTRO =        -0.00339623
  eigenvalues    EBANDS =      -148.96983017
  atomic energy  EATOM  =      5361.07568887
  ---------------------------------------------------
  free energy    TOTEN  =      -152.44806905 eV

  energy without entropy =     -152.44467282  energy(sigma->0) =     -152.44637093


--------------------------------------------------------------------------------------------------------




----------------------------------------- Iteration    1(   7)  ---------------------------------------


    POTLOK:  cpu time    0.10: real time    0.10
    SETDIJ:  cpu time    0.10: real time    0.10
     EDDAV:  cpu time    4.79: real time    4.80
       DOS:  cpu time    0.00: real time    0.00
    CHARGE:  cpu time    0.39: real time    0.39
    MIXING:  cpu time    0.00: real time    0.00
    --------------------------------------------
      LOOP:  cpu time    5.39: real time    5.40

 eigenvalue-minimisations  :  3120
 total energy-change (2. order) : 0.1738098E+00  (-0.2196506E+00)
 number of electron     107.0000002 magnetization 
 augmentation part        6.9060600 magnetization 

 Broyden mixing:
  rms(total) = 0.49652E+00    rms(broyden)= 0.49651E+00
  rms(prec ) = 0.50191E+00
  weight for this iteration     100.00

 eigenvalues of (default mixing * dielectric matrix)
  average eigenvalue GAMMA=   1.5528
  0.9760  2.1296

 Free energy of the ion-electron system (eV)
  ---------------------------------------------------
  alpha Z        PSCENC =       153.87710273
  Ewald energy   TEWEN  =     10156.97040875
  -Hartree energ DENC   =    -16039.04171616
  -exchange      EXHF   =         0.00000000
  -V(xc)+E(xc)   XCENC  =      -348.10589659
  PAW double counting   =      6165.81983875    -5446.46153441
  entropy T*S    EENTRO =        -0.00334459
  eigenvalues    EBANDS =      -156.40480659
  atomic energy  EATOM  =      5361.07568887
  ---------------------------------------------------
  free energy    TOTEN  =      -152.27425924 eV

  energy without entropy =     -152.27091465  energy(sigma->0) =     -152.27258694


--------------------------------------------------------------------------------------------------------




----------------------------------------- Iteration    1(   8)  ---------------------------------------


    POTLOK:  cpu time    0.10: real time    0.10
    SETDIJ:  cpu time    0.10: real time    0.10
     EDDAV:  cpu time    5.01: real time    5.02
       DOS:  cpu time    0.00: real time    0.00
    CHARGE:  cpu time    0.39: real time    0.39
    MIXING:  cpu time    0.00: real time    0.00
    --------------------------------------------
      LOOP:  cpu time    5.61: real time    5.62

 eigenvalue-minimisations  :  3328
 total energy-change (2. order) : 0.9336560E-01  (-0.7803216E-01)
 number of electron     107.0000002 magnetization 
 augmentation part        6.9763738 magnetization 

 Broyden mixing:
  rms(total) = 0.12049E+00    rms(broyden)= 0.12042E+00
  rms(prec ) = 0.12654E+00
  weight for this iteration     100.00

 eigenvalues of (default mixing * dielectric matrix)
  average eigenvalue GAMMA=   1.4032
  2.3179  0.9459  0.9459

 Free energy of the ion-electron system (eV)
  ---------------------------------------------------
  alpha Z        PSCENC =       153.87710273
  Ewald energy   TEWEN  =     10156.97040875
  -Hartree energ DENC   =    -16042.16435823
  -exchange      EXHF   =         0.00000000
  -V(xc)+E(xc)   XCENC  =      -346.72992463
  PAW double counting   =      6667.19664063    -5947.43125550
  entropy T*S    EENTRO =        -0.00318856
  eigenvalues    EBANDS =      -154.97200769
  atomic energy  EATOM  =      5361.07568887
  ---------------------------------------------------
  free energy    TOTEN  =      -152.18089364 eV

  energy without entropy =     -152.17770507  energy(sigma->0) =     -152.17929935


--------------------------------------------------------------------------------------------------------




----------------------------------------- Iteration    1(   9)  ---------------------------------------


    POTLOK:  cpu time    0.10: real time    0.10
    SETDIJ:  cpu time    0.11: real time    0.11
     EDDAV:  cpu time    4.98: real time    4.98
       DOS:  cpu time    0.00: real time    0.00
    CHARGE:  cpu time    0.39: real time    0.39
    MIXING:  cpu time    0.01: real time    0.01
    --------------------------------------------
      LOOP:  cpu time    5.59: real time    5.59

 eigenvalue-minimisations  :  3292
 total energy-change (2. order) : 0.3044532E-01  (-0.1565148E-01)
 number of electron     107.0000002 magnetization 
 augmentation part        6.9388637 magnetization 

 Broyden mixing:
  rms(total) = 0.53617E-01    rms(broyden)= 0.53607E-01
  rms(prec ) = 0.55308E-01
  weight for this iteration     100.00

 eigenvalues of (default mixing * dielectric matrix)
  average eigenvalue GAMMA=   1.4503
  2.4632  0.9159  0.9159  1.5064

 Free energy of the ion-electron system (eV)
  ---------------------------------------------------
  alpha Z        PSCENC =       153.87710273
  Ewald energy   TEWEN  =     10156.97040875
  -Hartree energ DENC   =    -16047.80730944
  -exchange      EXHF   =         0.00000000
  -V(xc)+E(xc)   XCENC  =      -346.15338012
  PAW double counting   =      6703.06126759    -5983.37578181
  entropy T*S    EENTRO =        -0.00319888
  eigenvalues    EBANDS =      -149.79524599
  atomic energy  EATOM  =      5361.07568887
  ---------------------------------------------------
  free energy    TOTEN  =      -152.15044832 eV

  energy without entropy =     -152.14724944  energy(sigma->0) =     -152.14884888


--------------------------------------------------------------------------------------------------------




----------------------------------------- Iteration    1(  10)  ---------------------------------------


    POTLOK:  cpu time    0.10: real time    0.10
    SETDIJ:  cpu time    0.10: real time    0.10
     EDDAV:  cpu time    4.82: real time    4.83
       DOS:  cpu time    0.00: real time    0.00
    CHARGE:  cpu time    0.40: real time    0.40
    MIXING:  cpu time    0.01: real time    0.01
    --------------------------------------------
      LOOP:  cpu time    5.43: real time    5.44

 eigenvalue-minimisations  :  3196
 total energy-change (2. order) :-0.4137410E-02  (-0.9067885E-02)
 number of electron     107.0000002 magnetization 
 augmentation part        6.9184164 magnetization 

 Broyden mixing:
  rms(total) = 0.41540E-01    rms(broyden)= 0.41509E-01
  rms(prec ) = 0.45433E-01
  weight for this iteration     100.00

 eigenvalues of (default mixing * dielectric matrix)
  average eigenvalue GAMMA=   1.2870
  2.4987  1.3915  0.9727  0.7860  0.7860

 Free energy of the ion-electron system (eV)
  ---------------------------------------------------
  alpha Z        PSCENC =       153.87710273
  Ewald energy   TEWEN  =     10156.97040875
  -Hartree energ DENC   =    -16049.41926305
  -exchange      EXHF   =         0.00000000
  -V(xc)+E(xc)   XCENC  =      -345.89533463
  PAW double counting   =      6687.04860114    -5967.39140458
  entropy T*S    EENTRO =        -0.00330390
  eigenvalues    EBANDS =      -148.41708106
  atomic energy  EATOM  =      5361.07568887
  ---------------------------------------------------
  free energy    TOTEN  =      -152.15458573 eV

  energy without entropy =     -152.15128183  energy(sigma->0) =     -152.15293378


--------------------------------------------------------------------------------------------------------




----------------------------------------- Iteration    1(  11)  ---------------------------------------


    POTLOK:  cpu time    0.10: real time    0.10
    SETDIJ:  cpu time    0.11: real time    0.11
     EDDAV:  cpu time    5.29: real time    5.30
       DOS:  cpu time    0.00: real time    0.00
    CHARGE:  cpu time    0.39: real time    0.39
    MIXING:  cpu time    0.01: real time    0.01
    --------------------------------------------
      LOOP:  cpu time    5.90: real time    5.91

 eigenvalue-minimisations  :  3504
 total energy-change (2. order) : 0.3133073E-02  (-0.1208266E-02)
 number of electron     107.0000002 magnetization 
 augmentation part        6.9268396 magnetization 

 Broyden mixing:
  rms(total) = 0.23805E-01    rms(broyden)= 0.23804E-01
  rms(prec ) = 0.25658E-01
  weight for this iteration     100.00

 eigenvalues of (default mixing * dielectric matrix)
  average eigenvalue GAMMA=   1.3502
  2.5621  1.6479  1.0482  1.0482  1.0775  0.7172

 Free energy of the ion-electron system (eV)
  ---------------------------------------------------
  alpha Z        PSCENC =       153.87710273
  Ewald energy   TEWEN  =     10156.97040875
  -Hartree energ DENC   =    -16048.50722455
  -exchange      EXHF   =         0.00000000
  -V(xc)+E(xc)   XCENC  =      -345.92271754
  PAW double counting   =      6680.40210028    -5960.73397147
  entropy T*S    EENTRO =        -0.00327459
  eigenvalues    EBANDS =      -149.30956513
  atomic energy  EATOM  =      5361.07568887
  ---------------------------------------------------
  free energy    TOTEN  =      -152.15145266 eV

  energy without entropy =     -152.14817806  energy(sigma->0) =     -152.14981536


--------------------------------------------------------------------------------------------------------




----------------------------------------- Iteration    1(  12)  ---------------------------------------


    POTLOK:  cpu time    0.10: real time    0.10
    SETDIJ:  cpu time    0.10: real time    0.10
     EDDAV:  cpu time    4.95: real time    4.96
       DOS:  cpu time    0.00: real time    0.00
    CHARGE:  cpu time    0.39: real time    0.39
    MIXING:  cpu time    0.01: real time    0.01
    --------------------------------------------
      LOOP:  cpu time    5.55: real time    5.56

 eigenvalue-minimisations  :  3276
 total energy-change (2. order) : 0.1166965E-03  (-0.1498138E-02)
 number of electron     107.0000002 magnetization 
 augmentation part        6.9283684 magnetization 

 Broyden mixing:
  rms(total) = 0.17772E-01    rms(broyden)= 0.17758E-01
  rms(prec ) = 0.19329E-01
  weight for this iteration     100.00

 eigenvalues of (default mixing * dielectric matrix)
  average eigenvalue GAMMA=   1.3756
  2.8073  2.4767  0.9099  0.9099  0.9555  0.9555  0.6145

 Free energy of the ion-electron system (eV)
  ---------------------------------------------------
  alpha Z        PSCENC =       153.87710273
  Ewald energy   TEWEN  =     10156.97040875
  -Hartree energ DENC   =    -16048.07341418
  -exchange      EXHF   =         0.00000000
  -V(xc)+E(xc)   XCENC  =      -345.88003931
  PAW double counting   =      6658.59884394    -5938.94003297
  entropy T*S    EENTRO =        -0.00329423
  eigenvalues    EBANDS =      -149.77659956
  atomic energy  EATOM  =      5361.07568887
  ---------------------------------------------------
  free energy    TOTEN  =      -152.15133596 eV

  energy without entropy =     -152.14804173  energy(sigma->0) =     -152.14968884


--------------------------------------------------------------------------------------------------------




----------------------------------------- Iteration    1(  13)  ---------------------------------------


    POTLOK:  cpu time    0.10: real time    0.10
    SETDIJ:  cpu time    0.10: real time    0.10
     EDDAV:  cpu time    6.11: real time    6.11
       DOS:  cpu time    0.00: real time    0.00
    CHARGE:  cpu time    0.39: real time    0.39
    MIXING:  cpu time    0.01: real time    0.01
    --------------------------------------------
      LOOP:  cpu time    6.71: real time    6.71

 eigenvalue-minimisations  :  4280
 total energy-change (2. order) : 0.8594349E-03  (-0.1887480E-03)
 number of electron     107.0000002 magnetization 
 augmentation part        6.9310591 magnetization 

 Broyden mixing:
  rms(total) = 0.97095E-02    rms(broyden)= 0.97089E-02
  rms(prec ) = 0.11567E-01
  weight for this iteration     100.00

 eigenvalues of (default mixing * dielectric matrix)
  average eigenvalue GAMMA=   1.3568
  2.8985  2.4687  0.9644  0.9644  1.0422  0.9342  0.9342  0.6476

 Free energy of the ion-electron system (eV)
  ---------------------------------------------------
  alpha Z        PSCENC =       153.87710273
  Ewald energy   TEWEN  =     10156.97040875
  -Hartree energ DENC   =    -16047.41683748
  -exchange      EXHF   =         0.00000000
  -V(xc)+E(xc)   XCENC  =      -345.88179673
  PAW double counting   =      6641.89476325    -5922.23514288
  entropy T*S    EENTRO =        -0.00333121
  eigenvalues    EBANDS =      -150.43133182
  atomic energy  EATOM  =      5361.07568887
  ---------------------------------------------------
  free energy    TOTEN  =      -152.15047653 eV

  energy without entropy =     -152.14714532  energy(sigma->0) =     -152.14881092


--------------------------------------------------------------------------------------------------------




----------------------------------------- Iteration    1(  14)  ---------------------------------------


    POTLOK:  cpu time    0.10: real time    0.10
    SETDIJ:  cpu time    0.10: real time    0.10
     EDDAV:  cpu time    5.13: real time    5.13
       DOS:  cpu time    0.00: real time    0.00
    CHARGE:  cpu time    0.39: real time    0.39
    MIXING:  cpu time    0.01: real time    0.01
    --------------------------------------------
      LOOP:  cpu time    5.73: real time    5.74

 eigenvalue-minimisations  :  3464
 total energy-change (2. order) : 0.3077367E-03  (-0.1561820E-03)
 number of electron     107.0000002 magnetization 
 augmentation part        6.9301000 magnetization 

 Broyden mixing:
  rms(total) = 0.26003E-02    rms(broyden)= 0.25927E-02
  rms(prec ) = 0.61235E-02
  weight for this iteration     100.00

 eigenvalues of (default mixing * dielectric matrix)
  average eigenvalue GAMMA=   1.3586
  2.9885  2.5515  0.9140  0.9140  1.2676  1.1022  0.9105  0.9105  0.6683

 Free energy of the ion-electron system (eV)
  ---------------------------------------------------
  alpha Z        PSCENC =       153.87710273
  Ewald energy   TEWEN  =     10156.97040875
  -Hartree energ DENC   =    -16047.18269023
  -exchange      EXHF   =         0.00000000
  -V(xc)+E(xc)   XCENC  =      -345.87720918
  PAW double counting   =      6640.56565427    -5920.90614640
  entropy T*S    EENTRO =        -0.00334698
  eigenvalues    EBANDS =      -150.66963062
  atomic energy  EATOM  =      5361.07568887
  ---------------------------------------------------
  free energy    TOTEN  =      -152.15016879 eV

  energy without entropy =     -152.14682181  energy(sigma->0) =     -152.14849530


--------------------------------------------------------------------------------------------------------




----------------------------------------- Iteration    1(  15)  ---------------------------------------


    POTLOK:  cpu time    0.10: real time    0.10
    SETDIJ:  cpu time    0.11: real time    0.11
     EDDAV:  cpu time    6.40: real time    6.41
       DOS:  cpu time    0.00: real time    0.00
    CHARGE:  cpu time    0.40: real time    0.40
    MIXING:  cpu time    0.01: real time    0.01
    --------------------------------------------
      LOOP:  cpu time    7.03: real time    7.03

 eigenvalue-minimisations  :  4488
 total energy-change (2. order) : 0.5064988E-03  (-0.3820649E-04)
 number of electron     107.0000002 magnetization 
 augmentation part        6.9309440 magnetization 

 Broyden mixing:
  rms(total) = 0.29694E-02    rms(broyden)= 0.29689E-02
  rms(prec ) = 0.50961E-02
  weight for this iteration     100.00

 eigenvalues of (default mixing * dielectric matrix)
  average eigenvalue GAMMA=   1.4396
  3.0122  2.5308  2.5308  0.9189  0.9189  1.0056  1.0056  0.9054  0.9054  0.6627

 Free energy of the ion-electron system (eV)
  ---------------------------------------------------
  alpha Z        PSCENC =       153.87710273
  Ewald energy   TEWEN  =     10156.97040875
  -Hartree energ DENC   =    -16046.33745558
  -exchange      EXHF   =         0.00000000
  -V(xc)+E(xc)   XCENC  =      -345.88408222
  PAW double counting   =      6639.34804472    -5919.68390164
  entropy T*S    EENTRO =        -0.00342502
  eigenvalues    EBANDS =      -151.51204291
  atomic energy  EATOM  =      5361.07568887
  ---------------------------------------------------
  free energy    TOTEN  =      -152.14966229 eV

  energy without entropy =     -152.14623727  energy(sigma->0) =     -152.14794978


--------------------------------------------------------------------------------------------------------




----------------------------------------- Iteration    1(  16)  ---------------------------------------


    POTLOK:  cpu time    0.10: real time    0.10
    SETDIJ:  cpu time    0.10: real time    0.10
     EDDAV:  cpu time    5.63: real time    5.64
       DOS:  cpu time    0.00: real time    0.00
    CHARGE:  cpu time    0.39: real time    0.39
    MIXING:  cpu time    0.01: real time    0.01
    --------------------------------------------
      LOOP:  cpu time    6.24: real time    6.24

 eigenvalue-minimisations  :  3936
 total energy-change (2. order) : 0.2739704E-03  (-0.3715899E-04)
 number of electron     107.0000002 magnetization 
 augmentation part        6.9305067 magnetization 

 Broyden mixing:
  rms(total) = 0.24277E-02    rms(broyden)= 0.24271E-02
  rms(prec ) = 0.41410E-02
  weight for this iteration     100.00

 eigenvalues of (default mixing * dielectric matrix)
  average eigenvalue GAMMA=   1.4464
  3.4103  2.7574  2.4728  0.9247  0.9247  1.0264  1.0264  0.9004  0.9004  0.9063
  0.6603

 Free energy of the ion-electron system (eV)
  ---------------------------------------------------
  alpha Z        PSCENC =       153.87710273
  Ewald energy   TEWEN  =     10156.97040875
  -Hartree energ DENC   =    -16045.91865444
  -exchange      EXHF   =         0.00000000
  -V(xc)+E(xc)   XCENC  =      -345.87692050
  PAW double counting   =      6642.42573112    -5922.76105264
  entropy T*S    EENTRO =        -0.00347074
  eigenvalues    EBANDS =      -151.93822146
  atomic energy  EATOM  =      5361.07568887
  ---------------------------------------------------
  free energy    TOTEN  =      -152.14938832 eV

  energy without entropy =     -152.14591758  energy(sigma->0) =     -152.14765295


--------------------------------------------------------------------------------------------------------




----------------------------------------- Iteration    1(  17)  ---------------------------------------


    POTLOK:  cpu time    0.10: real time    0.10
    SETDIJ:  cpu time    0.11: real time    0.11
     EDDAV:  cpu time    6.02: real time    6.03
       DOS:  cpu time    0.00: real time    0.00
    CHARGE:  cpu time    0.39: real time    0.39
    MIXING:  cpu time    0.01: real time    0.01
    --------------------------------------------
      LOOP:  cpu time    6.63: real time    6.63

 eigenvalue-minimisations  :  4280
 total energy-change (2. order) : 0.2089392E-03  (-0.2920202E-04)
 number of electron     107.0000002 magnetization 
 augmentation part        6.9300924 magnetization 

 Broyden mixing:
  rms(total) = 0.14600E-02    rms(broyden)= 0.14589E-02
  rms(prec ) = 0.29703E-02
  weight for this iteration     100.00

 eigenvalues of (default mixing * dielectric matrix)
  average eigenvalue GAMMA=   1.5970
  4.4789  2.9666  2.4601  1.8793  0.9198  0.9198  1.0817  1.0817  0.9167  0.9167
  0.6633  0.8796

 Free energy of the ion-electron system (eV)
  ---------------------------------------------------
  alpha Z        PSCENC =       153.87710273
  Ewald energy   TEWEN  =     10156.97040875
  -Hartree energ DENC   =    -16045.44485511
  -exchange      EXHF   =         0.00000000
  -V(xc)+E(xc)   XCENC  =      -345.87039448
  PAW double counting   =      6642.73173456    -5923.06901394
  entropy T*S    EENTRO =        -0.00352513
  eigenvalues    EBANDS =      -152.41632564
  atomic energy  EATOM  =      5361.07568887
  ---------------------------------------------------
  free energy    TOTEN  =      -152.14917938 eV

  energy without entropy =     -152.14565425  energy(sigma->0) =     -152.14741682


--------------------------------------------------------------------------------------------------------




----------------------------------------- Iteration    1(  18)  ---------------------------------------


    POTLOK:  cpu time    0.10: real time    0.10
    SETDIJ:  cpu time    0.10: real time    0.10
     EDDAV:  cpu time    6.03: real time    6.04
       DOS:  cpu time    0.00: real time    0.00
    CHARGE:  cpu time    0.39: real time    0.39
    MIXING:  cpu time    0.01: real time    0.01
    --------------------------------------------
      LOOP:  cpu time    6.63: real time    6.64

 eigenvalue-minimisations  :  4288
 total energy-change (2. order) : 0.1351277E-03  (-0.2662494E-04)
 number of electron     107.0000002 magnetization 
 augmentation part        6.9298972 magnetization 

 Broyden mixing:
  rms(total) = 0.15017E-02    rms(broyden)= 0.15007E-02
  rms(prec ) = 0.25130E-02
  weight for this iteration     100.00

 eigenvalues of (default mixing * dielectric matrix)
  average eigenvalue GAMMA=   1.7599
  5.8067  3.3883  2.7140  2.3978  0.9215  0.9215  1.1869  1.1869  1.0399  0.9111
  0.9111  0.6618  0.8306

 Free energy of the ion-electron system (eV)
  ---------------------------------------------------
  alpha Z        PSCENC =       153.87710273
  Ewald energy   TEWEN  =     10156.97040875
  -Hartree energ DENC   =    -16044.95784240
  -exchange      EXHF   =         0.00000000
  -V(xc)+E(xc)   XCENC  =      -345.86848973
  PAW double counting   =      6643.03624056    -5923.37430709
  entropy T*S    EENTRO =        -0.00356824
  eigenvalues    EBANDS =      -152.90427769
  atomic energy  EATOM  =      5361.07568887
  ---------------------------------------------------
  free energy    TOTEN  =      -152.14904425 eV

  energy without entropy =     -152.14547601  energy(sigma->0) =     -152.14726013


--------------------------------------------------------------------------------------------------------




----------------------------------------- Iteration    1(  19)  ---------------------------------------


    POTLOK:  cpu time    0.10: real time    0.10
    SETDIJ:  cpu time    0.10: real time    0.10
     EDDAV:  cpu time    6.22: real time    6.22
       DOS:  cpu time    0.00: real time    0.00
    CHARGE:  cpu time    0.39: real time    0.39
    MIXING:  cpu time    0.01: real time    0.01
    --------------------------------------------
      LOOP:  cpu time    6.82: real time    6.82

 eigenvalue-minimisations  :  4432
 total energy-change (2. order) : 0.1433835E-03  (-0.1703039E-04)
 number of electron     107.0000002 magnetization 
 augmentation part        6.9303365 magnetization 

 Broyden mixing:
  rms(total) = 0.12195E-02    rms(broyden)= 0.12191E-02
  rms(prec ) = 0.18517E-02
  weight for this iteration     100.00

 eigenvalues of (default mixing * dielectric matrix)
  average eigenvalue GAMMA=   1.7991
  7.1295  3.0834  2.6138  2.4438  0.9228  0.9228  1.3584  1.1633  1.1633  0.6619
  0.9025  0.9025  0.9597  0.9597

 Free energy of the ion-electron system (eV)
  ---------------------------------------------------
  alpha Z        PSCENC =       153.87710273
  Ewald energy   TEWEN  =     10156.97040875
  -Hartree energ DENC   =    -16044.41773892
  -exchange      EXHF   =         0.00000000
  -V(xc)+E(xc)   XCENC  =      -345.87174417
  PAW double counting   =      6642.69563082    -5923.03396208
  entropy T*S    EENTRO =        -0.00360099
  eigenvalues    EBANDS =      -153.44068588
  atomic energy  EATOM  =      5361.07568887
  ---------------------------------------------------
  free energy    TOTEN  =      -152.14890087 eV

  energy without entropy =     -152.14529988  energy(sigma->0) =     -152.14710037


--------------------------------------------------------------------------------------------------------




----------------------------------------- Iteration    1(  20)  ---------------------------------------


    POTLOK:  cpu time    0.10: real time    0.10
    SETDIJ:  cpu time    0.10: real time    0.10
     EDDAV:  cpu time    4.87: real time    4.87
       DOS:  cpu time    0.00: real time    0.00
    CHARGE:  cpu time    0.39: real time    0.39
    MIXING:  cpu time    0.01: real time    0.01
    --------------------------------------------
      LOOP:  cpu time    5.47: real time    5.47

 eigenvalue-minimisations  :  3256
 total energy-change (2. order) : 0.1698630E-04  (-0.2952832E-04)
 number of electron     107.0000002 magnetization 
 augmentation part        6.9302805 magnetization 

 Broyden mixing:
  rms(total) = 0.11996E-02    rms(broyden)= 0.11994E-02
  rms(prec ) = 0.15877E-02
  weight for this iteration     100.00

 eigenvalues of (default mixing * dielectric matrix)
  average eigenvalue GAMMA=   1.6903
  7.1413  3.0313  2.6054  2.4589  0.9229  0.9229  1.1714  1.1714  1.2722  0.6618
  0.9017  0.9017  0.9546  0.9546  0.2828

 Free energy of the ion-electron system (eV)
  ---------------------------------------------------
  alpha Z        PSCENC =       153.87710273
  Ewald energy   TEWEN  =     10156.97040875
  -Hartree energ DENC   =    -16044.25051856
  -exchange      EXHF   =         0.00000000
  -V(xc)+E(xc)   XCENC  =      -345.86984932
  PAW double counting   =      6642.67932267    -5923.01790781
  entropy T*S    EENTRO =        -0.00361371
  eigenvalues    EBANDS =      -153.60951750
  atomic energy  EATOM  =      5361.07568887
  ---------------------------------------------------
  free energy    TOTEN  =      -152.14888388 eV

  energy without entropy =     -152.14527017  energy(sigma->0) =     -152.14707703


--------------------------------------------------------------------------------------------------------




----------------------------------------- Iteration    1(  21)  ---------------------------------------


    POTLOK:  cpu time    0.10: real time    0.10
    SETDIJ:  cpu time    0.10: real time    0.10
     EDDAV:  cpu time    4.51: real time    4.51
       DOS:  cpu time    0.00: real time    0.00
    CHARGE:  cpu time    0.39: real time    0.39
    MIXING:  cpu time    0.01: real time    0.01
    --------------------------------------------
      LOOP:  cpu time    5.11: real time    5.12

 eigenvalue-minimisations  :  3008
 total energy-change (2. order) : 0.4127858E-04  (-0.3891293E-05)
 number of electron     107.0000002 magnetization 
 augmentation part        6.9303195 magnetization 

 Broyden mixing:
  rms(total) = 0.83527E-03    rms(broyden)= 0.83508E-03
  rms(prec ) = 0.11253E-02
  weight for this iteration     100.00

 eigenvalues of (default mixing * dielectric matrix)
  average eigenvalue GAMMA=   1.9878
  9.4008  4.5648  2.8774  2.2604  2.2604  0.9234  0.9234  1.1903  1.1903  0.9922
  0.9922  0.6617  0.9444  0.9444  0.8393  0.8393

 Free energy of the ion-electron system (eV)
  ---------------------------------------------------
  alpha Z        PSCENC =       153.87710273
  Ewald energy   TEWEN  =     10156.97040875
  -Hartree energ DENC   =    -16044.11758270
  -exchange      EXHF   =         0.00000000
  -V(xc)+E(xc)   XCENC  =      -345.87093428
  PAW double counting   =      6643.16888657    -5923.50663813
  entropy T*S    EENTRO =        -0.00361038
  eigenvalues    EBANDS =      -153.74216405
  atomic energy  EATOM  =      5361.07568887
  ---------------------------------------------------
  free energy    TOTEN  =      -152.14884260 eV

  energy without entropy =     -152.14523222  energy(sigma->0) =     -152.14703741


--------------------------------------------------------------------------------------------------------




----------------------------------------- Iteration    1(  22)  ---------------------------------------


    POTLOK:  cpu time    0.10: real time    0.10
    SETDIJ:  cpu time    0.10: real time    0.10
     EDDAV:  cpu time    5.70: real time    5.71
       DOS:  cpu time    0.00: real time    0.00
    CHARGE:  cpu time    0.39: real time    0.39
    MIXING:  cpu time    0.01: real time    0.01
    --------------------------------------------
      LOOP:  cpu time    6.30: real time    6.31

 eigenvalue-minimisations  :  3992
 total energy-change (2. order) : 0.3029196E-04  (-0.9115640E-05)
 number of electron     107.0000002 magnetization 
 augmentation part        6.9301859 magnetization 

 Broyden mixing:
  rms(total) = 0.58313E-03    rms(broyden)= 0.58261E-03
  rms(prec ) = 0.65690E-03
  weight for this iteration     100.00

 eigenvalues of (default mixing * dielectric matrix)
  average eigenvalue GAMMA=   2.2300
 12.5532  5.8527  2.7895  2.3224  2.3224  1.7080  0.9226  0.9226  1.1190  1.1190
  0.6618  1.0867  0.8826  0.8826  0.9333  0.9158  0.9158

 Free energy of the ion-electron system (eV)
  ---------------------------------------------------
  alpha Z        PSCENC =       153.87710273
  Ewald energy   TEWEN  =     10156.97040875
  -Hartree energ DENC   =    -16043.82855422
  -exchange      EXHF   =         0.00000000
  -V(xc)+E(xc)   XCENC  =      -345.86957579
  PAW double counting   =      6643.40005198    -5923.73761323
  entropy T*S    EENTRO =        -0.00362292
  eigenvalues    EBANDS =      -154.03269849
  atomic energy  EATOM  =      5361.07568887
  ---------------------------------------------------
  free energy    TOTEN  =      -152.14881231 eV

  energy without entropy =     -152.14518939  energy(sigma->0) =     -152.14700085


--------------------------------------------------------------------------------------------------------




----------------------------------------- Iteration    1(  23)  ---------------------------------------


    POTLOK:  cpu time    0.10: real time    0.10
    SETDIJ:  cpu time    0.10: real time    0.10
     EDDAV:  cpu time    4.73: real time    4.73
       DOS:  cpu time    0.00: real time    0.00
    CHARGE:  cpu time    0.39: real time    0.39
    MIXING:  cpu time    0.01: real time    0.01
    --------------------------------------------
      LOOP:  cpu time    5.33: real time    5.33

 eigenvalue-minimisations  :  3120
 total energy-change (2. order) :-0.1167725E-04  (-0.1544011E-04)
 number of electron     107.0000002 magnetization 
 augmentation part        6.9301608 magnetization 

 Broyden mixing:
  rms(total) = 0.74547E-03    rms(broyden)= 0.74509E-03
  rms(prec ) = 0.76541E-03
  weight for this iteration     100.00

 eigenvalues of (default mixing * dielectric matrix)
  average eigenvalue GAMMA=   2.0916
 12.1986  5.8315  2.7828  2.3109  2.3109  1.6923  0.9224  0.9224  1.1060  1.1060
  0.6618  1.0942  0.8801  0.8801  0.9277  0.9277  0.9227  0.1703

 Free energy of the ion-electron system (eV)
  ---------------------------------------------------
  alpha Z        PSCENC =       153.87710273
  Ewald energy   TEWEN  =     10156.97040875
  -Hartree energ DENC   =    -16043.72890429
  -exchange      EXHF   =         0.00000000
  -V(xc)+E(xc)   XCENC  =      -345.86980563
  PAW double counting   =      6643.66224511    -5924.00003999
  entropy T*S    EENTRO =        -0.00362792
  eigenvalues    EBANDS =      -154.13189161
  atomic energy  EATOM  =      5361.07568887
  ---------------------------------------------------
  free energy    TOTEN  =      -152.14882399 eV

  energy without entropy =     -152.14519606  energy(sigma->0) =     -152.14701003


--------------------------------------------------------------------------------------------------------




----------------------------------------- Iteration    1(  24)  ---------------------------------------


    POTLOK:  cpu time    0.10: real time    0.10
    SETDIJ:  cpu time    0.10: real time    0.10
     EDDAV:  cpu time    4.38: real time    4.38
       DOS:  cpu time    0.00: real time    0.00
    --------------------------------------------
      LOOP:  cpu time    4.58: real time    4.59

 eigenvalue-minimisations  :  2792
 total energy-change (2. order) :-0.4729648E-05  (-0.5421724E-05)
 number of electron     107.0000002 magnetization 
 augmentation part        6.9301608 magnetization 

 Free energy of the ion-electron system (eV)
  ---------------------------------------------------
  alpha Z        PSCENC =       153.87710273
  Ewald energy   TEWEN  =     10156.97040875
  -Hartree energ DENC   =    -16043.73724883
  -exchange      EXHF   =         0.00000000
  -V(xc)+E(xc)   XCENC  =      -345.86983918
  PAW double counting   =      6643.45893488    -5923.79681892
  entropy T*S    EENTRO =        -0.00362879
  eigenvalues    EBANDS =      -154.12342823
  atomic energy  EATOM  =      5361.07568887
  ---------------------------------------------------
  free energy    TOTEN  =      -152.14882872 eV

  energy without entropy =     -152.14519993  energy(sigma->0) =     -152.14701433


--------------------------------------------------------------------------------------------------------




 average (electrostatic) potential at core
  the test charge radii are     0.7215  1.0714  1.0406
  (the norm of the test charge is              1.0000)
[...]
     23       0.2920      2.00000
     24       0.4118      2.00000
     25       0.5713      2.00000
     26       0.7116      2.00000
     27       0.8545      2.00000
     28       0.9235      2.00000
     29       0.9627      2.00000
     30       1.0286      2.00000
     31       1.0765      2.00000
     32       1.1375      2.00000
     33       1.1565      2.00000
     34       1.2510      2.00000
     35       1.3382      2.00000
     36       1.4187      2.00000
     37       1.5688      2.00000
     38       1.6740      2.00000
     39       1.7158      2.00000
     40       1.7889      2.00000
     41       1.8414      2.00000
     42       1.9376      2.00000
     43       1.9941      2.00000
     44       2.0769      2.00000
     45       2.1023      2.00000
     46       2.1754      2.00000
     47       2.6644      2.00000
     48       3.5259      2.00000
     49       4.6128      2.00000
     50       4.8997      2.00000
     51       5.1771      2.00000
     52       5.5410      2.00000
     53       6.1005      2.00000
     54       6.4933      2.00000
     55       6.6417      2.00000
     56       6.8312      1.74444
     57       7.2683      0.00000
     58       7.7203      0.00000
     59       7.9015      0.00000
     60       8.3996      0.00000
     61       9.1765      0.00000
     62       9.3013      0.00000
     63       9.4991      0.00000
     64      10.4465      0.00000
     65      10.6053      0.00000
     66      11.0610      0.00000
     67      11.7951      0.00000
     68      11.9361      0.00000

 k-point    20 :       0.3846    0.2308    0.0000
  band No.  band energies     occupation 
      1     -12.7288      2.00000
      2     -12.7207      2.00000
      3     -12.7092      2.00000
      4     -12.6936      2.00000
      5     -12.6750      2.00000
      6     -12.6558      2.00000
      7     -12.6368      2.00000
      8     -12.6197      2.00000
      9     -12.6090      2.00000
     10     -12.4968      2.00000
     11     -12.4743      2.00000
     12      -0.8640      2.00000
     13      -0.8000      2.00000
     14      -0.7061      2.00000
     15      -0.5896      2.00000
     16      -0.4723      2.00000
     17      -0.4283      2.00000
     18      -0.4066      2.00000
     19      -0.3749      2.00000
     20      -0.3674      2.00000
     21      -0.3130      2.00000
     22      -0.3082      2.00000
     23       0.4999      2.00000
     24       0.5233      2.00000
     25       0.5722      2.00000
     26       0.6267      2.00000
     27       0.6359      2.00000
     28       0.6794      2.00000
     29       0.6943      2.00000
     30       0.7825      2.00000
     31       0.9409      2.00000
     32       1.0807      2.00000
     33       1.1893      2.00000
     34       1.2648      2.00000
     35       1.2887      2.00000
     36       1.5756      2.00000
     37       1.6119      2.00000
     38       1.6677      2.00000
     39       1.7088      2.00000
     40       1.7974      2.00000
     41       1.9186      2.00000
     42       1.9909      2.00000
     43       2.0352      2.00000
     44       2.0412      2.00000
     45       3.1398      2.00000
     46       3.1675      2.00000
     47       3.4442      2.00000
     48       3.5207      2.00000
     49       3.9514      2.00000
     50       4.1102      2.00000
     51       4.7319      2.00000
     52       4.9881      2.00000
     53       5.9057      2.00000
     54       6.3223      2.00000
     55       6.4091      2.00000
     56       6.6343      2.00000
     57       6.8970      0.47002
     58       7.5005      0.00000
     59       7.8997      0.00000
     60       8.3113      0.00000
     61       8.9767      0.00000
     62       9.0898      0.00000
     63       9.2733      0.00000
     64      10.4193      0.00000
     65      10.5874      0.00000
     66      10.6549      0.00000
     67      11.7604      0.00000
     68      12.0461      0.00000

 k-point    21 :       0.3077    0.3077    0.0000
  band No.  band energies     occupation 
      1     -12.6954      2.00000
      2     -12.6887      2.00000
      3     -12.6795      2.00000
      4     -12.6682      2.00000
      5     -12.6549      2.00000
      6     -12.6417      2.00000
      7     -12.6291      2.00000
      8     -12.6178      2.00000
      9     -12.6106      2.00000
     10     -12.4801      2.00000
     11     -12.4575      2.00000
     12      -0.5118      2.00000
     13      -0.5034      2.00000
     14      -0.4662      2.00000
     15      -0.4375      2.00000
     16      -0.3943      2.00000
     17      -0.3392      2.00000
     18      -0.3131      2.00000
     19      -0.2078      2.00000
     20      -0.0996      2.00000
     21      -0.0552      2.00000
     22      -0.0218      2.00000
     23       0.0592      2.00000
     24       0.1812      2.00000
     25       0.2599      2.00000
     26       0.3139      2.00000
     27       0.3896      2.00000
     28       0.4458      2.00000
     29       0.4812      2.00000
     30       0.6068      2.00000
     31       0.6206      2.00000
     32       0.7467      2.00000
     33       0.7520      2.00000
     34       1.2592      2.00000
     35       1.2795      2.00000
     36       1.5797      2.00000
     37       1.6835      2.00000
     38       1.7663      2.00000
     39       1.7919      2.00000
     40       1.8213      2.00000
     41       1.8595      2.00000
     42       1.8599      2.00000
     43       1.9140      2.00000
     44       2.0035      2.00000
     45       3.0326      2.00000
     46       3.3726      2.00000
     47       3.9063      2.00000
     48       4.6285      2.00000
     49       4.6387      2.00000
     50       4.7444      2.00000
     51       4.9328      2.00000
     52       4.9612      2.00000
     53       5.3800      2.00000
     54       5.4631      2.00000
     55       5.6944      2.00000
     56       6.1672      2.00000
     57       6.8665      1.11056
     58       7.5037      0.00000
     59       7.6258      0.00000
     60       7.8871      0.00000
     61       8.7665      0.00000
     62       8.9467      0.00000
     63       9.0942      0.00000
     64      10.2199      0.00000
     65      10.2681      0.00000
     66      10.6490      0.00000
     67      11.7704      0.00000
     68      11.7735      0.00000


--------------------------------------------------------------------------------------------------------


 soft charge-density along one line, spin component           1
         0         1         2         3         4         5         6         7         8         9
 total charge-density along one line
 
 pseudopotential strength for first ion, spin component:           1
 12.125   0.000 -14.749   0.000  -0.000   0.000  -0.007   0.000   0.000   0.000   0.000   0.000   0.008   0.000  -0.000   0.000
-14.749   0.000  17.960   0.000   0.000   0.000   0.008   0.000  -0.000   0.000  -0.000   0.000  -0.010   0.000   0.000   0.000
 -0.000   0.000   0.000   0.000  -8.264   0.000  -0.000   0.000   0.000   0.000   9.886   0.000   0.000   0.000  -0.000   0.000
 -0.007   0.000   0.008   0.000  -0.000   0.000  -8.276   0.000   0.000   0.000   0.000   0.000   9.902   0.000  -0.000   0.000
  0.000   0.000  -0.000   0.000   0.000   0.000   0.000   0.000  -8.264   0.000  -0.000   0.000  -0.000   0.000   9.886   0.000
  0.000   0.000  -0.000   0.000   9.886   0.000   0.000   0.000  -0.000   0.000 -11.663   0.000  -0.000   0.000   0.000   0.000
  0.008   0.000  -0.010   0.000   0.000   0.000   9.902   0.000  -0.000   0.000  -0.000   0.000 -11.685   0.000   0.000   0.000
 -0.000   0.000   0.000   0.000  -0.000   0.000  -0.000   0.000   9.886   0.000   0.000   0.000   0.000   0.000 -11.663   0.000
 total augmentation occupancy for first ion, spin component:           1
  2.515   0.321   0.000   0.037  -0.000   0.000   0.005  -0.000
  0.321   0.084  -0.000   0.021  -0.000  -0.000  -0.008   0.000
  0.000  -0.000   2.063   0.000  -0.000   0.230   0.000  -0.000
  0.037   0.021  -0.000   2.057  -0.000   0.000   0.241  -0.000
 -0.000  -0.000  -0.000  -0.000   2.063  -0.000  -0.000   0.230
 -0.000  -0.000   0.230   0.000  -0.000   0.030   0.000  -0.000
  0.005  -0.008   0.000   0.241  -0.000   0.000   0.035  -0.000
 -0.000   0.000  -0.000  -0.000   0.230  -0.000  -0.000   0.030


------------------------ aborting loop because EDIFF is reached ----------------------------------------


    CHARGE:  cpu time    0.39: real time    0.39
    FORLOC:  cpu time    0.03: real time    0.03
    FORNL :  cpu time    3.41: real time    3.41
    STRESS:  cpu time    4.40: real time    4.40
    FORCOR:  cpu time    0.13: real time    0.14
    FORHAR:  cpu time    0.06: real time    0.06
    MIXING:  cpu time    0.00: real time    0.00
    OFIELD:  cpu time    0.00: real time    0.00

  FORCE on cell =-STRESS in cart. coord.  units (eV):
  Direction    XX          YY          ZZ          XY          YZ          ZX
  --------------------------------------------------------------------------------------
  Alpha Z   153.87710   153.87710   153.87710
  Ewald   13694.23214 13694.23263-16593.19151    -0.00017     0.00001    -0.00014
  Hartree 15645.85085 15645.85076-14613.97225    -0.00000     0.00000     0.00004
  E(xc)    -450.36385  -450.36387  -450.14078    -0.00000     0.00000    -0.00000
  Local  -30680.60832-30680.60775 29872.68464    -0.00019    -0.00001     0.00004
  n-local   -75.78437   -92.12586   -82.83183     3.49808    -1.65812     4.67312
  augment    67.07338    67.07311    66.03113     0.00019    -0.00000     0.00000
  Kinetic  1654.00770  1644.52086  1629.61277    -2.44348     0.05630     0.35674
  Fock        0.00000     0.00000     0.00000     0.00000     0.00000     0.00000
  -------------------------------------------------------------------------------------
  Total      -4.62921    -4.62921   -17.93073     0.00000    -0.00000     0.00000
  in kB     -22.60059   -22.60057   -87.54089     0.00000    -0.00000     0.00000
  external pressure =      -44.25 kB  Pullay stress =        0.00 kB


 VOLUME and BASIS-vectors are now :
 -----------------------------------------------------------------------------
  energy-cutoff  :      520.00
  volume of cell :      328.17
      direct lattice vectors                 reciprocal lattice vectors
     2.575303410 -1.486851677  0.000000000     0.388303761  0.000000000  0.000000000
     0.000000000  2.973703354  0.000000000     0.194151881  0.336281021  0.000000000
    -0.000000000  0.000000000 42.852048696     0.000000000  0.000000000  0.023336107

  length of vectors
     2.973704014  2.973703354 42.852048696     0.388303761  0.388303847  0.023336107


 FORCES acting on ions
    electron-ion (+dipol)            ewald-force                    non-local-force                 convergence-correction
 -----------------------------------------------------------------------------------------------
   0.587E-03 -.102E-02 0.119E+04   0.499E-04 -.585E-04 -.119E+04   -.254E-16 0.139E-16 0.262E+01   0.108E-08 -.173E-08 0.801E-01
   -.471E-03 0.815E-03 0.724E+03   -.912E-07 0.100E-06 -.724E+03   0.186E-18 -.271E-19 -.788E-02   0.647E-08 -.109E-07 0.656E-01
   0.583E-03 -.101E-02 0.483E+03   0.543E-04 -.940E-04 -.483E+03   0.142E-18 0.678E-19 -.864E-02   0.349E-08 -.612E-08 0.317E-01
   -.471E-03 0.815E-03 0.106E-01   0.448E-08 -.506E-08 -.141E-02   -.760E-21 0.000E+00 0.000E+00   0.147E-08 -.254E-08 -.120E-03
   0.583E-03 -.101E-02 -.242E+03   0.544E-04 -.942E-04 0.242E+03   -.266E-18 -.136E-19 0.131E-01   -.438E-08 0.771E-08 -.981E-02
   -.471E-03 0.815E-03 -.724E+03   0.641E-07 -.691E-07 0.724E+03   -.183E-18 0.203E-19 0.788E-02   0.473E-08 -.855E-08 -.657E-01
   0.583E-03 -.101E-02 -.964E+03   0.540E-04 -.932E-04 0.964E+03   0.116E-17 0.108E-18 -.583E-01   0.705E-08 -.124E-07 -.806E-01
   -.152E-02 0.264E-02 0.964E+03   -.540E-04 0.931E-04 -.964E+03   -.121E-17 -.108E-18 0.583E-01   -.188E-07 0.328E-07 0.805E-01
   -.152E-02 0.264E-02 0.242E+03   -.544E-04 0.942E-04 -.242E+03   0.261E-18 0.136E-19 -.131E-01   0.113E-07 -.197E-07 0.959E-02
   -.152E-02 0.264E-02 -.483E+03   -.543E-04 0.940E-04 0.483E+03   -.139E-18 -.542E-19 0.864E-02   -.874E-08 0.152E-07 -.318E-01
   -.153E-02 0.265E-02 -.119E+04   -.499E-04 0.585E-04 0.119E+04   0.428E-16 0.139E-16 -.262E+01   -.364E-08 0.617E-08 -.800E-01
   0.200E-04 -.354E-04 0.360E+03   0.107E-05 -.132E-05 -.360E+03   -.161E-17 0.173E-17 -.697E-01   0.797E-09 -.145E-08 0.282E-01
   0.215E-04 -.373E-04 0.121E+03   0.286E-07 -.325E-07 -.121E+03   0.123E-18 0.136E-19 -.503E-02   -.727E-09 0.134E-08 0.559E-02
   0.216E-04 -.373E-04 -.121E+03   -.289E-07 0.329E-07 0.121E+03   -.118E-18 -.271E-19 0.503E-02   0.727E-09 -.134E-08 -.566E-02
   0.212E-04 -.360E-04 -.360E+03   -.106E-05 0.132E-05 0.360E+03   0.118E-17 0.000E+00 0.697E-01   -.720E-09 0.132E-08 -.282E-01
   0.635E-04 -.110E-03 0.201E+03   -.469E-04 0.813E-04 -.201E+03   0.247E-18 -.542E-19 -.908E-02   0.425E-09 -.852E-09 0.173E-01
   0.637E-04 -.110E-03 -.403E+02   -.471E-04 0.815E-04 0.403E+02   -.378E-19 -.678E-20 0.164E-02   0.198E-09 -.317E-09 -.930E-03
   0.635E-04 -.110E-03 -.281E+03   -.468E-04 0.810E-04 0.281E+03   -.636E-18 0.000E+00 0.192E-01   0.490E-09 -.998E-09 -.254E-01
   -.205E-04 0.354E-04 0.281E+03   0.468E-04 -.810E-04 -.281E+03   0.597E-18 0.000E+00 -.192E-01   -.477E-09 0.977E-09 0.254E-01
   -.205E-04 0.355E-04 0.403E+02   0.471E-04 -.815E-04 -.403E+02   0.374E-19 0.678E-20 -.164E-02   -.225E-09 0.365E-09 0.853E-03
   -.204E-04 0.354E-04 -.201E+03   0.469E-04 -.813E-04 0.201E+03   -.239E-18 0.542E-19 0.908E-02   -.420E-09 0.843E-09 -.174E-01
   0.493E-05 -.854E-05 0.458E-02   -.261E-09 0.255E-09 -.104E-01   -.347E-20 0.000E+00 -.163E-18   0.629E-11 -.109E-10 0.595E-04
   0.208E-04 -.233E-04 0.632E+03   -.218E-04 0.229E-04 -.638E+03   -.147E-15 0.278E-16 0.567E+01   0.223E-09 -.375E-09 0.312E-01
   0.216E-04 -.374E-04 0.447E+03   -.280E-05 0.462E-05 -.447E+03   -.282E-16 0.217E-16 0.257E+00   0.278E-10 -.506E-10 0.189E-01
   -.995E-05 0.172E-04 0.221E+03   0.238E-05 -.407E-05 -.222E+03   -.168E-17 -.130E-17 0.118E+00   -.751E-11 0.108E-10 0.814E-02
   0.307E-05 -.181E-04 -.632E+03   0.217E-04 -.229E-04 0.638E+03   0.149E-15 -.208E-16 -.567E+01   -.117E-09 0.191E-09 -.312E-01
   0.206E-04 -.357E-04 -.221E+03   -.238E-05 0.407E-05 0.222E+03   0.172E-17 0.173E-17 -.118E+00   0.222E-10 -.363E-10 -.803E-02
   -.100E-04 0.174E-04 -.447E+03   0.280E-05 -.462E-05 0.447E+03   0.282E-16 -.243E-16 -.257E+00   -.169E-11 0.544E-11 -.188E-01
 -----------------------------------------------------------------------------------------------
   -.491E-02 0.851E-02 0.602E+00   0.109E-12 0.463E-13 -.102E-11   0.187E-16 0.343E-16 -.172E-14   0.231E-09 -.400E-09 -.469E-03
 
 
 POSITION                                       TOTAL-FORCE (eV/Angst)
 -----------------------------------------------------------------------------------
      0.85843      1.48685      9.82983        -0.000000     -0.000000      0.004579
     -0.00000      0.00000     14.91029         0.000000      0.000000     -0.002472
      0.85843      1.48685     17.43430         0.000000     -0.000000     -0.002973
     -0.00000     -0.00000     22.47766        -0.000000      0.000000      0.000000
      0.85843      1.48685     24.99830        -0.000000     -0.000000      0.006941
     -0.00000     -0.00000     30.04486        -0.000000     -0.000000      0.002472
      0.85843      1.48685     32.57057        -0.000000      0.000000     -0.000011
      1.71687     -0.00000     12.38469         0.000000     -0.000000      0.000011
      1.71687     -0.00000     19.95703         0.000000      0.000000     -0.006941
      1.71687     -0.00000     27.52096        -0.000000      0.000000      0.002973
      1.71687     -0.00000     35.12545         0.000000      0.000000     -0.004579
     -0.00000      0.00000     11.12539        -0.000000      0.000000      0.009373
     -0.00000     -0.00000     18.69599         0.000000      0.000000     -0.005755
     -0.00000     -0.00000     26.25930        -0.000000      0.000000      0.005755
     -0.00000     -0.00000     33.82989         0.000000      0.000000     -0.009373
      1.71687     -0.00000     16.17306         0.000000      0.000000     -0.002356
      1.71687     -0.00000     23.73787        -0.000000      0.000000      0.002543
      1.71687     -0.00000     31.30637        -0.000000      0.000000      0.001497
      0.85843      1.48685     13.64911         0.000000      0.000000     -0.001497
      0.85843      1.48685     21.21737         0.000000     -0.000000     -0.002543
      0.85843      1.48685     28.78241        -0.000000      0.000000      0.002356
     -0.00000     -0.00000      1.05169         0.000000      0.000000      0.000000
     -0.00000      0.00000      8.33353        -0.000000      0.000000      0.010295
      1.71687     -0.00000      5.98054        -0.000000      0.000000      0.006850
      0.85843      1.48685      3.50451         0.000000      0.000000     -0.008776
     -0.00000     -0.00000     36.62186         0.000000      0.000000     -0.010295
      1.71687     -0.00000     41.45083        -0.000000      0.000000      0.008776
      0.85843      1.48685     38.97484         0.000000      0.000000     -0.006850
 -----------------------------------------------------------------------------------
    total drift:                               -0.004913      0.008510      0.601603


--------------------------------------------------------------------------------------------------------



  FREE ENERGIE OF THE ION-ELECTRON SYSTEM (eV)
  ---------------------------------------------------
  free  energy   TOTEN  =      -152.16096865 eV

  energy  without entropy=     -152.15538568  energy(sigma->0) =     -152.15817716
 
 d Force = 0.1245886E-03[ 0.646E-04, 0.185E-03]  d Energy = 0.1167048E-03 0.788E-05
 d Force =-0.1342800E+01[-0.134E+01,-0.134E+01]  d Ewald  =-0.1342800E+01 0.896E-07


--------------------------------------------------------------------------------------------------------


    POTLOK:  cpu time    0.21: real time    0.21


--------------------------------------------------------------------------------------------------------


 Conjugate gradient step on ions:
 trial-energy change:   -0.000117  1 .order   -0.000125   -0.000185   -0.000065
  (g-gl).g = 0.808E-04      g.g   = 0.192E-03  gl.gl    = 0.616E-03
 g(Force)  = 0.192E-03   g(Stress)= 0.000E+00 ortho     = 0.767E-05
 gamma     =   0.13116
 trial     =   0.95649
 opt step  =   1.47176  (harmonic =   1.47176) maximal distance =0.00187543
 next E    =  -152.160994   (d E  =  -0.00014)


--------------------------------------------------------------------------------------------------------


  
 reached required accuracy - stopping structural energy minimisation
     LOOP+:  cpu time   35.92: real time   35.96
    4ORBIT:  cpu time    0.00: real time    0.00

 total amount of memory used by VASP on root node   149511. kBytes
========================================================================

   base      :      30000. kBytes
   nonl-proj :      15708. kBytes
   fftplans  :      55172. kBytes
   grid      :      22118. kBytes
   one-center:         56. kBytes
   wavefun   :      26457. kBytes
 
  
  
 General timing and accounting informations for this job:
 ========================================================
  
                  Total CPU time used (sec):     1464.904
                            User time (sec):     1447.996
                          System time (sec):       16.908
                         Elapsed time (sec):     1466.590
  
                   Maximum memory used (kb):      255252.
                   Average memory used (kb):           0.
  
                          Minor page faults:       329845
                          Major page faults:            0
                 Voluntary context switches:          317
