       N       E                     dE             d eps       ncg     rms          rms(c)
DAV:   1     0.462039515777E+03    0.46204E+03   -0.41709E+04  6092   0.133E+03
DAV:   2    -0.965890064045E+02   -0.55863E+03   -0.53065E+03  7874   0.250E+02
DAV:   3    -0.147944299712E+03   -0.51355E+02   -0.51076E+02  7112   0.818E+01
DAV:   4    -0.148588634857E+03   -0.64434E+00   -0.64337E+00  7106   0.998E+00
DAV:   5    -0.148598318768E+03   -0.96839E-02   -0.96793E-02  7136   0.121E+00    0.219E+01
DAV:   6    -0.134270412634E+03    0.14328E+02   -0.82365E+01  6892   0.293E+01    0.745E+00
DAV:   7    -0.134146125865E+03    0.12429E+00   -0.14497E+00  6632   0.502E+00    0.455E+00
DAV:   8    -0.134046917330E+03    0.99209E-01   -0.42424E-01  7166   0.388E+00    0.770E-01
DAV:   9    -0.134036012003E+03    0.10905E-01   -0.66226E-02  6924   0.117E+00    0.457E-01
DAV:  10    -0.134035822908E+03    0.18909E-03   -0.39811E-02  6956   0.829E-01    0.247E-01
DAV:  11    -0.134035774105E+03    0.48803E-04   -0.31938E-03  7008   0.270E-01    0.166E-01
DAV:  12    -0.134035502360E+03    0.27175E-03   -0.40432E-03  7938   0.324E-01    0.771E-02
DAV:  13    -0.134035347093E+03    0.15527E-03   -0.11274E-03  7186   0.156E-01    0.604E-02
DAV:  14    -0.134035209262E+03    0.13783E-03   -0.31934E-04  8022   0.106E-01    0.317E-02
DAV:  15    -0.134035039507E+03    0.16975E-03   -0.10173E-04  8314   0.113E-01    0.170E-02
DAV:  16    -0.134034912865E+03    0.12664E-03   -0.17017E-04  7918   0.125E-01    0.139E-02
DAV:  17    -0.134034717830E+03    0.19503E-03   -0.18506E-04  8558   0.218E-01    0.184E-02
DAV:  18    -0.134034655261E+03    0.62569E-04   -0.18213E-04  7428   0.156E-01    0.178E-02
DAV:  19    -0.134034625606E+03    0.29655E-04   -0.24121E-04  7556   0.146E-01    0.135E-02
DAV:  20    -0.134034611368E+03    0.14238E-04   -0.10975E-04  6866   0.892E-02    0.102E-02
DAV:  21    -0.134034609722E+03    0.16458E-05   -0.47711E-05  6060   0.461E-02
   1 F= -.13403461E+03 E0= -.13403247E+03  d E =-.134035E+03
       N       E                     dE             d eps       ncg     rms          rms(c)
DAV:   1    -0.134036698023E+03   -0.20867E-02   -0.18926E-02  6304   0.615E-01    0.397E-02
DAV:   2    -0.134036704834E+03   -0.68112E-05   -0.11496E-03  7128   0.159E-01    0.314E-02
DAV:   3    -0.134036685020E+03    0.19814E-04   -0.11760E-04  7046   0.490E-02    0.231E-02
DAV:   4    -0.134036669793E+03    0.15228E-04   -0.35595E-05  5940   0.245E-02    0.119E-02
DAV:   5    -0.134036653094E+03    0.16698E-04   -0.36348E-05  6520   0.301E-02    0.900E-03
DAV:   6    -0.134036647940E+03    0.51545E-05   -0.11400E-05  4716   0.228E-02
   2 F= -.13403665E+03 E0= -.13403449E+03  d E =-.203822E-02
       N       E                     dE             d eps       ncg     rms          rms(c)
DAV:   1    -0.134037482799E+03   -0.82971E-03   -0.23525E-02  6250   0.691E-01    0.419E-02
DAV:   2    -0.134037507783E+03   -0.24984E-04   -0.15863E-03  7108   0.178E-01    0.390E-02
DAV:   3    -0.134037471673E+03    0.36110E-04   -0.12327E-04  7052   0.536E-02    0.270E-02
DAV:   4    -0.134037438037E+03    0.33636E-04   -0.12077E-04  6974   0.485E-02    0.122E-02
DAV:   5    -0.134037419044E+03    0.18993E-04   -0.47004E-05  6954   0.411E-02    0.183E-02
DAV:   6    -0.134037406563E+03    0.12481E-04   -0.25764E-05  5648   0.299E-02    0.101E-02
DAV:   7    -0.134037403081E+03    0.34824E-05   -0.19637E-05  4710   0.174E-02
   3 F= -.13403740E+03 E0= -.13403524E+03  d E =-.279336E-02
       N       E                     dE             d eps       ncg     rms          rms(c)
DAV:   1    -0.134038406456E+03   -0.99989E-03   -0.34322E-01  6436   0.254E+00    0.780E-02
DAV:   2    -0.134039078078E+03   -0.67162E-03   -0.79080E-03  6896   0.353E-01    0.458E-02
DAV:   3    -0.134039027105E+03    0.50973E-04   -0.12903E-04  7196   0.632E-02    0.314E-02
DAV:   4    -0.134038994146E+03    0.32959E-04   -0.65265E-05  6722   0.513E-02    0.151E-02
DAV:   5    -0.134038980498E+03    0.13648E-04   -0.31148E-05  6076   0.451E-02    0.727E-03
DAV:   6    -0.134038978677E+03    0.18217E-05   -0.27382E-05  5152   0.274E-02
   4 F= -.13403898E+03 E0= -.13403681E+03  d E =-.157560E-02
       N       E                     dE             d eps       ncg     rms          rms(c)
DAV:   1    -0.134037120179E+03    0.18603E-02   -0.20541E+00  6376   0.622E+00    0.190E-01
DAV:   2    -0.134041204586E+03   -0.40844E-02   -0.47431E-02  6880   0.864E-01    0.114E-01
DAV:   3    -0.134040888060E+03    0.31653E-03   -0.62487E-04  7258   0.148E-01    0.768E-02
DAV:   4    -0.134040682806E+03    0.20525E-03   -0.47132E-04  7238   0.144E-01    0.322E-02
DAV:   5    -0.134040649019E+03    0.33787E-04   -0.26694E-04  7256   0.972E-02    0.178E-02
DAV:   6    -0.134040638725E+03    0.10295E-04   -0.77313E-05  6762   0.440E-02    0.136E-02
DAV:   7    -0.134040617416E+03    0.21309E-04   -0.18467E-05  4786   0.343E-02    0.740E-03
DAV:   8    -0.134040606580E+03    0.10836E-04   -0.50229E-06  4096   0.301E-02    0.539E-03
DAV:   9    -0.134040572687E+03    0.33893E-04   -0.53377E-05  6838   0.116E-01    0.123E-02
DAV:  10    -0.134040561597E+03    0.11090E-04   -0.38282E-05  5828   0.347E-02    0.114E-02
DAV:  11    -0.134040549788E+03    0.11809E-04   -0.27898E-05  5592   0.394E-02    0.997E-03
DAV:  12    -0.134040525219E+03    0.24569E-04   -0.22787E-05  5584   0.125E-01    0.119E-02
DAV:  13    -0.134040522443E+03    0.27765E-05   -0.52785E-05  6250   0.589E-02
   5 F= -.13404052E+03 E0= -.13403845E+03  d E =-.311936E-02
       N       E                     dE             d eps       ncg     rms          rms(c)
DAV:   1    -0.134041166865E+03   -0.64165E-03   -0.33290E-01  6408   0.253E+00    0.756E-02
DAV:   2    -0.134041843988E+03   -0.67712E-03   -0.74516E-03  6790   0.349E-01    0.418E-02
DAV:   3    -0.134041801723E+03    0.42266E-04   -0.73105E-05  7150   0.441E-02    0.290E-02
DAV:   4    -0.134041763634E+03    0.38089E-04   -0.98673E-05  6748   0.631E-02    0.101E-02
DAV:   5    -0.134041760711E+03    0.29237E-05   -0.50240E-05  6272   0.343E-02    0.114E-02
DAV:   6    -0.134041756690E+03    0.40207E-05   -0.99863E-06  3776   0.167E-02
   6 F= -.13404176E+03 E0= -.13403974E+03  d E =-.123425E-02
       N       E                     dE             d eps       ncg     rms          rms(c)
DAV:   1    -0.134038143103E+03    0.36176E-02   -0.29950E+00  6340   0.761E+00    0.224E-01
DAV:   2    -0.134044310392E+03   -0.61673E-02   -0.67867E-02  6776   0.106E+00    0.130E-01
DAV:   3    -0.134043887534E+03    0.42286E-03   -0.63011E-04  7192   0.134E-01    0.903E-02
DAV:   4    -0.134043459223E+03    0.42831E-03   -0.10748E-03  7212   0.210E-01    0.335E-02
DAV:   5    -0.134043416112E+03    0.43111E-04   -0.50231E-04  7092   0.107E-01    0.356E-02
DAV:   6    -0.134043355971E+03    0.60141E-04   -0.10769E-04  6848   0.564E-02    0.166E-02
DAV:   7    -0.134043239320E+03    0.11665E-03   -0.60879E-05  7102   0.912E-02    0.162E-02
DAV:   8    -0.134043097996E+03    0.14132E-03   -0.84806E-05  7760   0.138E-01    0.270E-02
DAV:   9    -0.134042987964E+03    0.11003E-03   -0.10240E-04  8040   0.120E-01    0.233E-02
DAV:  10    -0.134042847546E+03    0.14042E-03   -0.22552E-04  8920   0.187E-01    0.183E-02
DAV:  11    -0.134042742315E+03    0.10523E-03   -0.16034E-04  8168   0.215E-01    0.240E-02
DAV:  12    -0.134042706500E+03    0.35815E-04   -0.21142E-04  7766   0.159E-01    0.119E-02
DAV:  13    -0.134042720755E+03   -0.14255E-04   -0.21905E-04  6578   0.604E-02    0.111E-02
DAV:  14    -0.134042719540E+03    0.12159E-05   -0.79006E-06  3856   0.155E-02
   7 F= -.13404272E+03 E0= -.13404089E+03  d E =-.219710E-02
       N       E                     dE             d eps       ncg     rms          rms(c)
DAV:   1    -0.134042612114E+03    0.10864E-03   -0.12742E-01  6432   0.156E+00    0.474E-02
DAV:   2    -0.134042879237E+03   -0.26712E-03   -0.29641E-03  6758   0.215E-01    0.276E-02
DAV:   3    -0.134042859841E+03    0.19396E-04   -0.25304E-05  5646   0.304E-02    0.193E-02
DAV:   4    -0.134042841134E+03    0.18707E-04   -0.63351E-05  6628   0.531E-02    0.692E-03
DAV:   5    -0.134042841411E+03   -0.27684E-06   -0.29266E-05  5556   0.232E-02    0.879E-03
DAV:   6    -0.134042840268E+03    0.11426E-05   -0.27043E-06  3746   0.757E-03
   8 F= -.13404284E+03 E0= -.13404096E+03  d E =-.231783E-02
       N       E                     dE             d eps       ncg     rms          rms(c)
DAV:   1    -0.134043477753E+03   -0.63634E-03   -0.42865E-01  6156   0.284E+00    0.854E-02
DAV:   2    -0.134044302853E+03   -0.82510E-03   -0.92201E-03  6812   0.388E-01    0.465E-02
DAV:   3    -0.134044257401E+03    0.45452E-04   -0.11107E-04  7308   0.530E-02    0.330E-02
DAV:   4    -0.134044224155E+03    0.33246E-04   -0.15386E-04  7050   0.709E-02    0.142E-02
DAV:   5    -0.134044223162E+03    0.99339E-06   -0.50154E-05  6198   0.349E-02    0.165E-02
DAV:   6    -0.134044218289E+03    0.48733E-05   -0.14169E-05  3822   0.203E-02
   9 F= -.13404422E+03 E0= -.13404244E+03  d E =-.137802E-02
       N       E                     dE             d eps       ncg     rms          rms(c)
DAV:   1    -0.134039084272E+03    0.51389E-02   -0.38348E+00  6132   0.851E+00    0.254E-01
DAV:   2    -0.134046625366E+03   -0.75411E-02   -0.83405E-02  6806   0.116E+00    0.144E-01
DAV:   3    -0.134046204913E+03    0.42045E-03   -0.90044E-04  7294   0.158E-01    0.999E-02
DAV:   4    -0.134045924422E+03    0.28049E-03   -0.16178E-03  7264   0.234E-01    0.422E-02
DAV:   5    -0.134045936475E+03   -0.12052E-04   -0.49850E-04  6902   0.101E-01    0.488E-02
DAV:   6    -0.134045904413E+03    0.32061E-04   -0.11395E-04  6504   0.504E-02    0.272E-02
DAV:   7    -0.134045874977E+03    0.29436E-04   -0.60389E-05  6696   0.543E-02    0.106E-02
DAV:   8    -0.134045864016E+03    0.10962E-04   -0.40083E-05  6020   0.404E-02    0.115E-02
DAV:   9    -0.134045837591E+03    0.26425E-04   -0.98429E-06  4538   0.515E-02    0.707E-03
DAV:  10    -0.134045804937E+03    0.32654E-04   -0.76257E-05  7070   0.911E-02    0.160E-02
DAV:  11    -0.134045785908E+03    0.19029E-04   -0.44388E-05  6500   0.681E-02    0.217E-02
DAV:  12    -0.134045755432E+03    0.30476E-04   -0.22007E-05  5452   0.105E-01    0.182E-02
DAV:  13    -0.134045743782E+03    0.11650E-04   -0.67793E-05  6762   0.868E-02    0.122E-02
DAV:  14    -0.134045746452E+03   -0.26701E-05   -0.68096E-05  6062   0.470E-02
  10 F= -.13404575E+03 E0= -.13404429E+03  d E =-.290618E-02
       N       E                     dE             d eps       ncg     rms          rms(c)
DAV:   1    -0.134045370101E+03    0.37368E-03   -0.11858E+00  6148   0.481E+00    0.143E-01
DAV:   2    -0.134047841969E+03   -0.24719E-02   -0.27192E-02  6860   0.680E-01    0.816E-02
DAV:   3    -0.134047717467E+03    0.12450E-03   -0.39827E-04  7270   0.934E-02    0.601E-02
DAV:   4    -0.134047621989E+03    0.95478E-04   -0.31977E-04  6944   0.906E-02    0.246E-02
DAV:   5    -0.134047605898E+03    0.16091E-04   -0.10565E-04  6802   0.621E-02    0.226E-02
DAV:   6    -0.134047597781E+03    0.81167E-05   -0.71729E-05  6464   0.470E-02
  11 F= -.13404760E+03 E0= -.13404623E+03  d E =-.185133E-02
       N       E                     dE             d eps       ncg     rms          rms(c)
DAV:   1    -0.134046306934E+03    0.12990E-02   -0.94360E-01  6132   0.429E+00    0.131E-01
DAV:   2    -0.134048308741E+03   -0.20018E-02   -0.21937E-02  6868   0.608E-01    0.725E-02
DAV:   3    -0.134048205434E+03    0.10331E-03   -0.29176E-04  7250   0.833E-02    0.532E-02
DAV:   4    -0.134048123705E+03    0.81729E-04   -0.29932E-04  6854   0.923E-02    0.212E-02
DAV:   5    -0.134048112444E+03    0.11261E-04   -0.96204E-05  6774   0.595E-02    0.216E-02
DAV:   6    -0.134048103918E+03    0.85254E-05   -0.56487E-05  6098   0.402E-02
  12 F= -.13404810E+03 E0= -.13404679E+03  d E =-.235747E-02
       N       E                     dE             d eps       ncg     rms          rms(c)
DAV:   1    -0.134047680836E+03    0.43161E-03   -0.14090E+00  6172   0.520E+00    0.151E-01
DAV:   2    -0.134050523219E+03   -0.28424E-02   -0.30758E-02  6830   0.708E-01    0.834E-02
DAV:   3    -0.134050363486E+03    0.15973E-03   -0.30816E-04  7338   0.913E-02    0.564E-02
DAV:   4    -0.134050246899E+03    0.11659E-03   -0.33375E-04  7152   0.116E-01    0.192E-02
DAV:   5    -0.134050245364E+03    0.15356E-05   -0.18586E-04  6956   0.642E-02    0.183E-02
DAV:   6    -0.134050240944E+03    0.44200E-05   -0.16548E-05  4198   0.183E-02
  13 F= -.13405024E+03 E0= -.13404893E+03  d E =-.213703E-02
       N       E                     dE             d eps       ncg     rms          rms(c)
DAV:   1    -0.134041199870E+03    0.90455E-02   -0.58573E+00  6156   0.106E+01    0.306E-01
DAV:   2    -0.134052990542E+03   -0.11791E-01   -0.12810E-01  6852   0.145E+00    0.173E-01
DAV:   3    -0.134052307135E+03    0.68341E-03   -0.13622E-03  7338   0.190E-01    0.117E-01
DAV:   4    -0.134051802073E+03    0.50506E-03   -0.13162E-03  7168   0.229E-01    0.414E-02
DAV:   5    -0.134051778537E+03    0.23536E-04   -0.77709E-04  7016   0.136E-01    0.360E-02
DAV:   6    -0.134051758594E+03    0.19943E-04   -0.92407E-05  6624   0.419E-02    0.270E-02
DAV:   7    -0.134051724045E+03    0.34549E-04   -0.51981E-05  6624   0.308E-02    0.125E-02
DAV:   8    -0.134051679077E+03    0.44968E-04   -0.29640E-05  5780   0.483E-02    0.145E-02
DAV:   9    -0.134051629750E+03    0.49328E-04   -0.49043E-05  6456   0.854E-02    0.127E-02
DAV:  10    -0.134051585383E+03    0.44367E-04   -0.70331E-05  7622   0.985E-02    0.154E-02
DAV:  11    -0.134051540505E+03    0.44878E-04   -0.86898E-05  7206   0.105E-01    0.137E-02
DAV:  12    -0.134051503577E+03    0.36928E-04   -0.42327E-05  6408   0.106E-01    0.146E-02
DAV:  13    -0.134051476124E+03    0.27453E-04   -0.62886E-05  6976   0.133E-01    0.873E-03
DAV:  14    -0.134051483364E+03   -0.72400E-05   -0.11215E-04  6232   0.436E-02    0.459E-03
DAV:  15    -0.134051483347E+03    0.17231E-07   -0.87276E-06  3836   0.147E-02
  14 F= -.13405148E+03 E0= -.13405014E+03  d E =-.337943E-02
       N       E                     dE             d eps       ncg     rms          rms(c)
DAV:   1    -0.134051560816E+03   -0.77452E-04   -0.69238E-01  6116   0.367E+00    0.109E-01
DAV:   2    -0.134052982483E+03   -0.14217E-02   -0.15410E-02  6742   0.510E-01    0.590E-02
DAV:   3    -0.134052920480E+03    0.62003E-04   -0.20778E-04  7284   0.654E-02    0.418E-02
DAV:   4    -0.134052878579E+03    0.41901E-04   -0.17192E-04  6886   0.675E-02    0.185E-02
DAV:   5    -0.134052872686E+03    0.58931E-05   -0.60173E-05  6798   0.412E-02    0.185E-02
DAV:   6    -0.134052865172E+03    0.75138E-05   -0.29937E-05  4962   0.333E-02
  15 F= -.13405287E+03 E0= -.13405149E+03  d E =-.138183E-02
       N       E                     dE             d eps       ncg     rms          rms(c)
DAV:   1    -0.134043591028E+03    0.92817E-02   -0.55219E+00  6092   0.104E+01    0.315E-01
DAV:   2    -0.134054971078E+03   -0.11380E-01   -0.12432E-01  6736   0.145E+00    0.168E-01
DAV:   3    -0.134054461405E+03    0.50967E-03   -0.18947E-03  7246   0.195E-01    0.118E-01
DAV:   4    -0.134054112580E+03    0.34883E-03   -0.12200E-03  6998   0.172E-01    0.546E-02
DAV:   5    -0.134054014150E+03    0.98429E-04   -0.40875E-04  7190   0.121E-01    0.493E-02
DAV:   6    -0.134053935875E+03    0.78276E-04   -0.26809E-04  7514   0.114E-01    0.271E-02
DAV:   7    -0.134053904180E+03    0.31695E-04   -0.15145E-04  6740   0.681E-02    0.201E-02
DAV:   8    -0.134053860141E+03    0.44039E-04   -0.14549E-05  4516   0.406E-02    0.145E-02
DAV:   9    -0.134053736759E+03    0.12338E-03   -0.10050E-04  7506   0.129E-01    0.215E-02
DAV:  10    -0.134053591171E+03    0.14559E-03   -0.18776E-04  9456   0.239E-01    0.984E-03
DAV:  11    -0.134053556193E+03    0.34978E-04   -0.30611E-04  8438   0.202E-01    0.211E-02
DAV:  12    -0.134053558280E+03   -0.20868E-05   -0.21032E-04  6606   0.632E-02    0.190E-02
DAV:  13    -0.134053548519E+03    0.97609E-05   -0.15397E-05  4644   0.401E-02
  16 F= -.13405355E+03 E0= -.13405205E+03  d E =-.206517E-02
       N       E                     dE             d eps       ncg     rms          rms(c)
DAV:   1    -0.134052592515E+03    0.96576E-03   -0.67079E-01  6168   0.362E+00    0.108E-01
DAV:   2    -0.134053961305E+03   -0.13688E-02   -0.14867E-02  6690   0.501E-01    0.575E-02
DAV:   3    -0.134053900152E+03    0.61154E-04   -0.20898E-04  7328   0.668E-02    0.407E-02
DAV:   4    -0.134053859858E+03    0.40294E-04   -0.14988E-04  6884   0.648E-02    0.184E-02
DAV:   5    -0.134053851782E+03    0.80759E-05   -0.57832E-05  6788   0.446E-02    0.172E-02
DAV:   6    -0.134053845219E+03    0.65627E-05   -0.32117E-05  5132   0.348E-02
  17 F= -.13405385E+03 E0= -.13405239E+03  d E =-.236187E-02
       N       E                     dE             d eps       ncg     rms          rms(c)
DAV:   1    -0.134054120474E+03   -0.26869E-03   -0.58488E-01  6188   0.330E+00    0.935E-02
DAV:   2    -0.134055199057E+03   -0.10786E-02   -0.12564E-02  6946   0.455E-01    0.604E-02
DAV:   3    -0.134055098360E+03    0.10070E-03   -0.15601E-04  7180   0.728E-02    0.421E-02
DAV:   4    -0.134055010000E+03    0.88360E-04   -0.17541E-04  7042   0.934E-02    0.171E-02
DAV:   5    -0.134054991346E+03    0.18654E-04   -0.11571E-04  6796   0.645E-02    0.119E-02
DAV:   6    -0.134054985085E+03    0.62606E-05   -0.34434E-05  5772   0.283E-02
  18 F= -.13405499E+03 E0= -.13405350E+03  d E =-.113987E-02
       N       E                     dE             d eps       ncg     rms          rms(c)
DAV:   1    -0.134054525824E+03    0.46552E-03   -0.45588E-01  6356   0.291E+00    0.840E-02
DAV:   2    -0.134055342881E+03   -0.81706E-03   -0.97055E-03  6946   0.402E-01    0.530E-02
DAV:   3    -0.134055254234E+03    0.88647E-04   -0.13718E-04  7124   0.734E-02    0.366E-02
DAV:   4    -0.134055170714E+03    0.83521E-04   -0.12034E-04  6994   0.880E-02    0.167E-02
DAV:   5    -0.134055136838E+03    0.33875E-04   -0.97425E-05  7066   0.741E-02    0.102E-02
DAV:   6    -0.134055121783E+03    0.15055E-04   -0.48456E-05  6440   0.436E-02    0.790E-03
DAV:   7    -0.134055095760E+03    0.26023E-04   -0.60428E-06  4356   0.447E-02    0.668E-03
DAV:   8    -0.134055066179E+03    0.29581E-04   -0.13635E-05  4838   0.606E-02    0.592E-03
DAV:   9    -0.134055009631E+03    0.56548E-04   -0.59575E-05  7336   0.160E-01    0.549E-03
DAV:  10    -0.134054992781E+03    0.16850E-04   -0.82857E-05  6804   0.985E-02    0.710E-03
DAV:  11    -0.134054986311E+03    0.64700E-05   -0.49208E-05  6310   0.599E-02
  19 F= -.13405499E+03 E0= -.13405348E+03  d E =-.114109E-02
       N       E                     dE             d eps       ncg     rms          rms(c)
DAV:   1    -0.134054980179E+03    0.12602E-04   -0.39350E-02  6660   0.856E-01    0.263E-02
DAV:   2    -0.134055054595E+03   -0.74415E-04   -0.86810E-04  6940   0.119E-01    0.156E-02
DAV:   3    -0.134055047377E+03    0.72179E-05   -0.11054E-05  4444   0.210E-02    0.108E-02
DAV:   4    -0.134055041200E+03    0.61763E-05   -0.18859E-05  5020   0.297E-02    0.400E-03
DAV:   5    -0.134055041037E+03    0.16388E-06   -0.10478E-05  3802   0.161E-02    0.457E-03
DAV:   6    -0.134055041166E+03   -0.12968E-06   -0.20496E-06  3572   0.560E-03
  20 F= -.13405504E+03 E0= -.13405354E+03  d E =-.119595E-02
       N       E                     dE             d eps       ncg     rms          rms(c)
DAV:   1    -0.134055034129E+03    0.69074E-05   -0.79359E-03  6580   0.384E-01    0.132E-02
DAV:   2    -0.134055047518E+03   -0.13389E-04   -0.17644E-04  6620   0.545E-02    0.692E-03
DAV:   3    -0.134055045643E+03    0.18750E-05   -0.27769E-06  3778   0.120E-02    0.499E-03
DAV:   4    -0.134055043655E+03    0.19881E-05   -0.31623E-06  4026   0.172E-02    0.205E-03
DAV:   5    -0.134055043119E+03    0.53622E-06   -0.40030E-06  3750   0.140E-02    0.231E-03
DAV:   6    -0.134055043140E+03   -0.21590E-07   -0.19780E-06  3386   0.587E-03
  21 F= -.13405504E+03 E0= -.13405355E+03  d E =-.119792E-02
       N       E                     dE             d eps       ncg     rms          rms(c)
DAV:   1    -0.134055243111E+03   -0.19999E-03   -0.29986E-02  6670   0.754E-01    0.259E-02
DAV:   2    -0.134055291354E+03   -0.48243E-04   -0.78715E-04  7032   0.123E-01    0.195E-02
DAV:   3    -0.134055281592E+03    0.97622E-05   -0.28563E-05  5918   0.300E-02    0.152E-02
DAV:   4    -0.134055272059E+03    0.95326E-05   -0.16321E-05  4808   0.248E-02    0.750E-03
DAV:   5    -0.134055264460E+03    0.75993E-05   -0.91924E-06  4286   0.312E-02    0.532E-03
DAV:   6    -0.134055259423E+03    0.50366E-05   -0.10081E-05  4568   0.352E-02
  22 F= -.13405526E+03 E0= -.13405375E+03  d E =-.216283E-03
