 vasp.5.3.5 31Mar14 (build Apr 08 2024 10:12:10) complex                        
  
 executed on             LinuxIFC date 2024.07.29  10:28:26
 running on    8 total cores
 distrk:  each k-point on    8 cores,    1 groups
 distr:  one band on NCORES_PER_BAND=   4 cores,    2 groups


--------------------------------------------------------------------------------------------------------


 INCAR:
 POTCAR:    PAW_PBE O 08Apr2002                   
 POTCAR:    PAW_PBE Mg 13Apr2007                  
 POTCAR:    PAW_PBE Al 04Jan2001                  
 POTCAR:    PAW_PBE O 08Apr2002                   
   VRHFIN =O: s2p4                                                              
   LEXCH  = PE                                                                  
   EATOM  =   432.3788 eV,   31.7789 Ry                                         
                                                                                
   TITEL  = PAW_PBE O 08Apr2002                                                 
   LULTRA =        F    use ultrasoft PP ?                                      
   IUNSCR =        1    unscreen: 0-lin 1-nonlin 2-no                           
   RPACOR =    1.200    partial core radius                                     
   POMASS =   16.000; ZVAL   =    6.000    mass and valenz                      
   RCORE  =    1.520    outmost cutoff radius                                   
   RWIGS  =    1.550; RWIGS  =    0.820    wigner-seitz radius (au A)           
   ENMAX  =  400.000; ENMIN  =  300.000 eV                                      
   ICORE  =        2    local potential                                         
   LCOR   =        T    correct aug charges                                     
   LPAW   =        T    paw PP                                                  
   EAUG   =  605.392                                                            
   DEXC   =    0.000                                                            
   RMAX   =    1.553    core radius for proj-oper                               
   RAUG   =    1.300    factor for augmentation sphere                          
   RDEP   =    1.550    radius for radial grids                                 
   RDEPT  =    1.329    core radius for aug-charge                              
                                                                                
   Atomic configuration                                                         
    4 entries                                                                   
     n  l   j            E        occ.                                          
     1  0  0.50      -514.6923   2.0000                                         
     2  0  0.50       -23.9615   2.0000                                         
     2  1  0.50        -9.0305   4.0000                                         
     3  2  1.50        -9.5241   0.0000                                         
   Description                                                                  
     l       E           TYP  RCUT    TYP  RCUT                                 
     0    -23.9615318     23  1.200                                             
     0     -9.5240782     23  1.200                                             
     1     -9.0304911     23  1.520                                             
     1      8.1634956     23  1.520                                             
     2     -9.5240782      7  1.500                                             
  local pseudopotential read in
  partial core-charges read in
  partial kinetic energy density read in
  kinetic energy density of atom read in
  atomic valenz-charges read in
  non local Contribution for L=           0  read in
    real space projection operators read in
  non local Contribution for L=           0  read in
    real space projection operators read in
  non local Contribution for L=           1  read in
    real space projection operators read in
  non local Contribution for L=           1  read in
    real space projection operators read in
    PAW grid and wavefunctions read in
 
   number of l-projection  operators is LMAX  =           4
   number of lm-projection operators is LMMAX =           8
 
 POTCAR:    PAW_PBE Mg 13Apr2007                  
   VRHFIN =Mg: s2p0                                                             
   LEXCH  = PE                                                                  
   EATOM  =    23.0369 eV,    1.6932 Ry                                         
                                                                                
   TITEL  = PAW_PBE Mg 13Apr2007                                                
   LULTRA =        F    use ultrasoft PP ?                                      
   IUNSCR =        1    unscreen: 0-lin 1-nonlin 2-no                           
   RPACOR =    1.500    partial core radius                                     
   POMASS =   24.305; ZVAL   =    2.000    mass and valenz                      
   RCORE  =    2.000    outmost cutoff radius                                   
   RWIGS  =    2.880; RWIGS  =    1.524    wigner-seitz radius (au A)           
   ENMAX  =  200.000; ENMIN  =  100.000 eV                                      
   RCLOC  =    1.506    cutoff for local pot                                    
   LCOR   =        T    correct aug charges                                     
   LPAW   =        T    paw PP                                                  
   EAUG   =  454.734                                                            
   DEXC   =    0.000                                                            
   RMAX   =    2.045    core radius for proj-oper                               
   RAUG   =    1.300    factor for augmentation sphere                          
   RDEP   =    2.025    radius for radial grids                                 
   RDEPT  =    1.942    core radius for aug-charge                              
                                                                                
   Atomic configuration                                                         
    6 entries                                                                   
     n  l   j            E        occ.                                          
     1  0  0.50     -1259.6230   2.0000                                         
     2  0  0.50       -79.8442   2.0000                                         
     2  1  1.50       -46.6121   6.0000                                         
     3  0  0.50        -4.7055   2.0000                                         
     3  1  0.50        -1.3660   0.0000                                         
     3  2  1.50        -1.3606   0.0000                                         
   Description                                                                  
     l       E           TYP  RCUT    TYP  RCUT                                 
     0     -4.7054661     23  2.000                                             
     0     27.2116520     23  2.000                                             
     1      1.3605826     23  2.000                                             
     1     27.2116520     23  2.000                                             
     2     -1.3605826     23  2.000                                             
  local pseudopotential read in
  partial core-charges read in
  partial kinetic energy density read in
  atomic valenz-charges read in
  non local Contribution for L=           0  read in
    real space projection operators read in
  non local Contribution for L=           0  read in
    real space projection operators read in
  non local Contribution for L=           1  read in
    real space projection operators read in
  non local Contribution for L=           1  read in
    real space projection operators read in
  non local Contribution for L=           2  read in
    real space projection operators read in
    PAW grid and wavefunctions read in
 
   number of l-projection  operators is LMAX  =           5
   number of lm-projection operators is LMMAX =          13
 
 POTCAR:    PAW_PBE Al 04Jan2001                  
   VRHFIN =Al: s2p1                                                             
   LEXCH  = PE                                                                  
   EATOM  =    53.5387 eV,    3.9350 Ry                                         
                                                                                
   TITEL  = PAW_PBE Al 04Jan2001                                                
   LULTRA =        F    use ultrasoft PP ?                                      
   IUNSCR =        1    unscreen: 0-lin 1-nonlin 2-no                           
   RPACOR =    1.500    partial core radius                                     
   POMASS =   26.981; ZVAL   =    3.000    mass and valenz                      
   RCORE  =    1.900    outmost cutoff radius                                   
   RWIGS  =    2.650; RWIGS  =    1.402    wigner-seitz radius (au A)           
   ENMAX  =  240.300; ENMIN  =  180.225 eV                                      
   ICORE  =        2    local potential                                         
   LCOR   =        T    correct aug charges                                     
   LPAW   =        T    paw PP                                                  
   EAUG   =  291.052                                                            
   DEXC   =    0.000                                                            
   RMAX   =    1.939    core radius for proj-oper                               
   RAUG   =    1.300    factor for augmentation sphere                          
   RDEP   =    1.966    radius for radial grids                                 
   RDEPT  =    1.856    core radius for aug-charge                              
                                                                                
   Atomic configuration                                                         
    6 entries                                                                   
     n  l   j            E        occ.                                          
     1  0  0.50     -1511.1048   2.0000                                         
     2  0  0.50      -108.1629   2.0000                                         
     2  1  1.50       -69.6402   6.0000                                         
     3  0  0.50        -7.7528   2.0000                                         
     3  1  1.50        -2.7121   1.0000                                         
     3  2  2.50        -2.7212   0.0000                                         
   Description                                                                  
     l       E           TYP  RCUT    TYP  RCUT                                 
     0     -7.7528455     23  1.900                                             
     0     -3.3096929     23  1.900                                             
     1     -2.7120682     23  1.900                                             
     1     13.6058260     23  1.900                                             
     2     -2.7211652      7  1.900                                             
  local pseudopotential read in
  partial core-charges read in
  partial kinetic energy density read in
  atomic valenz-charges read in
  non local Contribution for L=           0  read in
    real space projection operators read in
  non local Contribution for L=           0  read in
    real space projection operators read in
  non local Contribution for L=           1  read in
    real space projection operators read in
  non local Contribution for L=           1  read in
    real space projection operators read in
    PAW grid and wavefunctions read in
 
   number of l-projection  operators is LMAX  =           4
   number of lm-projection operators is LMMAX =           8
 

 ----------------------------------------------------------------------------- 
|                                                                             |
|  ADVICE TO THIS USER RUNNING 'VASP/VAMP'   (HEAR YOUR MASTER'S VOICE ...):  |
|                                                                             |
|      You have a (more or less) 'large supercell' and for larger cells       |
|      it might be more efficient to use real space projection opertators     |
|      So try LREAL= Auto  in the INCAR   file.                               |
|      Mind: At the moment your POTCAR file does not contain real space       |
|       projectors, and has to be modified,  BUT if you                       |
|      want to do an extremely  accurate calculation you might also keep the  |
|      reciprocal projection scheme          (i.e. LREAL=.FALSE.)             |
|                                                                             |
 ----------------------------------------------------------------------------- 

  PAW_PBE O 08Apr2002                   :
 energy of atom  1       EATOM= -432.3788
 kinetic energy error for atom=    0.0208 (will be added to EATOM!!)
  PAW_PBE Mg 13Apr2007                  :
 energy of atom  2       EATOM=  -23.0369
 kinetic energy error for atom=    0.0000 (will be added to EATOM!!)
  PAW_PBE Al 04Jan2001                  :
 energy of atom  3       EATOM=  -53.5387
 kinetic energy error for atom=    0.0002 (will be added to EATOM!!)
 
 
 POSCAR: Layer                                   
  positions in direct lattice
  velocities in cartesian coordinates
 exchange correlation table for  LEXCH =        8
   RHO(1)=    0.500       N(1)  =     2000
   RHO(2)=  100.500       N(2)  =     4000
 


--------------------------------------------------------------------------------------------------------


 ion  position               nearest neighbor table
   1  0.550  0.450  0.343-  14 2.13  15 2.13  14 2.13  14 2.13  15 2.14  15 2.14
   2  0.500  0.500  0.526-  16 2.13  17 2.13  16 2.14  16 2.14  17 2.14  17 2.14
   3  0.450  0.550  0.709-  18 2.13  19 2.13  19 2.14  19 2.14  18 2.14  18 2.14
   4  0.236  0.764  0.282-  14 2.13  14 2.13  14 2.13  10 2.15  10 2.15  10 2.15
   5  0.866  0.134  0.404-  11 2.13  15 2.13  15 2.14  15 2.14  11 2.14  11 2.14
   6  0.183  0.817  0.465-  11 2.13  16 2.13  11 2.14  11 2.14  16 2.14  16 2.14
   7  0.817  0.183  0.587-  12 2.13  17 2.13  12 2.14  12 2.14  17 2.14  17 2.14
   8  0.134  0.866  0.648-  12 2.13  18 2.13  18 2.14  18 2.14  12 2.14  12 2.14
   9  0.764  0.236  0.770-  19 2.13  19 2.13  19 2.13  13 2.15  13 2.15  13 2.15
  10  0.578  0.422  0.251-   4 2.15   4 2.15   4 2.15  21 2.98  21 2.98  21 2.99  14 3.06  14 3.06
                            14 3.06
  11  0.524  0.476  0.434-   6 2.13   5 2.13   5 2.14   5 2.14   6 2.14   6 2.14  16 3.04  16 3.04
                            15 3.04  15 3.04  15 3.05  16 3.05
  12  0.476  0.524  0.617-   7 2.13   8 2.13   8 2.14   8 2.14   7 2.14   7 2.14  17 3.04  17 3.04
                            18 3.04  18 3.04  18 3.05  17 3.05
  13  0.421  0.579  0.801-   9 2.15   9 2.15   9 2.15  24 2.98  24 2.98  24 2.99  19 3.06  19 3.06
                            19 3.06
  14  0.893  0.107  0.312-   1 2.13   4 2.13   4 2.13   4 2.13   1 2.13   1 2.13  15 3.04  15 3.04
                            15 3.05  10 3.06  10 3.06  10 3.06
  15  0.208  0.792  0.373-   5 2.13   1 2.13   5 2.14   5 2.14   1 2.14   1 2.14  11 3.04  11 3.04
                            14 3.04  14 3.04  14 3.05  11 3.05
  16  0.841  0.159  0.495-   2 2.13   6 2.13   2 2.14   2 2.14   6 2.14   6 2.14  17 3.04  17 3.04
                            11 3.04  11 3.04  11 3.05  17 3.05
  17  0.159  0.841  0.556-   7 2.13   2 2.13   7 2.14   7 2.14   2 2.14   2 2.14  12 3.04  12 3.04
                            16 3.04  16 3.04  12 3.05  16 3.05
  18  0.792  0.208  0.678-   8 2.13   3 2.13   8 2.14   8 2.14   3 2.14   3 2.14  12 3.04  12 3.04
                            19 3.04  19 3.04  19 3.05  12 3.05
  19  0.107  0.893  0.739-   9 2.13   3 2.13   9 2.13   9 2.13   3 2.14   3 2.14  18 3.04  18 3.04
                            18 3.05  13 3.06  13 3.06  13 3.06
  20  1.000  0.000  0.026-  25 2.84  23 2.84  23 2.87  23 2.87  25 2.87  25 2.87
  21  0.933  0.067  0.192-  22 2.83  22 2.84  22 2.84  10 2.98  10 2.98  10 2.99
  22  0.620  0.380  0.137-  21 2.83  21 2.84  21 2.84  23 2.85  23 2.87  23 2.87
  23  0.310  0.690  0.081-  20 2.84  22 2.85  20 2.87  20 2.87  22 2.87  22 2.87
  24  0.067  0.933  0.860-  26 2.83  26 2.84  26 2.84  13 2.98  13 2.98  13 2.99
  25  0.690  0.310  0.970-  20 2.84  26 2.85  20 2.87  20 2.87  26 2.87  26 2.87
  26  0.380  0.620  0.915-  24 2.83  24 2.84  24 2.84  25 2.85  25 2.87  25 2.87
 
  LATTYP: Found a base centered monoclinic cell.
 ALAT       =     5.1835214829
 B/A-ratio  =     0.5778353023
 C/A-ratio  =     8.1001855447
 COS(beta)  =    -0.1799514825
  
  Lattice vectors:
  
 A1 = (  -2.5925900058,   1.4952752266,  -0.0518951648)
 A2 = (   0.0013482762,   2.9928857368,  -0.0518951490)
 A3 = (   4.7735158528,  -8.2679694689, -40.8876899555)


Analysis of symmetry for initial positions (statically):
=====================================================================
 Subroutine PRICEL returns:
 Original cell was already a primitive cell.
 

 Routine SETGRP: Setting up the symmetry group for a 
 base centered monoclinic supercell.


 Subroutine GETGRP returns: Found  2 space group operations
 (whereof  2 operations were pure point group operations)
 out of a pool of  4 trial point group operations.


The static configuration has the point symmetry C_1h.


Analysis of symmetry for dynamics (positions and initial velocities):
=====================================================================
 Subroutine PRICEL returns:
 Original cell was already a primitive cell.
 

 Routine SETGRP: Setting up the symmetry group for a 
 base centered monoclinic supercell.


 Subroutine GETGRP returns: Found  2 space group operations
 (whereof  2 operations were pure point group operations)
 out of a pool of  4 trial point group operations.


The dynamic configuration has the point symmetry C_1h.


Analysis of constrained symmetry for selective dynamics:
=====================================================================
 Subroutine PRICEL returns:
 Original cell was already a primitive cell.
 

 Routine SETGRP: Setting up the symmetry group for a 
 base centered monoclinic supercell.


 Subroutine GETGRP returns: Found  2 space group operations
 (whereof  2 operations were pure point group operations)
 out of a pool of  4 trial point group operations.


The constrained configuration has the point symmetry C_1h.
 
 
 KPOINTS: K-Spacing Value to Generate K-Mesh: 0.02

Automatic generation of k-mesh.
Space group operators:
 irot       det(A)        alpha          n_x          n_y          n_z        tau_x        tau_y        tau_z
    1     1.000000     0.000000     1.000000     0.000000     0.000000     0.000000     0.000000     0.000000
    2    -1.000000   180.000000     0.866025     0.500000     0.000000     0.000000     0.000000     0.000000
 
 Subroutine IBZKPT returns following result:
 ===========================================
 
 Found     49 irreducible k-points:
 
 Following reciprocal coordinates:
            Coordinates               Weight
  0.000000  0.000000  0.000000      1.000000
  0.076923 -0.000000  0.000000      4.000000
  0.153846 -0.000000  0.000000      4.000000
  0.230769 -0.000000  0.000000      4.000000
  0.307692 -0.000000  0.000000      4.000000
  0.384615 -0.000000  0.000000      4.000000
  0.461538 -0.000000  0.000000      4.000000
  0.076923  0.076923  0.000000      2.000000
  0.153846  0.076923  0.000000      4.000000
  0.230769  0.076923  0.000000      4.000000
  0.307692  0.076923  0.000000      4.000000
  0.384615  0.076923 -0.000000      4.000000
  0.461538  0.076923 -0.000000      4.000000
 -0.461538  0.076923 -0.000000      4.000000
 -0.384615  0.076923 -0.000000      4.000000
 -0.307692  0.076923 -0.000000      4.000000
 -0.230769  0.076923 -0.000000      4.000000
 -0.153846  0.076923  0.000000      4.000000
 -0.076923  0.076923 -0.000000      2.000000
  0.153846  0.153846  0.000000      2.000000
  0.230769  0.153846  0.000000      4.000000
  0.307692  0.153846  0.000000      4.000000
  0.384615  0.153846  0.000000      4.000000
  0.461538  0.153846  0.000000      4.000000
 -0.461538  0.153846  0.000000      4.000000
 -0.384615  0.153846 -0.000000      4.000000
 -0.307692  0.153846  0.000000      4.000000
 -0.230769  0.153846  0.000000      4.000000
 -0.153846  0.153846 -0.000000      2.000000
  0.230769  0.230769  0.000000      2.000000
  0.307692  0.230769  0.000000      4.000000
  0.384615  0.230769  0.000000      4.000000
  0.461538  0.230769  0.000000      4.000000
 -0.461538  0.230769 -0.000000      4.000000
 -0.384615  0.230769  0.000000      4.000000
 -0.307692  0.230769 -0.000000      4.000000
 -0.230769  0.230769  0.000000      2.000000
  0.307692  0.307692  0.000000      2.000000
  0.384615  0.307692 -0.000000      4.000000
  0.461538  0.307692  0.000000      4.000000
 -0.461538  0.307692  0.000000      4.000000
 -0.384615  0.307692  0.000000      4.000000
 -0.307692  0.307692  0.000000      2.000000
  0.384615  0.384615  0.000000      2.000000
  0.461538  0.384615 -0.000000      4.000000
 -0.461538  0.384615  0.000000      4.000000
 -0.384615  0.384615 -0.000000      2.000000
  0.461538  0.461538  0.000000      2.000000
 -0.461538  0.461538  0.000000      2.000000
 
 Following cartesian coordinates:
            Coordinates               Weight
  0.000000  0.000000  0.000000      1.000000
  0.029666 -0.000018 -0.000296      4.000000
  0.059331 -0.000037 -0.000591      4.000000
  0.088997 -0.000055 -0.000887      4.000000
  0.118662 -0.000074 -0.001182      4.000000
  0.148328 -0.000092 -0.001478      4.000000
  0.177994 -0.000111 -0.001773      4.000000
  0.044482  0.025682  0.000000      2.000000
  0.074148  0.025663 -0.000296      4.000000
  0.103814  0.025645 -0.000591      4.000000
  0.133479  0.025626 -0.000887      4.000000
  0.163145  0.025608 -0.001182      4.000000
  0.192810  0.025589 -0.001478      4.000000
 -0.163177  0.025811  0.002069      4.000000
 -0.133511  0.025793  0.001773      4.000000
 -0.103846  0.025774  0.001478      4.000000
 -0.074180  0.025756  0.001182      4.000000
 -0.044514  0.025737  0.000887      4.000000
 -0.014849  0.025719  0.000591      2.000000
  0.088965  0.051364  0.000000      2.000000
  0.118630  0.051345 -0.000296      4.000000
  0.148296  0.051327 -0.000591      4.000000
  0.177962  0.051308 -0.000887      4.000000
  0.207627  0.051290 -0.001182      4.000000
 -0.148360  0.051512  0.002364      4.000000
 -0.118694  0.051493  0.002069      4.000000
 -0.089029  0.051475  0.001773      4.000000
 -0.059363  0.051456  0.001478      4.000000
 -0.029698  0.051438  0.001182      2.000000
  0.133447  0.077046  0.000000      2.000000
  0.163113  0.077027 -0.000296      4.000000
  0.192778  0.077009 -0.000591      4.000000
  0.222444  0.076990 -0.000887      4.000000
 -0.133543  0.077212  0.002660      4.000000
 -0.103878  0.077194  0.002364      4.000000
 -0.074212  0.077175  0.002069      4.000000
 -0.044546  0.077157  0.001773      2.000000
  0.177930  0.102728  0.000000      2.000000
  0.207595  0.102709 -0.000296      4.000000
  0.237261  0.102691 -0.000591      4.000000
 -0.118726  0.102913  0.002955      4.000000
 -0.089061  0.102894  0.002660      4.000000
 -0.059395  0.102876  0.002364      2.000000
  0.222412  0.128410  0.000000      2.000000
  0.252078  0.128391 -0.000296      4.000000
 -0.103910  0.128613  0.003251      4.000000
 -0.074244  0.128595  0.002955      2.000000
  0.266894  0.154092  0.000000      2.000000
 -0.089093  0.154313  0.003547      2.000000
 


--------------------------------------------------------------------------------------------------------




 Dimension of arrays:
   k-points           NKPTS =     49   k-points in BZ     NKDIM =     49   number of bands    NBANDS=     62
   number of dos      NEDOS =    301   number of ions     NIONS =     26
   non local maximal  LDIM  =      5   non local SUM 2l+1 LMDIM =     13
   total plane-waves  NPLWV = 184320
   max r-space proj   IRMAX =      1   max aug-charges    IRDMAX= 196644
   dimension x,y,z NGX =    24 NGY =   24 NGZ =  320
   dimension x,y,z NGXF=    48 NGYF=   48 NGZF=  640
   support grid    NGXF=    96 NGYF=   96 NGZF= 1280
   ions per type =               9  10   7
 NGX,Y,Z   is equivalent  to a cutoff of  13.33, 13.33, 12.94 a.u.
 NGXF,Y,Z  is equivalent  to a cutoff of  26.66, 26.66, 25.89 a.u.


 I would recommend the setting:
   dimension x,y,z NGX =    22 NGY =   22 NGZ =  306
 SYSTEM =  unknown system                          
 POSCAR =  Layer                                   

 Startparameter for this run:
   NWRITE =      2    write-flag & timer
   PREC   = accura    normal or accurate (medium, high low for compatibility)
   ISTART =      0    job   : 0-new  1-cont  2-samecut
   ICHARG =      2    charge: 1-file 2-atom 10-const
   ISPIN  =      1    spin polarized calculation?
   LNONCOLLINEAR =      F non collinear calculations
   LSORBIT =      F    spin-orbit coupling
   INIWAV =      1    electr: 0-lowe 1-rand  2-diag
   LASPH  =      F    aspherical Exc in radial PAW
   METAGGA=      F    non-selfconsistent MetaGGA calc.

 Electronic Relaxation 1
   ENCUT  =  520.0 eV  38.22 Ry    6.18 a.u.   5.57  5.57 76.43*2*pi/ulx,y,z
   ENINI  =  520.0     initial cutoff
   ENAUG  =  605.4 eV  augmentation charge cutoff
   NELM   =    100;   NELMIN=  6; NELMDL=  0     # of ELM steps 
   EDIFF  = 0.1E-04   stopping-criterion for ELM
   LREAL  =      F    real-space projection
   NLSPLINE    = F    spline interpolate recip. space projectors
   LCOMPAT=      F    compatible to vasp.4.4
   GGA_COMPAT  = T    GGA compatible to vasp.4.4-vasp.4.6
   LMAXPAW     = -100 max onsite density
   LMAXMIX     =    2 max onsite mixed and CHGCAR
   VOSKOWN=      0    Vosko Wilk Nusair interpolation
   ROPT   =    0.00000   0.00000   0.00000
 Ionic relaxation
   EDIFFG = -.2E-01   stopping-criterion for IOM
   NSW    =    500    number of steps for IOM
   NBLOCK =      1;   KBLOCK =    500    inner block; outer block 
   IBRION =      2    ionic relax: 0-MD 1-quasi-New 2-CG
   NFREE  =      1    steps in history (QN), initial steepest desc. (CG)
   ISIF   =      2    stress and relaxation
   IWAVPR =     11    prediction:  0-non 1-charg 2-wave 3-comb
   ISYM   =      2    0-nonsym 1-usesym 2-fastsym
   LCORR  =      T    Harris-Foulkes like correction to forces

   POTIM  = 0.5000    time-step for ionic-motion
   TEIN   =    0.0    initial temperature
   TEBEG  =    0.0;   TEEND  =   0.0 temperature during run
   SMASS  =  -3.00    Nose mass-parameter (am)
   estimated Nose-frequenzy (Omega)   =  0.10E-29 period in steps =****** mass=  -0.205E-27a.u.
   SCALEE = 1.0000    scale energy and forces
   NPACO  =    256;   APACO  = 16.0  distance and # of slots for P.C.
   PSTRESS=    0.0 pullay stress

  Mass of Ions in am
   POMASS =  16.00 24.30 26.98
  Ionic Valenz
   ZVAL   =   6.00  2.00  3.00
  Atomic Wigner-Seitz radii
   RWIGS  =  -1.00 -1.00 -1.00
  virtual crystal weights 
   VCA    =   1.00  1.00  1.00
   NELECT =      95.0000    total number of electrons
   NUPDOWN=      -1.0000    fix difference up-down

 DOS related values:
   EMIN   =  10.00;   EMAX   =-10.00  energy-range for DOS
   EFERMI =   0.00
   ISMEAR =     0;   SIGMA  =   0.05  broadening in eV -4-tet -1-fermi 0-gaus

 Electronic relaxation 2 (details)
   IALGO  =     38    algorithm
   LDIAG  =      T    sub-space diagonalisation (order eigenvalues)
   LSUBROT=      F    optimize rotation matrix (better conditioning)
   TURBO    =      0    0=normal 1=particle mesh
   IRESTART =      0    0=no restart 2=restart with 2 vectors
   NREBOOT  =      0    no. of reboots
   NMIN     =      0    reboot dimension
   EREF     =   0.00    reference energy to select bands
   IMIX   =      4    mixing-type and parameters
     AMIX     =   0.40;   BMIX     =  1.00
     AMIX_MAG =   1.60;   BMIX_MAG =  1.00
     AMIN     =   0.01
     WC   =   100.;   INIMIX=   1;  MIXPRE=   1;  MAXMIX= -45

 Intra band minimization:
   WEIMIN = 0.0010     energy-eigenvalue tresh-hold
   EBREAK =  0.40E-07  absolut break condition
   DEPER  =   0.30     relativ break condition  

   TIME   =   0.40     timestep for ELM

  volume/ion in A,a.u.               =      12.26        82.75
  Fermi-wavevector in a.u.,A,eV,Ry     =   1.093446  2.066314 16.267469  1.195625
  Thomas-Fermi vector in A             =   2.229732
 
 Write flags
   LWAVE  =      F    write WAVECAR
   LCHARG =      T    write CHGCAR
   LVTOT  =      F    write LOCPOT, total local potential
   LVHAR  =      F    write LOCPOT, Hartree potential only
   LELF   =      F    write electronic localiz. function (ELF)
   LORBIT =      0    0 simple, 1 ext, 2 COOP (PROOUT)


 Dipole corrections
   LMONO  =      F    monopole corrections only (constant potential shift)
   LDIPOL =      F    correct potential (dipole corrections)
   IDIPOL =      0    1-x, 2-y, 3-z, 4-all directions 
   EPSILON=  1.0000000 bulk dielectric constant

 Exchange correlation treatment:
   GGA     =    --    GGA type
   LEXCH   =     8    internal setting for exchange type
   VOSKOWN=      0    Vosko Wilk Nusair interpolation
   LHFCALC =     F    Hartree Fock is set to
   LHFONE  =     F    Hartree Fock one center treatment
   AEXX    =    0.0000 exact exchange contribution

 Linear response parameters
   LEPSILON=     F    determine dielectric tensor
   LRPA    =     F    only Hartree local field effects (RPA)
   LNABLA  =     F    use nabla operator in PAW spheres
   LVEL    =     F    velocity operator in full k-point grid
   LINTERFAST=   F  fast interpolation
   KINTER  =     0    interpolate to denser k-point grid
   CSHIFT  =0.1000    complex shift for real part using Kramers Kronig
   OMEGAMAX=  -1.0    maximum frequency
   DEG_THRESHOLD= 0.2000000E-02 threshold for treating states as degnerate
   RTIME   =    0.100 relaxation time in fs

 Orbital magnetization related:
   ORBITALMAG=     F  switch on orbital magnetization
   LCHIMAG   =     F  perturbation theory with respect to B field
   DQ        =  0.001000  dq finite difference perturbation B field



--------------------------------------------------------------------------------------------------------


 conjugate gradient relaxation of ions
   using selective dynamics as specified on POSCAR
 charge density and potential will be updated during run
 non-spin polarized calculation
 Variant of blocked Davidson
 Davidson routine will perform the subspace rotation
 perform sub-space diagonalisation
    after iterative eigenvector-optimisation
 modified Broyden-mixing scheme, WC =      100.0
 initial mixing is a Kerker type mixing with AMIX =  0.4000 and BMIX =      1.0000
 Hartree-type preconditioning will be used
 using additional bands           14
 reciprocal scheme for non local part
 use partial core corrections
 calculate Harris-corrections to forces 
   (improved forces if not selfconsistent)
 use gradient corrections 
 use of overlap-Matrix (Vanderbilt PP)
 Gauss-broadening in eV      SIGMA  =   0.05


--------------------------------------------------------------------------------------------------------


  energy-cutoff  :      520.00
  volume of cell :      318.83
      direct lattice vectors                 reciprocal lattice vectors
     2.592590006 -1.495275227  0.051895165     0.385652952 -0.000240353 -0.003842044
     0.001348276  2.992885737 -0.051895149     0.192618324  0.334105532  0.003842044
     0.408967606 -0.708352458 41.095270583    -0.000243764  0.000422212  0.024343404

  length of vectors
     2.993336608  2.993335925 41.103409615     0.385672164  0.385672253  0.024348285


 
 k-points in units of 2pi/SCALE and weight: K-Spacing Value to Generate K-Mesh: 0.02
   0.00000000  0.00000000  0.00000000       0.006
   0.02966561 -0.00001849 -0.00029554       0.024
   0.05933122 -0.00003698 -0.00059108       0.024
   0.08899684 -0.00005547 -0.00088663       0.024
   0.11866245 -0.00007395 -0.00118217       0.024
   0.14832806 -0.00009244 -0.00147771       0.024
   0.17799367 -0.00011093 -0.00177325       0.024
   0.04448241  0.02568194  0.00000000       0.012
   0.07414802  0.02566345 -0.00029554       0.024
   0.10381363  0.02564496 -0.00059108       0.024
   0.13347924  0.02562647 -0.00088663       0.024
   0.16314485  0.02560798 -0.00118217       0.024
   0.19281046  0.02558949 -0.00147771       0.024
  -0.16317688  0.02581136  0.00206879       0.024
  -0.13351126  0.02579287  0.00177325       0.024
  -0.10384565  0.02577438  0.00147771       0.024
  -0.07418004  0.02575589  0.00118217       0.024
  -0.04451443  0.02573740  0.00088663       0.024
  -0.01484882  0.02571891  0.00059108       0.012
   0.08896481  0.05136387  0.00000000       0.012
   0.11863042  0.05134538 -0.00029554       0.024
   0.14829604  0.05132690 -0.00059108       0.024
   0.17796165  0.05130841 -0.00088663       0.024
   0.20762726  0.05128992 -0.00118217       0.024
  -0.14836008  0.05151178  0.00236433       0.024
  -0.11869447  0.05149329  0.00206879       0.024
  -0.08902886  0.05147481  0.00177325       0.024
  -0.05936325  0.05145632  0.00147771       0.024
  -0.02969764  0.05143783  0.00118217       0.012
   0.13344722  0.07704581  0.00000000       0.012
   0.16311283  0.07702732 -0.00029554       0.024
   0.19277844  0.07700883 -0.00059108       0.024
   0.22244405  0.07699034 -0.00088663       0.024
  -0.13354329  0.07721221  0.00265988       0.024
  -0.10387768  0.07719372  0.00236433       0.024
  -0.07421206  0.07717523  0.00206879       0.024
  -0.04454645  0.07715674  0.00177325       0.012
   0.17792962  0.10272775  0.00000000       0.012
   0.20759524  0.10270926 -0.00029554       0.024
   0.23726085  0.10269077 -0.00059108       0.024
  -0.11872649  0.10291263  0.00295542       0.024
  -0.08906088  0.10289415  0.00265988       0.024
  -0.05939527  0.10287566  0.00236433       0.012
   0.22241203  0.12840968  0.00000000       0.012
   0.25207764  0.12839120 -0.00029554       0.024
  -0.10390970  0.12861306  0.00325096       0.024
  -0.07424409  0.12859457  0.00295542       0.012
   0.26689444  0.15409162  0.00000000       0.012
  -0.08909291  0.15431349  0.00354650       0.012
 
 k-points in reciprocal lattice and weights: K-Spacing Value to Generate K-Mesh: 0.02
   0.00000000  0.00000000  0.00000000       0.006
   0.07692308 -0.00000000  0.00000000       0.024
   0.15384615 -0.00000000  0.00000000       0.024
   0.23076923 -0.00000000  0.00000000       0.024
   0.30769231 -0.00000000  0.00000000       0.024
   0.38461538 -0.00000000  0.00000000       0.024
   0.46153846 -0.00000000  0.00000000       0.024
   0.07692308  0.07692308  0.00000000       0.012
   0.15384615  0.07692308  0.00000000       0.024
   0.23076923  0.07692308  0.00000000       0.024
   0.30769231  0.07692308  0.00000000       0.024
   0.38461538  0.07692308 -0.00000000       0.024
   0.46153846  0.07692308 -0.00000000       0.024
  -0.46153846  0.07692308 -0.00000000       0.024
  -0.38461538  0.07692308 -0.00000000       0.024
  -0.30769231  0.07692308 -0.00000000       0.024
  -0.23076923  0.07692308 -0.00000000       0.024
  -0.15384615  0.07692308  0.00000000       0.024
  -0.07692308  0.07692308 -0.00000000       0.012
   0.15384615  0.15384615  0.00000000       0.012
   0.23076923  0.15384615  0.00000000       0.024
   0.30769231  0.15384615  0.00000000       0.024
   0.38461538  0.15384615  0.00000000       0.024
   0.46153846  0.15384615  0.00000000       0.024
  -0.46153846  0.15384615  0.00000000       0.024
  -0.38461538  0.15384615 -0.00000000       0.024
  -0.30769231  0.15384615  0.00000000       0.024
  -0.23076923  0.15384615  0.00000000       0.024
  -0.15384615  0.15384615 -0.00000000       0.012
   0.23076923  0.23076923  0.00000000       0.012
   0.30769231  0.23076923  0.00000000       0.024
   0.38461538  0.23076923  0.00000000       0.024
   0.46153846  0.23076923  0.00000000       0.024
  -0.46153846  0.23076923 -0.00000000       0.024
  -0.38461538  0.23076923  0.00000000       0.024
  -0.30769231  0.23076923 -0.00000000       0.024
  -0.23076923  0.23076923  0.00000000       0.012
   0.30769231  0.30769231  0.00000000       0.012
   0.38461538  0.30769231 -0.00000000       0.024
   0.46153846  0.30769231  0.00000000       0.024
  -0.46153846  0.30769231  0.00000000       0.024
  -0.38461538  0.30769231  0.00000000       0.024
  -0.30769231  0.30769231  0.00000000       0.012
   0.38461538  0.38461538  0.00000000       0.012
   0.46153846  0.38461538 -0.00000000       0.024
  -0.46153846  0.38461538  0.00000000       0.024
  -0.38461538  0.38461538 -0.00000000       0.012
   0.46153846  0.46153846  0.00000000       0.012
  -0.46153846  0.46153846  0.00000000       0.012
 
 position of ions in fractional coordinates (direct lattice) 
   0.55034591  0.44965409  0.34290523
   0.50008742  0.49991258  0.52578858
   0.44982908  0.55017092  0.70863883
   0.23555062  0.76444938  0.28198677
   0.86589780  0.13410220  0.40388697
   0.18286767  0.81713233  0.46483905
   0.81737237  0.18262763  0.58674423
   0.13430581  0.86569419  0.64769287
   0.76449319  0.23550681  0.76958508
   0.57849561  0.42150439  0.25086545
   0.52425225  0.47574775  0.43436892
   0.47598072  0.52401928  0.61720893
   0.42148274  0.57851726  0.80068865
   0.89289580  0.10710420  0.31245028
   0.20790095  0.79209905  0.37342177
   0.84145092  0.15854908  0.49532058
   0.15873042  0.84126958  0.55627059
   0.79231180  0.20768820  0.67814024
   0.10724397  0.89275603  0.73913559
   0.99975616  0.00024384  0.02578834
   0.93291896  0.06708105  0.19162273
   0.61984140  0.38015860  0.13680540
   0.30978436  0.69021564  0.08119280
   0.06674482  0.93325518  0.85999142
   0.68977111  0.31022889  0.97038575
   0.37968814  0.62031186  0.91478995
 
 position of ions in cartesian coordinates  (Angst):
   1.56766470  0.27994694 14.09700853
   1.51222617  0.37596926 21.60743310
   1.45677449  0.47201436 29.11649740
   0.72704034  1.73595060 11.56087539
   2.41027549 -1.17949731 16.63582110
   0.66530673  1.84287631 19.06977139
   2.35931705 -1.09123474 24.14535319
   0.61425249  1.93130482 26.57915825
   2.29707030 -0.98342023 31.65375896
   1.60296610  0.21880314 10.31753068
   1.53745541  0.33227094 17.85302536
   1.48714784  0.41940619 25.36187486
   1.42096766  0.53403359 32.89636725
   2.44283919 -1.23589928 12.88100755
   0.69278729  1.79527859 15.31555148
   2.38432110 -1.13454300 20.39077273
   0.64015381  1.88644243 22.82467010
   2.33175706 -1.04349946 27.89869563
   0.58152584  1.98798902 30.33421279
   2.60250475 -1.51244806  1.11164857
   2.49713429 -1.32994113  7.91972086
   1.66345615  0.11403134  5.63449311
   0.83727966  1.54501056  3.31689771
   0.52600886  2.08414723 35.29661240
   2.18556829 -0.79029315 39.89796141
   1.35933148  0.64079055 37.58105321
 


--------------------------------------------------------------------------------------------------------


 k-point  1 :   0.0000 0.0000 0.0000  plane waves:    8713
 k-point  2 :   0.0769-0.0000 0.0000  plane waves:    8697
 k-point  3 :   0.1538-0.0000 0.0000  plane waves:    8670
 k-point  4 :   0.2308-0.0000 0.0000  plane waves:    8633
 k-point  5 :   0.3077-0.0000 0.0000  plane waves:    8587
 k-point  6 :   0.3846-0.0000 0.0000  plane waves:    8532
 k-point  7 :   0.4615-0.0000 0.0000  plane waves:    8543
 k-point  8 :   0.0769 0.0769 0.0000  plane waves:    8679
 k-point  9 :   0.1538 0.0769 0.0000  plane waves:    8657
 k-point 10 :   0.2308 0.0769 0.0000  plane waves:    8603
 k-point 11 :   0.3077 0.0769 0.0000  plane waves:    8577
 k-point 12 :   0.3846 0.0769-0.0000  plane waves:    8540
 k-point 13 :   0.4615 0.0769-0.0000  plane waves:    8515
 k-point 14 :  -0.4615 0.0769-0.0000  plane waves:    8537
 k-point 15 :  -0.3846 0.0769-0.0000  plane waves:    8578
 k-point 16 :  -0.3077 0.0769-0.0000  plane waves:    8600
 k-point 17 :  -0.2308 0.0769-0.0000  plane waves:    8653
 k-point 18 :  -0.1538 0.0769 0.0000  plane waves:    8679
 k-point 19 :  -0.0769 0.0769-0.0000  plane waves:    8706
 k-point 20 :   0.1538 0.1538 0.0000  plane waves:    8619
 k-point 21 :   0.2308 0.1538 0.0000  plane waves:    8580
 k-point 22 :   0.3077 0.1538 0.0000  plane waves:    8572
 k-point 23 :   0.3846 0.1538 0.0000  plane waves:    8524
 k-point 24 :   0.4615 0.1538 0.0000  plane waves:    8533
 k-point 25 :  -0.4615 0.1538 0.0000  plane waves:    8571
 k-point 26 :  -0.3846 0.1538-0.0000  plane waves:    8583
 k-point 27 :  -0.3077 0.1538 0.0000  plane waves:    8608
 k-point 28 :  -0.2308 0.1538 0.0000  plane waves:    8652
 k-point 29 :  -0.1538 0.1538-0.0000  plane waves:    8668
 k-point 30 :   0.2308 0.2308 0.0000  plane waves:    8578
 k-point 31 :   0.3077 0.2308 0.0000  plane waves:    8536
 k-point 32 :   0.3846 0.2308 0.0000  plane waves:    8557
 k-point 33 :   0.4615 0.2308 0.0000  plane waves:    8542
 k-point 34 :  -0.4615 0.2308-0.0000  plane waves:    8579
 k-point 35 :  -0.3846 0.2308 0.0000  plane waves:    8582
 k-point 36 :  -0.3077 0.2308-0.0000  plane waves:    8604
 k-point 37 :  -0.2308 0.2308 0.0000  plane waves:    8638
 k-point 38 :   0.3077 0.3077 0.0000  plane waves:    8570
 k-point 39 :   0.3846 0.3077-0.0000  plane waves:    8580
 k-point 40 :   0.4615 0.3077 0.0000  plane waves:    8544
 k-point 41 :  -0.4615 0.3077 0.0000  plane waves:    8560
 k-point 42 :  -0.3846 0.3077 0.0000  plane waves:    8576
 k-point 43 :  -0.3077 0.3077 0.0000  plane waves:    8584
 k-point 44 :   0.3846 0.3846 0.0000  plane waves:    8560
 k-point 45 :   0.4615 0.3846-0.0000  plane waves:    8537
 k-point 46 :  -0.4615 0.3846 0.0000  plane waves:    8545
 k-point 47 :  -0.3846 0.3846-0.0000  plane waves:    8541
 k-point 48 :   0.4615 0.4615 0.0000  plane waves:    8512
 k-point 49 :  -0.4615 0.4615 0.0000  plane waves:    8545

 maximum and minimum number of plane-waves per node :      2204     2095

 maximum number of plane-waves:      8713
 maximum index in each direction: 
   IXMAX=    6   IYMAX=    5   IZMAX=   76
   IXMIN=   -6   IYMIN=   -6   IZMIN=  -76

 WARNING: aliasing errors must be expected set NGX to  26 to avoid them
 NGY is ok and might be reduce to  24
 NGZ is ok and might be reduce to 306
 aliasing errors are usually negligible using standard VASP settings
 and one can safely disregard these warnings

 parallel 3D FFT for wavefunctions:
    minimum data exchange during FFTs selected (reduces bandwidth)
 parallel 3D FFT for charge:
    minimum data exchange during FFTs selected (reduces bandwidth)


 total amount of memory used by VASP on root node   196071. kBytes
========================================================================

   base      :      30000. kBytes
   nonl-proj :      34140. kBytes
   fftplans  :      55171. kBytes
   grid      :      22118. kBytes
   one-center:         56. kBytes
   wavefun   :      54586. kBytes
 
     INWAV:  cpu time    0.00: real time    0.00
 Broyden mixing: mesh for mixing (old mesh)
   NGX = 11   NGY = 11   NGZ =153
  (NGX  = 48   NGY  = 48   NGZ  =640)
  gives a total of  18513 points

 initial charge density was supplied:
 charge density of overlapping atoms calculated
 number of electron      95.0000000 magnetization 
 keeping initial charge density in first step


--------------------------------------------------------------------------------------------------------


 Maximum index for augmentation-charges        23967 (set IRDMAX)


--------------------------------------------------------------------------------------------------------


 First call to EWALD:  gamma=   0.259
 Maximum number of real-space cells 6x 6x 1
 Maximum number of reciprocal cells 1x 1x14

 FEWALD executed in parallel
    FEWALD:  cpu time    0.00: real time    0.00


----------------------------------------- Iteration    1(   1)  ---------------------------------------


    POTLOK:  cpu time    0.10: real time    0.10
    SETDIJ:  cpu time    0.11: real time    0.11
     EDDAV:  cpu time    9.40: real time    9.43
       DOS:  cpu time    0.00: real time    0.00
    --------------------------------------------
      LOOP:  cpu time    9.62: real time    9.65

 eigenvalue-minimisations  :  6092
 total energy-change (2. order) : 0.4620395E+03  (-0.4170904E+04)
 number of electron      95.0000000 magnetization 
 augmentation part       95.0000000 magnetization 

 Free energy of the ion-electron system (eV)
  ---------------------------------------------------
  alpha Z        PSCENC =       126.82159318
  Ewald energy   TEWEN  =     11503.80620781
  -Hartree energ DENC   =    -16290.94630297
  -exchange      EXHF   =         0.00000000
  -V(xc)+E(xc)   XCENC  =      -418.43416430
  PAW double counting   =      4235.41334458    -3509.29226066
  entropy T*S    EENTRO =        -0.00708535
  eigenvalues    EBANDS =       318.31846766
  atomic energy  EATOM  =      4496.35971583
  ---------------------------------------------------
  free energy    TOTEN  =       462.03951578 eV

  energy without entropy =      462.04660113  energy(sigma->0) =      462.04305845


--------------------------------------------------------------------------------------------------------




----------------------------------------- Iteration    1(   2)  ---------------------------------------


     EDDAV:  cpu time   11.39: real time   11.41
       DOS:  cpu time    0.00: real time    0.00
    --------------------------------------------
      LOOP:  cpu time   11.39: real time   11.41

 eigenvalue-minimisations  :  7874
 total energy-change (2. order) :-0.5586285E+03  (-0.5306514E+03)
 number of electron      95.0000000 magnetization 
 augmentation part       95.0000000 magnetization 

 Free energy of the ion-electron system (eV)
  ---------------------------------------------------
  alpha Z        PSCENC =       126.82159318
  Ewald energy   TEWEN  =     11503.80620781
  -Hartree energ DENC   =    -16290.94630297
  -exchange      EXHF   =         0.00000000
  -V(xc)+E(xc)   XCENC  =      -418.43416430
  PAW double counting   =      4235.41334458    -3509.29226066
  entropy T*S    EENTRO =        -0.00366698
  eigenvalues    EBANDS =      -240.31347289
  atomic energy  EATOM  =      4496.35971583
  ---------------------------------------------------
  free energy    TOTEN  =       -96.58900640 eV

  energy without entropy =      -96.58533942  energy(sigma->0) =      -96.58717291


--------------------------------------------------------------------------------------------------------




----------------------------------------- Iteration    1(   3)  ---------------------------------------


     EDDAV:  cpu time   10.48: real time   10.50
       DOS:  cpu time    0.00: real time    0.00
    --------------------------------------------
      LOOP:  cpu time   10.49: real time   10.50

 eigenvalue-minimisations  :  7112
 total energy-change (2. order) :-0.5135529E+02  (-0.5107600E+02)
 number of electron      95.0000000 magnetization 
 augmentation part       95.0000000 magnetization 

 Free energy of the ion-electron system (eV)
  ---------------------------------------------------
  alpha Z        PSCENC =       126.82159318
  Ewald energy   TEWEN  =     11503.80620781
  -Hartree energ DENC   =    -16290.94630297
  -exchange      EXHF   =         0.00000000
  -V(xc)+E(xc)   XCENC  =      -418.43416430
  PAW double counting   =      4235.41334458    -3509.29226066
  entropy T*S    EENTRO =        -0.00289337
  eigenvalues    EBANDS =      -291.66953982
  atomic energy  EATOM  =      4496.35971583
  ---------------------------------------------------
  free energy    TOTEN  =      -147.94429971 eV

  energy without entropy =     -147.94140635  energy(sigma->0) =     -147.94285303


--------------------------------------------------------------------------------------------------------




----------------------------------------- Iteration    1(   4)  ---------------------------------------


     EDDAV:  cpu time   10.42: real time   10.44
       DOS:  cpu time    0.00: real time    0.00
    --------------------------------------------
      LOOP:  cpu time   10.42: real time   10.44

 eigenvalue-minimisations  :  7106
 total energy-change (2. order) :-0.6443351E+00  (-0.6433661E+00)
 number of electron      95.0000000 magnetization 
 augmentation part       95.0000000 magnetization 

 Free energy of the ion-electron system (eV)
  ---------------------------------------------------
  alpha Z        PSCENC =       126.82159318
  Ewald energy   TEWEN  =     11503.80620781
  -Hartree energ DENC   =    -16290.94630297
  -exchange      EXHF   =         0.00000000
  -V(xc)+E(xc)   XCENC  =      -418.43416430
  PAW double counting   =      4235.41334458    -3509.29226066
  entropy T*S    EENTRO =        -0.00293783
  eigenvalues    EBANDS =      -292.31383050
  atomic energy  EATOM  =      4496.35971583
  ---------------------------------------------------
  free energy    TOTEN  =      -148.58863486 eV

  energy without entropy =     -148.58569703  energy(sigma->0) =     -148.58716594


--------------------------------------------------------------------------------------------------------




----------------------------------------- Iteration    1(   5)  ---------------------------------------


     EDDAV:  cpu time   10.43: real time   10.45
       DOS:  cpu time    0.00: real time    0.00
    CHARGE:  cpu time    0.69: real time    0.69
    MIXING:  cpu time    0.00: real time    0.00
    --------------------------------------------
      LOOP:  cpu time   11.13: real time   11.15

 eigenvalue-minimisations  :  7136
 total energy-change (2. order) :-0.9683911E-02  (-0.9679315E-02)
 number of electron      95.0000001 magnetization 
 augmentation part        6.9426261 magnetization 

 Broyden mixing:
  rms(total) = 0.21920E+01    rms(broyden)= 0.21915E+01
  rms(prec ) = 0.22498E+01
  weight for this iteration     100.00

 Free energy of the ion-electron system (eV)
  ---------------------------------------------------
  alpha Z        PSCENC =       126.82159318
  Ewald energy   TEWEN  =     11503.80620781
  -Hartree energ DENC   =    -16290.94630297
  -exchange      EXHF   =         0.00000000
  -V(xc)+E(xc)   XCENC  =      -418.43416430
  PAW double counting   =      4235.41334458    -3509.29226066
  entropy T*S    EENTRO =        -0.00293307
  eigenvalues    EBANDS =      -292.32351917
  atomic energy  EATOM  =      4496.35971583
  ---------------------------------------------------
  free energy    TOTEN  =      -148.59831877 eV

  energy without entropy =     -148.59538570  energy(sigma->0) =     -148.59685223


--------------------------------------------------------------------------------------------------------




----------------------------------------- Iteration    1(   6)  ---------------------------------------


    POTLOK:  cpu time    0.10: real time    0.10
    SETDIJ:  cpu time    0.11: real time    0.11
     EDDAV:  cpu time   10.24: real time   10.25
       DOS:  cpu time    0.00: real time    0.00
    CHARGE:  cpu time    0.70: real time    0.70
    MIXING:  cpu time    0.00: real time    0.00
    --------------------------------------------
      LOOP:  cpu time   11.15: real time   11.17

 eigenvalue-minimisations  :  6892
 total energy-change (2. order) : 0.1432791E+02  (-0.8236508E+01)
 number of electron      95.0000001 magnetization 
 augmentation part        5.6175909 magnetization 

 Broyden mixing:
  rms(total) = 0.74510E+00    rms(broyden)= 0.74417E+00
  rms(prec ) = 0.75196E+00
  weight for this iteration     100.00

 eigenvalues of (default mixing * dielectric matrix)
  average eigenvalue GAMMA=   0.8424
  0.8424

 Free energy of the ion-electron system (eV)
  ---------------------------------------------------
  alpha Z        PSCENC =       126.82159318
  Ewald energy   TEWEN  =     11503.80620781
  -Hartree energ DENC   =    -16461.73830262
  -exchange      EXHF   =         0.00000000
  -V(xc)+E(xc)   XCENC  =      -406.26237063
  PAW double counting   =      5041.66364856    -4318.69854336
  entropy T*S    EENTRO =        -0.00365023
  eigenvalues    EBANDS =      -116.21871118
  atomic energy  EATOM  =      4496.35971583
  ---------------------------------------------------
  free energy    TOTEN  =      -134.27041263 eV

  energy without entropy =     -134.26676240  energy(sigma->0) =     -134.26858752


--------------------------------------------------------------------------------------------------------




----------------------------------------- Iteration    1(   7)  ---------------------------------------


    POTLOK:  cpu time    0.10: real time    0.10
    SETDIJ:  cpu time    0.11: real time    0.11
     EDDAV:  cpu time    9.93: real time    9.95
       DOS:  cpu time    0.00: real time    0.00
    CHARGE:  cpu time    0.70: real time    0.70
    MIXING:  cpu time    0.00: real time    0.00
    --------------------------------------------
      LOOP:  cpu time   10.84: real time   10.86

 eigenvalue-minimisations  :  6632
 total energy-change (2. order) : 0.1242868E+00  (-0.1449662E+00)
 number of electron      95.0000001 magnetization 
 augmentation part        5.6582134 magnetization 

 Broyden mixing:
  rms(total) = 0.45460E+00    rms(broyden)= 0.45459E+00
  rms(prec ) = 0.46006E+00
  weight for this iteration     100.00

 eigenvalues of (default mixing * dielectric matrix)
  average eigenvalue GAMMA=   1.6353
  0.9744  2.2963

 Free energy of the ion-electron system (eV)
  ---------------------------------------------------
  alpha Z        PSCENC =       126.82159318
  Ewald energy   TEWEN  =     11503.80620781
  -Hartree energ DENC   =    -16459.43915145
  -exchange      EXHF   =         0.00000000
  -V(xc)+E(xc)   XCENC  =      -405.87469014
  PAW double counting   =      5337.92150042    -4614.55236601
  entropy T*S    EENTRO =        -0.00368673
  eigenvalues    EBANDS =      -119.18524878
  atomic energy  EATOM  =      4496.35971583
  ---------------------------------------------------
  free energy    TOTEN  =      -134.14612586 eV

  energy without entropy =     -134.14243913  energy(sigma->0) =     -134.14428250


--------------------------------------------------------------------------------------------------------




----------------------------------------- Iteration    1(   8)  ---------------------------------------


    POTLOK:  cpu time    0.10: real time    0.10
    SETDIJ:  cpu time    0.11: real time    0.11
     EDDAV:  cpu time   10.48: real time   10.50
       DOS:  cpu time    0.00: real time    0.00
    CHARGE:  cpu time    0.71: real time    0.71
    MIXING:  cpu time    0.00: real time    0.00
    --------------------------------------------
      LOOP:  cpu time   11.41: real time   11.43

 eigenvalue-minimisations  :  7166
 total energy-change (2. order) : 0.9920853E-01  (-0.4242447E-01)
 number of electron      95.0000001 magnetization 
 augmentation part        5.7034787 magnetization 

 Broyden mixing:
  rms(total) = 0.77026E-01    rms(broyden)= 0.76983E-01
  rms(prec ) = 0.82683E-01
  weight for this iteration     100.00

 eigenvalues of (default mixing * dielectric matrix)
  average eigenvalue GAMMA=   1.4040
  2.4346  0.8887  0.8887

 Free energy of the ion-electron system (eV)
  ---------------------------------------------------
  alpha Z        PSCENC =       126.82159318
  Ewald energy   TEWEN  =     11503.80620781
  -Hartree energ DENC   =    -16464.29901271
  -exchange      EXHF   =         0.00000000
  -V(xc)+E(xc)   XCENC  =      -404.34655893
  PAW double counting   =      5855.06871947    -5131.41784053
  entropy T*S    EENTRO =        -0.00471769
  eigenvalues    EBANDS =      -116.03502376
  atomic energy  EATOM  =      4496.35971583
  ---------------------------------------------------
  free energy    TOTEN  =      -134.04691733 eV

  energy without entropy =     -134.04219964  energy(sigma->0) =     -134.04455849


--------------------------------------------------------------------------------------------------------




----------------------------------------- Iteration    1(   9)  ---------------------------------------


    POTLOK:  cpu time    0.10: real time    0.10
    SETDIJ:  cpu time    0.11: real time    0.11
     EDDAV:  cpu time   10.25: real time   10.26
       DOS:  cpu time    0.00: real time    0.00
    CHARGE:  cpu time    0.69: real time    0.70
    MIXING:  cpu time    0.00: real time    0.00
    --------------------------------------------
      LOOP:  cpu time   11.16: real time   11.17

 eigenvalue-minimisations  :  6924
 total energy-change (2. order) : 0.1090533E-01  (-0.6622643E-02)
 number of electron      95.0000001 magnetization 
 augmentation part        5.6833718 magnetization 

 Broyden mixing:
  rms(total) = 0.45668E-01    rms(broyden)= 0.45666E-01
  rms(prec ) = 0.47551E-01
  weight for this iteration     100.00

 eigenvalues of (default mixing * dielectric matrix)
  average eigenvalue GAMMA=   1.5640
  0.9538  0.9538  2.4636  1.8850

 Free energy of the ion-electron system (eV)
  ---------------------------------------------------
  alpha Z        PSCENC =       126.82159318
  Ewald energy   TEWEN  =     11503.80620781
  -Hartree energ DENC   =    -16467.86016012
  -exchange      EXHF   =         0.00000000
  -V(xc)+E(xc)   XCENC  =      -403.98688779
  PAW double counting   =      5872.41600624    -5148.81568951
  entropy T*S    EENTRO =        -0.00397153
  eigenvalues    EBANDS =      -112.77282612
  atomic energy  EATOM  =      4496.35971583
  ---------------------------------------------------
  free energy    TOTEN  =      -134.03601200 eV

  energy without entropy =     -134.03204048  energy(sigma->0) =     -134.03402624


--------------------------------------------------------------------------------------------------------




----------------------------------------- Iteration    1(  10)  ---------------------------------------


    POTLOK:  cpu time    0.10: real time    0.10
    SETDIJ:  cpu time    0.11: real time    0.11
     EDDAV:  cpu time   10.25: real time   10.27
       DOS:  cpu time    0.00: real time    0.00
    CHARGE:  cpu time    0.69: real time    0.69
    MIXING:  cpu time    0.00: real time    0.00
    --------------------------------------------
      LOOP:  cpu time   11.15: real time   11.17

 eigenvalue-minimisations  :  6956
 total energy-change (2. order) : 0.1890948E-03  (-0.3981096E-02)
 number of electron      95.0000001 magnetization 
 augmentation part        5.6676549 magnetization 

 Broyden mixing:
  rms(total) = 0.24721E-01    rms(broyden)= 0.24702E-01
  rms(prec ) = 0.25815E-01
  weight for this iteration     100.00

 eigenvalues of (default mixing * dielectric matrix)
  average eigenvalue GAMMA=   1.3359
  2.5182  1.9459  0.9268  0.9268  0.3620

 Free energy of the ion-electron system (eV)
  ---------------------------------------------------
  alpha Z        PSCENC =       126.82159318
  Ewald energy   TEWEN  =     11503.80620781
  -Hartree energ DENC   =    -16469.07285098
  -exchange      EXHF   =         0.00000000
  -V(xc)+E(xc)   XCENC  =      -403.82914570
  PAW double counting   =      5856.14763460    -5132.57412911
  entropy T*S    EENTRO =        -0.00423179
  eigenvalues    EBANDS =      -111.69061675
  atomic energy  EATOM  =      4496.35971583
  ---------------------------------------------------
  free energy    TOTEN  =      -134.03582291 eV

  energy without entropy =     -134.03159111  energy(sigma->0) =     -134.03370701


--------------------------------------------------------------------------------------------------------




----------------------------------------- Iteration    1(  11)  ---------------------------------------


    POTLOK:  cpu time    0.10: real time    0.10
    SETDIJ:  cpu time    0.12: real time    0.12
     EDDAV:  cpu time   10.36: real time   10.37
       DOS:  cpu time    0.00: real time    0.00
    CHARGE:  cpu time    0.69: real time    0.69
    MIXING:  cpu time    0.00: real time    0.00
    --------------------------------------------
      LOOP:  cpu time   11.27: real time   11.29

 eigenvalue-minimisations  :  7008
 total energy-change (2. order) : 0.4880266E-04  (-0.3193788E-03)
 number of electron      95.0000001 magnetization 
 augmentation part        5.6704584 magnetization 

 Broyden mixing:
  rms(total) = 0.16602E-01    rms(broyden)= 0.16602E-01
  rms(prec ) = 0.17791E-01
  weight for this iteration     100.00

 eigenvalues of (default mixing * dielectric matrix)
  average eigenvalue GAMMA=   1.4414
  2.7581  2.2661  1.0145  0.9610  0.9610  0.6874

 Free energy of the ion-electron system (eV)
  ---------------------------------------------------
  alpha Z        PSCENC =       126.82159318
  Ewald energy   TEWEN  =     11503.80620781
  -Hartree energ DENC   =    -16468.69787611
  -exchange      EXHF   =         0.00000000
  -V(xc)+E(xc)   XCENC  =      -403.80149615
  PAW double counting   =      5839.21397580    -5115.63998093
  entropy T*S    EENTRO =        -0.00416042
  eigenvalues    EBANDS =      -112.09375311
  atomic energy  EATOM  =      4496.35971583
  ---------------------------------------------------
  free energy    TOTEN  =      -134.03577411 eV

  energy without entropy =     -134.03161368  energy(sigma->0) =     -134.03369389


--------------------------------------------------------------------------------------------------------




----------------------------------------- Iteration    1(  12)  ---------------------------------------


    POTLOK:  cpu time    0.10: real time    0.10
    SETDIJ:  cpu time    0.11: real time    0.11
     EDDAV:  cpu time   11.39: real time   11.41
       DOS:  cpu time    0.00: real time    0.00
    CHARGE:  cpu time    0.70: real time    0.70
    MIXING:  cpu time    0.00: real time    0.00
    --------------------------------------------
      LOOP:  cpu time   12.31: real time   12.32

 eigenvalue-minimisations  :  7938
 total energy-change (2. order) : 0.2717458E-03  (-0.4043171E-03)
 number of electron      95.0000001 magnetization 
 augmentation part        5.6698296 magnetization 

 Broyden mixing:
  rms(total) = 0.77117E-02    rms(broyden)= 0.77064E-02
  rms(prec ) = 0.91929E-02
  weight for this iteration     100.00

 eigenvalues of (default mixing * dielectric matrix)
  average eigenvalue GAMMA=   1.4049
  2.9135  2.4999  0.9546  0.9546  0.9251  0.9251  0.6618

 Free energy of the ion-electron system (eV)
  ---------------------------------------------------
  alpha Z        PSCENC =       126.82159318
  Ewald energy   TEWEN  =     11503.80620781
  -Hartree energ DENC   =    -16468.39689881
  -exchange      EXHF   =         0.00000000
  -V(xc)+E(xc)   XCENC  =      -403.75333642
  PAW double counting   =      5816.22494761    -5092.66382596
  entropy T*S    EENTRO =        -0.00418125
  eigenvalues    EBANDS =      -112.42972436
  atomic energy  EATOM  =      4496.35971583
  ---------------------------------------------------
  free energy    TOTEN  =      -134.03550236 eV

  energy without entropy =     -134.03132111  energy(sigma->0) =     -134.03341174


--------------------------------------------------------------------------------------------------------




----------------------------------------- Iteration    1(  13)  ---------------------------------------


    POTLOK:  cpu time    0.10: real time    0.10
    SETDIJ:  cpu time    0.11: real time    0.11
     EDDAV:  cpu time   10.67: real time   10.69
       DOS:  cpu time    0.00: real time    0.00
    CHARGE:  cpu time    0.69: real time    0.69
    MIXING:  cpu time    0.00: real time    0.00
    --------------------------------------------
      LOOP:  cpu time   11.59: real time   11.60

 eigenvalue-minimisations  :  7186
 total energy-change (2. order) : 0.1552671E-03  (-0.1127445E-03)
 number of electron      95.0000001 magnetization 
 augmentation part        5.6730060 magnetization 

 Broyden mixing:
  rms(total) = 0.60427E-02    rms(broyden)= 0.60412E-02
  rms(prec ) = 0.75116E-02
  weight for this iteration     100.00

 eigenvalues of (default mixing * dielectric matrix)
  average eigenvalue GAMMA=   1.3550
  2.9907  2.5435  0.9195  0.9195  1.0077  1.0077  0.6969  0.7543

 Free energy of the ion-electron system (eV)
  ---------------------------------------------------
  alpha Z        PSCENC =       126.82159318
  Ewald energy   TEWEN  =     11503.80620781
  -Hartree energ DENC   =    -16467.80121862
  -exchange      EXHF   =         0.00000000
  -V(xc)+E(xc)   XCENC  =      -403.77633036
  PAW double counting   =      5808.46338051    -5084.89724400
  entropy T*S    EENTRO =        -0.00419506
  eigenvalues    EBANDS =      -113.00725639
  atomic energy  EATOM  =      4496.35971583
  ---------------------------------------------------
  free energy    TOTEN  =      -134.03534709 eV

  energy without entropy =     -134.03115204  energy(sigma->0) =     -134.03324956


--------------------------------------------------------------------------------------------------------




----------------------------------------- Iteration    1(  14)  ---------------------------------------


    POTLOK:  cpu time    0.10: real time    0.10
    SETDIJ:  cpu time    0.11: real time    0.11
     EDDAV:  cpu time   11.48: real time   11.50
       DOS:  cpu time    0.00: real time    0.00
    CHARGE:  cpu time    0.70: real time    0.70
    MIXING:  cpu time    0.00: real time    0.00
    --------------------------------------------
      LOOP:  cpu time   12.40: real time   12.42

 eigenvalue-minimisations  :  8022
 total energy-change (2. order) : 0.1378309E-03  (-0.3193444E-04)
 number of electron      95.0000001 magnetization 
 augmentation part        5.6736120 magnetization 

 Broyden mixing:
  rms(total) = 0.31733E-02    rms(broyden)= 0.31725E-02
  rms(prec ) = 0.50699E-02
  weight for this iteration     100.00

 eigenvalues of (default mixing * dielectric matrix)
  average eigenvalue GAMMA=   1.4272
  2.9587  2.5027  1.9061  0.9245  0.9245  1.0469  0.9605  0.9605  0.6600

 Free energy of the ion-electron system (eV)
  ---------------------------------------------------
  alpha Z        PSCENC =       126.82159318
  Ewald energy   TEWEN  =     11503.80620781
  -Hartree energ DENC   =    -16467.55029969
  -exchange      EXHF   =         0.00000000
  -V(xc)+E(xc)   XCENC  =      -403.78005913
  PAW double counting   =      5806.54697317    -5082.98007974
  entropy T*S    EENTRO =        -0.00420450
  eigenvalues    EBANDS =      -113.25505619
  atomic energy  EATOM  =      4496.35971583
  ---------------------------------------------------
  free energy    TOTEN  =      -134.03520926 eV

  energy without entropy =     -134.03100476  energy(sigma->0) =     -134.03310701


--------------------------------------------------------------------------------------------------------




----------------------------------------- Iteration    1(  15)  ---------------------------------------


    POTLOK:  cpu time    0.10: real time    0.10
    SETDIJ:  cpu time    0.11: real time    0.11
     EDDAV:  cpu time   11.83: real time   11.84
       DOS:  cpu time    0.00: real time    0.00
    CHARGE:  cpu time    0.70: real time    0.70
    MIXING:  cpu time    0.00: real time    0.00
    --------------------------------------------
      LOOP:  cpu time   12.75: real time   12.77

 eigenvalue-minimisations  :  8314
 total energy-change (2. order) : 0.1697543E-03  (-0.1017330E-04)
 number of electron      95.0000001 magnetization 
 augmentation part        5.6732172 magnetization 

 Broyden mixing:
  rms(total) = 0.16950E-02    rms(broyden)= 0.16947E-02
  rms(prec ) = 0.36472E-02
  weight for this iteration     100.00

 eigenvalues of (default mixing * dielectric matrix)
  average eigenvalue GAMMA=   1.4481
  3.0841  2.5393  2.5393  0.9257  0.9257  1.0207  1.0207  0.8756  0.8756  0.6749

 Free energy of the ion-electron system (eV)
  ---------------------------------------------------
  alpha Z        PSCENC =       126.82159318
  Ewald energy   TEWEN  =     11503.80620781
  -Hartree energ DENC   =    -16467.27975655
  -exchange      EXHF   =         0.00000000
  -V(xc)+E(xc)   XCENC  =      -403.77562275
  PAW double counting   =      5807.61646384    -5084.04994465
  entropy T*S    EENTRO =        -0.00422637
  eigenvalues    EBANDS =      -113.52946985
  atomic energy  EATOM  =      4496.35971583
  ---------------------------------------------------
  free energy    TOTEN  =      -134.03503951 eV

  energy without entropy =     -134.03081314  energy(sigma->0) =     -134.03292632


--------------------------------------------------------------------------------------------------------




----------------------------------------- Iteration    1(  16)  ---------------------------------------


    POTLOK:  cpu time    0.11: real time    0.11
    SETDIJ:  cpu time    0.12: real time    0.12
     EDDAV:  cpu time   11.34: real time   11.36
       DOS:  cpu time    0.00: real time    0.00
    CHARGE:  cpu time    0.70: real time    0.70
    MIXING:  cpu time    0.01: real time    0.01
    --------------------------------------------
      LOOP:  cpu time   12.27: real time   12.29

 eigenvalue-minimisations  :  7918
 total energy-change (2. order) : 0.1266427E-03  (-0.1701696E-04)
 number of electron      95.0000001 magnetization 
 augmentation part        5.6725029 magnetization 

 Broyden mixing:
  rms(total) = 0.13944E-02    rms(broyden)= 0.13935E-02
  rms(prec ) = 0.30550E-02
  weight for this iteration     100.00

 eigenvalues of (default mixing * dielectric matrix)
  average eigenvalue GAMMA=   1.5216
  3.1204  3.1204  2.3571  1.7705  0.9397  0.9397  0.6757  0.9979  0.9979  0.9092
  0.9092

 Free energy of the ion-electron system (eV)
  ---------------------------------------------------
  alpha Z        PSCENC =       126.82159318
  Ewald energy   TEWEN  =     11503.80620781
  -Hartree energ DENC   =    -16466.98238245
  -exchange      EXHF   =         0.00000000
  -V(xc)+E(xc)   XCENC  =      -403.77141090
  PAW double counting   =      5807.94190411    -5084.37603961
  entropy T*S    EENTRO =        -0.00423402
  eigenvalues    EBANDS =      -113.83026681
  atomic energy  EATOM  =      4496.35971583
  ---------------------------------------------------
  free energy    TOTEN  =      -134.03491286 eV

  energy without entropy =     -134.03067884  energy(sigma->0) =     -134.03279585


--------------------------------------------------------------------------------------------------------




----------------------------------------- Iteration    1(  17)  ---------------------------------------


    POTLOK:  cpu time    0.10: real time    0.10
    SETDIJ:  cpu time    0.11: real time    0.11
     EDDAV:  cpu time   12.05: real time   12.06
       DOS:  cpu time    0.00: real time    0.00
    CHARGE:  cpu time    0.72: real time    0.72
    MIXING:  cpu time    0.01: real time    0.01
    --------------------------------------------
      LOOP:  cpu time   12.98: real time   13.00

 eigenvalue-minimisations  :  8558
 total energy-change (2. order) : 0.1950345E-03  (-0.1850622E-04)
 number of electron      95.0000001 magnetization 
 augmentation part        5.6732130 magnetization 

 Broyden mixing:
  rms(total) = 0.18430E-02    rms(broyden)= 0.18425E-02
  rms(prec ) = 0.24610E-02
  weight for this iteration     100.00

 eigenvalues of (default mixing * dielectric matrix)
  average eigenvalue GAMMA=   1.6954
  5.4488  2.9401  2.3293  2.3293  0.9255  0.9255  1.0235  1.0235  0.9679  0.9679
  0.6759  0.7873

 Free energy of the ion-electron system (eV)
  ---------------------------------------------------
  alpha Z        PSCENC =       126.82159318
  Ewald energy   TEWEN  =     11503.80620781
  -Hartree energ DENC   =    -16466.07342181
  -exchange      EXHF   =         0.00000000
  -V(xc)+E(xc)   XCENC  =      -403.77895595
  PAW double counting   =      5807.80306813    -5084.23388387
  entropy T*S    EENTRO =        -0.00426891
  eigenvalues    EBANDS =      -114.73477224
  atomic energy  EATOM  =      4496.35971583
  ---------------------------------------------------
  free energy    TOTEN  =      -134.03471783 eV

  energy without entropy =     -134.03044892  energy(sigma->0) =     -134.03258338


--------------------------------------------------------------------------------------------------------




----------------------------------------- Iteration    1(  18)  ---------------------------------------


    POTLOK:  cpu time    0.11: real time    0.11
    SETDIJ:  cpu time    0.11: real time    0.11
     EDDAV:  cpu time   10.75: real time   10.77
       DOS:  cpu time    0.00: real time    0.00
    CHARGE:  cpu time    0.69: real time    0.69
    MIXING:  cpu time    0.01: real time    0.01
    --------------------------------------------
      LOOP:  cpu time   11.66: real time   11.68

 eigenvalue-minimisations  :  7428
 total energy-change (2. order) : 0.6256937E-04  (-0.1821273E-04)
 number of electron      95.0000001 magnetization 
 augmentation part        5.6734218 magnetization 

 Broyden mixing:
  rms(total) = 0.17847E-02    rms(broyden)= 0.17845E-02
  rms(prec ) = 0.20971E-02
  weight for this iteration     100.00

 eigenvalues of (default mixing * dielectric matrix)
  average eigenvalue GAMMA=   1.6165
  5.6838  2.9465  2.3367  2.3367  0.9165  0.9165  1.0167  1.0167  1.0228  1.0228
  0.7857  0.6758  0.3373

 Free energy of the ion-electron system (eV)
  ---------------------------------------------------
  alpha Z        PSCENC =       126.82159318
  Ewald energy   TEWEN  =     11503.80620781
  -Hartree energ DENC   =    -16465.65274795
  -exchange      EXHF   =         0.00000000
  -V(xc)+E(xc)   XCENC  =      -403.77760381
  PAW double counting   =      5807.86232595    -5084.29268576
  entropy T*S    EENTRO =        -0.00427823
  eigenvalues    EBANDS =      -115.15718228
  atomic energy  EATOM  =      4496.35971583
  ---------------------------------------------------
  free energy    TOTEN  =      -134.03465526 eV

  energy without entropy =     -134.03037703  energy(sigma->0) =     -134.03251614


--------------------------------------------------------------------------------------------------------




----------------------------------------- Iteration    1(  19)  ---------------------------------------


    POTLOK:  cpu time    0.10: real time    0.10
    SETDIJ:  cpu time    0.11: real time    0.11
     EDDAV:  cpu time   10.89: real time   10.91
       DOS:  cpu time    0.00: real time    0.00
    CHARGE:  cpu time    0.69: real time    0.69
    MIXING:  cpu time    0.01: real time    0.01
    --------------------------------------------
      LOOP:  cpu time   11.81: real time   11.83

 eigenvalue-minimisations  :  7556
 total energy-change (2. order) : 0.2965524E-04  (-0.2412127E-04)
 number of electron      95.0000001 magnetization 
 augmentation part        5.6727663 magnetization 

 Broyden mixing:
  rms(total) = 0.13494E-02    rms(broyden)= 0.13485E-02
  rms(prec ) = 0.15273E-02
  weight for this iteration     100.00

 eigenvalues of (default mixing * dielectric matrix)
  average eigenvalue GAMMA=   1.7484
  6.7401  3.1316  2.6210  2.4281  1.1150  1.1150  0.9219  0.9219  1.0831  1.0831
  0.9287  0.9287  0.6769  0.7831

 Free energy of the ion-electron system (eV)
  ---------------------------------------------------
  alpha Z        PSCENC =       126.82159318
  Ewald energy   TEWEN  =     11503.80620781
  -Hartree energ DENC   =    -16465.53892664
  -exchange      EXHF   =         0.00000000
  -V(xc)+E(xc)   XCENC  =      -403.76971900
  PAW double counting   =      5808.63429388    -5085.06697268
  entropy T*S    EENTRO =        -0.00428006
  eigenvalues    EBANDS =      -115.27653792
  atomic energy  EATOM  =      4496.35971583
  ---------------------------------------------------
  free energy    TOTEN  =      -134.03462561 eV

  energy without entropy =     -134.03034554  energy(sigma->0) =     -134.03248557


--------------------------------------------------------------------------------------------------------




----------------------------------------- Iteration    1(  20)  ---------------------------------------


    POTLOK:  cpu time    0.10: real time    0.10
    SETDIJ:  cpu time    0.11: real time    0.11
     EDDAV:  cpu time   10.22: real time   10.23
       DOS:  cpu time    0.00: real time    0.00
    CHARGE:  cpu time    0.72: real time    0.72
    MIXING:  cpu time    0.01: real time    0.01
    --------------------------------------------
      LOOP:  cpu time   11.15: real time   11.17

 eigenvalue-minimisations  :  6866
 total energy-change (2. order) : 0.1423779E-04  (-0.1097476E-04)
 number of electron      95.0000001 magnetization 
 augmentation part        5.6725859 magnetization 

 Broyden mixing:
  rms(total) = 0.10236E-02    rms(broyden)= 0.10234E-02
  rms(prec ) = 0.11116E-02
  weight for this iteration     100.00

 eigenvalues of (default mixing * dielectric matrix)
  average eigenvalue GAMMA=   1.7315
  7.4823  3.1077  2.7167  2.3881  1.2555  1.2555  0.9288  0.9288  1.0969  1.0969
  0.9371  0.9371  0.6777  0.7840  0.3802

 Free energy of the ion-electron system (eV)
  ---------------------------------------------------
  alpha Z        PSCENC =       126.82159318
  Ewald energy   TEWEN  =     11503.80620781
  -Hartree energ DENC   =    -16465.44845424
  -exchange      EXHF   =         0.00000000
  -V(xc)+E(xc)   XCENC  =      -403.76719091
  PAW double counting   =      5809.29325465    -5085.72676883
  entropy T*S    EENTRO =        -0.00428545
  eigenvalues    EBANDS =      -115.36868341
  atomic energy  EATOM  =      4496.35971583
  ---------------------------------------------------
  free energy    TOTEN  =      -134.03461137 eV

  energy without entropy =     -134.03032592  energy(sigma->0) =     -134.03246864


--------------------------------------------------------------------------------------------------------




----------------------------------------- Iteration    1(  21)  ---------------------------------------


    POTLOK:  cpu time    0.11: real time    0.11
    SETDIJ:  cpu time    0.11: real time    0.11
     EDDAV:  cpu time    9.27: real time    9.29
       DOS:  cpu time    0.00: real time    0.00
    --------------------------------------------
      LOOP:  cpu time    9.50: real time    9.51

 eigenvalue-minimisations  :  6060
 total energy-change (2. order) : 0.1645850E-05  (-0.4771095E-05)
 number of electron      95.0000001 magnetization 
 augmentation part        5.6725859 magnetization 

 Free energy of the ion-electron system (eV)
  ---------------------------------------------------
  alpha Z        PSCENC =       126.82159318
  Ewald energy   TEWEN  =     11503.80620781
  -Hartree energ DENC   =    -16465.37103482
  -exchange      EXHF   =         0.00000000
  -V(xc)+E(xc)   XCENC  =      -403.76712683
  PAW double counting   =      5809.12013189    -5085.55380960
  entropy T*S    EENTRO =        -0.00428691
  eigenvalues    EBANDS =      -115.44600027
  atomic energy  EATOM  =      4496.35971583
  ---------------------------------------------------
  free energy    TOTEN  =      -134.03460972 eV

  energy without entropy =     -134.03032282  energy(sigma->0) =     -134.03246627


--------------------------------------------------------------------------------------------------------




 average (electrostatic) potential at core
  the test charge radii are     0.7215  1.0714  1.0406
  (the norm of the test charge is              1.0000)
       1 -69.7544       2 -69.7539       3 -69.7496       4 -69.8362       5 -69.7567
[...]
     58      10.8616      0.00000
     59      10.9237      0.00000
     60      11.1669      0.00000
     61      11.3718      0.00000
     62      11.4107      0.00000

 k-point    47 :      -0.3846    0.3846   -0.0000
  band No.  band energies     occupation 
      1     -13.1438      2.00000
      2     -13.1184      2.00000
      3     -13.0700      2.00000
      4     -13.0088      2.00000
      5     -12.9351      2.00000
      6     -12.8572      2.00000
      7     -12.7843      2.00000
      8     -12.7268      2.00000
      9     -12.6824      2.00000
     10      -1.1135      2.00000
     11      -1.0067      2.00000
     12      -0.8375      2.00000
     13      -0.7887      2.00000
     14      -0.6925      2.00000
     15      -0.6422      2.00000
     16      -0.5894      2.00000
     17      -0.5433      2.00000
     18      -0.4468      2.00000
     19      -0.4115      2.00000
     20      -0.2499      2.00000
     21       0.2152      2.00000
     22       0.2961      2.00000
     23       0.5858      2.00000
     24       0.8320      2.00000
     25       1.1608      2.00000
     26       1.2704      2.00000
     27       1.5924      2.00000
     28       1.7318      2.00000
     29       1.8073      2.00000
     30       1.8095      2.00000
     31       1.8454      2.00000
     32       1.9104      2.00000
     33       1.9926      2.00000
     34       1.9993      2.00000
     35       2.0899      2.00000
     36       2.1473      2.00000
     37       2.1934      2.00000
     38       2.2908      2.00000
     39       2.2920      2.00000
     40       2.3690      2.00000
     41       2.4276      2.00000
     42       3.1448      2.00000
     43       4.2871      2.00000
     44       4.3002      2.00000
     45       4.6304      2.00000
     46       5.0705      2.00000
     47       5.4632      2.00000
     48       6.0656      2.00000
     49       6.8152      0.00246
     50       7.3793      0.00000
     51       7.8480      0.00000
     52       8.6671      0.00000
     53       9.0051      0.00000
     54       9.9216      0.00000
     55      10.1879      0.00000
     56      10.6629      0.00000
     57      10.9946      0.00000
     58      11.2154      0.00000
     59      11.5496      0.00000
     60      11.5844      0.00000
     61      11.6430      0.00000
     62      11.8889      0.00000

 k-point    48 :       0.4615    0.4615    0.0000
  band No.  band energies     occupation 
      1     -12.9072      2.00000
      2     -12.8987      2.00000
      3     -12.8784      2.00000
      4     -12.8519      2.00000
      5     -12.8160      2.00000
      6     -12.7764      2.00000
      7     -12.7383      2.00000
      8     -12.7079      2.00000
      9     -12.6805      2.00000
     10      -1.4021      2.00000
     11      -1.2922      2.00000
     12      -1.1190      2.00000
     13      -0.9240      2.00000
     14      -0.9023      2.00000
     15      -0.8245      2.00000
     16      -0.7655      2.00000
     17      -0.6972      2.00000
     18      -0.6658      2.00000
     19       0.9628      2.00000
     20       0.9878      2.00000
     21       1.1235      2.00000
     22       1.2013      2.00000
     23       1.3408      2.00000
     24       1.4898      2.00000
     25       1.5285      2.00000
     26       1.5584      2.00000
     27       1.6274      2.00000
     28       1.6852      2.00000
     29       1.6947      2.00000
     30       1.6972      2.00000
     31       1.7998      2.00000
     32       1.8082      2.00000
     33       1.9464      2.00000
     34       1.9980      2.00000
     35       2.0196      2.00000
     36       2.0334      2.00000
     37       2.1173      2.00000
     38       2.1404      2.00000
     39       2.2317      2.00000
     40       2.2624      2.00000
     41       2.5002      2.00000
     42       2.5970      2.00000
     43       3.2417      2.00000
     44       3.3418      2.00000
     45       4.1496      2.00000
     46       4.3488      2.00000
     47       5.0499      2.00000
     48       5.6009      2.00000
     49       6.2682      2.00000
     50       6.8078      0.00484
     51       7.3687      0.00000
     52       7.8851      0.00000
     53       8.9488      0.00000
     54       9.4477      0.00000
     55       9.5233      0.00000
     56       9.7933      0.00000
     57      10.5964      0.00000
     58      10.6539      0.00000
     59      10.8775      0.00000
     60      11.1154      0.00000
     61      11.2708      0.00000
     62      11.4369      0.00000

 k-point    49 :      -0.4615    0.4615    0.0000
  band No.  band energies     occupation 
      1     -12.9543      2.00000
      2     -12.9424      2.00000
      3     -12.9163      2.00000
      4     -12.8827      2.00000
      5     -12.8394      2.00000
      6     -12.7924      2.00000
      7     -12.7478      2.00000
      8     -12.7125      2.00000
      9     -12.6821      2.00000
     10      -1.4222      2.00000
     11      -1.3119      2.00000
     12      -1.1378      2.00000
     13      -0.9439      2.00000
     14      -0.9344      2.00000
     15      -0.8519      2.00000
     16      -0.7833      2.00000
     17      -0.7119      2.00000
     18      -0.6786      2.00000
     19       0.7821      2.00000
     20       0.7998      2.00000
     21       0.9301      2.00000
     22       1.0909      2.00000
     23       1.2084      2.00000
     24       1.3435      2.00000
     25       1.3779      2.00000
     26       1.5444      2.00000
     27       1.5991      2.00000
     28       1.7138      2.00000
     29       1.7396      2.00000
     30       1.7756      2.00000
     31       1.8408      2.00000
     32       1.9233      2.00000
     33       1.9505      2.00000
     34       2.0211      2.00000
     35       2.1249      2.00000
     36       2.2123      2.00000
     37       2.2228      2.00000
     38       2.3014      2.00000
     39       2.3602      2.00000
     40       2.3966      2.00000
     41       2.4855      2.00000
     42       2.7802      2.00000
     43       3.2643      2.00000
     44       3.3801      2.00000
     45       4.0491      2.00000
     46       4.4395      2.00000
     47       4.9384      2.00000
     48       5.7227      2.00000
     49       6.0722      2.00000
     50       6.8440      0.00012
     51       7.2522      0.00000
     52       8.3143      0.00000
     53       8.5463      0.00000
     54       9.7029      0.00000
     55       9.9697      0.00000
     56      10.7629      0.00000
     57      10.8747      0.00000
     58      11.0709      0.00000
     59      11.3559      0.00000
     60      11.3579      0.00000
     61      11.6624      0.00000
     62      11.6771      0.00000


--------------------------------------------------------------------------------------------------------


 soft charge-density along one line, spin component           1
         0         1         2         3         4         5         6         7         8         9
 total charge-density along one line
 
 pseudopotential strength for first ion, spin component:           1
 12.127   0.000 -14.751   0.000  -0.000   0.000  -0.000   0.000   0.000   0.000   0.000   0.000   0.000   0.000  -0.000   0.000
-14.751   0.000  17.962   0.000  -0.000   0.000   0.000   0.000   0.000   0.000   0.000   0.000  -0.000   0.000  -0.000   0.000
 -0.000   0.000  -0.000   0.000  -8.244   0.000  -0.000   0.000   0.000   0.000   9.855   0.000   0.000   0.000  -0.000   0.000
 -0.000   0.000   0.000   0.000  -0.000   0.000  -8.247   0.000   0.000   0.000   0.000   0.000   9.859   0.000  -0.000   0.000
  0.000   0.000   0.000   0.000   0.000   0.000   0.000   0.000  -8.243   0.000  -0.000   0.000  -0.000   0.000   9.855   0.000
  0.000   0.000   0.000   0.000   9.855   0.000   0.000   0.000  -0.000   0.000 -11.616   0.000  -0.000   0.000   0.000   0.000
  0.000   0.000  -0.000   0.000   0.000   0.000   9.859   0.000  -0.000   0.000  -0.000   0.000 -11.622   0.000   0.000   0.000
 -0.000   0.000  -0.000   0.000  -0.000   0.000  -0.000   0.000   9.855   0.000   0.000   0.000   0.000   0.000 -11.616   0.000
 total augmentation occupancy for first ion, spin component:           1
  2.601   0.363   0.000   0.000  -0.000   0.000  -0.000  -0.000
  0.363   0.068   0.000  -0.000  -0.000   0.000  -0.000  -0.000
  0.000   0.000   2.161   0.000  -0.000   0.259   0.000  -0.000
  0.000  -0.000   0.000   2.158  -0.000   0.000   0.262  -0.000
 -0.000  -0.000  -0.000  -0.000   2.160  -0.000  -0.000   0.259
  0.000   0.000   0.259   0.000  -0.000   0.034   0.000  -0.000
 -0.000  -0.000   0.000   0.262  -0.000   0.000   0.034  -0.000
 -0.000  -0.000  -0.000  -0.000   0.259  -0.000  -0.000   0.034


------------------------ aborting loop because EDIFF is reached ----------------------------------------


    CHARGE:  cpu time    0.69: real time    0.69
    FORLOC:  cpu time    0.03: real time    0.03
    FORNL :  cpu time    6.11: real time    6.12
    STRESS:  cpu time    6.90: real time    6.91
    FORCOR:  cpu time    0.13: real time    0.13
    FORHAR:  cpu time    0.05: real time    0.05
    MIXING:  cpu time    0.00: real time    0.00
    OFIELD:  cpu time    0.00: real time    0.00

  FORCE on cell =-STRESS in cart. coord.  units (eV):
  Direction    XX          YY          ZZ          XY          YZ          ZX
  --------------------------------------------------------------------------------------
  Alpha Z   126.82159   126.82159   126.82159
  Ewald   14700.35633 14695.75908-17164.76367     3.98157  -551.45382   318.38195
  Hartree 16330.14634 16323.74226-15464.66978     5.54603  -551.26123   318.27096
  E(xc)    -389.73649  -389.75541  -390.16261     0.01637    -0.00869     0.00502
  Local  -32172.96688-32161.89380 31484.14983    -9.58932  1102.74364  -636.66948
  n-local   -28.53960   -36.14998   -26.55854    -2.39452     1.68791     2.82347
  augment    53.98559    53.97924    53.34780     0.00546    -0.00187     0.00109
  Kinetic  1394.06737  1369.54800  1374.45758    -6.80184     0.46942     1.17738
  Fock        0.00000     0.00000     0.00000     0.00000     0.00000     0.00000
  -------------------------------------------------------------------------------------
  Total      -1.89631    -1.91844    -7.37779     0.01917    -0.09632     0.05561
  in kB      -9.52938    -9.64058   -37.07502     0.09631    -0.48401     0.27944
  external pressure =      -18.75 kB  Pullay stress =        0.00 kB


 VOLUME and BASIS-vectors are now :
 -----------------------------------------------------------------------------
  energy-cutoff  :      520.00
  volume of cell :      318.83
      direct lattice vectors                 reciprocal lattice vectors
     2.592590006 -1.495275227  0.051895165     0.385652952 -0.000240353 -0.003842044
     0.001348276  2.992885737 -0.051895149     0.192618324  0.334105532  0.003842044
     0.408967606 -0.708352458 41.095270583    -0.000243764  0.000422212  0.024343404

  length of vectors
     2.993336608  2.993335925 41.103409615     0.385672164  0.385672253  0.024348285


 FORCES acting on ions
    electron-ion (+dipol)            ewald-force                    non-local-force                 convergence-correction
 -----------------------------------------------------------------------------------------------
   -.952E+01 0.165E+02 0.949E+03   0.952E+01 -.165E+02 -.949E+03   0.174E-02 -.302E-02 0.393E-02   -.228E-03 0.395E-03 0.556E-01
   -.137E-02 0.237E-02 0.612E-01   0.121E-02 -.210E-02 -.897E-02   -.361E-03 0.626E-03 0.135E-01   0.604E-03 -.105E-02 -.585E-01
   0.952E+01 -.165E+02 -.949E+03   -.952E+01 0.165E+02 0.950E+03   -.151E-02 0.262E-02 -.153E-01   0.781E-04 -.135E-03 -.446E-01
   -.126E+02 0.219E+02 0.126E+04   0.126E+02 -.219E+02 -.126E+04   -.546E-02 0.946E-02 0.749E+00   0.597E-04 -.103E-03 0.517E-01
   -.636E+01 0.110E+02 0.633E+03   0.636E+01 -.110E+02 -.633E+03   0.807E-03 -.140E-02 -.147E-01   0.246E-03 -.426E-03 0.240E-01
   -.317E+01 0.549E+01 0.317E+03   0.317E+01 -.549E+01 -.317E+03   0.158E-03 -.274E-03 -.118E-01   0.825E-04 -.143E-03 -.640E-02
   0.317E+01 -.549E+01 -.317E+03   -.317E+01 0.549E+01 0.317E+03   -.339E-03 0.588E-03 0.220E-01   0.788E-03 -.137E-02 -.842E-01
   0.635E+01 -.110E+02 -.633E+03   -.635E+01 0.110E+02 0.633E+03   -.639E-03 0.111E-02 0.139E-01   0.342E-03 -.592E-03 -.631E-01
   0.126E+02 -.219E+02 -.126E+04   -.126E+02 0.219E+02 0.126E+04   0.542E-02 -.938E-02 -.762E+00   -.385E-03 0.666E-03 -.168E-01
   -.458E+01 0.794E+01 0.455E+03   0.458E+01 -.793E+01 -.455E+03   0.984E-02 -.170E-01 0.638E-01   -.165E-03 0.285E-03 0.162E-01
   -.159E+01 0.275E+01 0.158E+03   0.159E+01 -.275E+01 -.158E+03   0.645E-03 -.112E-02 0.797E-03   -.423E-04 0.733E-04 0.407E-02
   0.159E+01 -.275E+01 -.158E+03   -.159E+01 0.275E+01 0.158E+03   -.998E-03 0.173E-02 0.345E-02   0.256E-03 -.443E-03 -.254E-01
   0.458E+01 -.794E+01 -.455E+03   -.458E+01 0.793E+01 0.455E+03   -.100E-01 0.173E-01 -.678E-01   0.452E-04 -.784E-04 -.432E-02
   -.371E+01 0.642E+01 0.369E+03   0.370E+01 -.642E+01 -.369E+03   0.289E-02 -.501E-02 -.342E-01   -.186E-03 0.322E-03 0.183E-01
   -.266E+01 0.460E+01 0.264E+03   0.266E+01 -.460E+01 -.264E+03   0.444E-02 -.770E-02 -.116E-01   -.148E-03 0.256E-03 0.145E-01
   -.525E+00 0.909E+00 0.528E+02   0.526E+00 -.910E+00 -.528E+02   -.999E-03 0.173E-02 0.951E-03   0.113E-03 -.195E-03 -.113E-01
   0.527E+00 -.912E+00 -.528E+02   -.527E+00 0.913E+00 0.528E+02   0.384E-03 -.665E-03 0.234E-02   0.265E-03 -.460E-03 -.264E-01
   0.265E+01 -.460E+01 -.264E+03   -.265E+01 0.460E+01 0.264E+03   -.381E-02 0.661E-02 0.937E-02   0.172E-03 -.298E-03 -.170E-01
   0.371E+01 -.642E+01 -.369E+03   -.371E+01 0.642E+01 0.369E+03   -.305E-02 0.528E-02 0.308E-01   0.963E-04 -.167E-03 -.932E-02
   -.579E-03 0.100E-02 -.494E-02   0.281E-03 -.486E-03 -.359E-02   0.427E-03 -.740E-03 -.179E-02   -.966E-04 0.167E-03 0.964E-02
   -.487E+01 0.843E+01 0.486E+03   0.486E+01 -.842E+01 -.485E+03   0.826E-02 -.143E-01 -.825E+00   -.250E-03 0.433E-03 0.249E-01
   -.325E+01 0.563E+01 0.324E+03   0.325E+01 -.563E+01 -.324E+03   0.302E-02 -.523E-02 -.625E-01   -.255E-03 0.442E-03 0.254E-01
   -.161E+01 0.280E+01 0.160E+03   0.161E+01 -.279E+01 -.160E+03   0.643E-02 -.111E-01 0.201E+00   -.206E-03 0.356E-03 0.205E-01
   0.487E+01 -.843E+01 -.486E+03   -.486E+01 0.842E+01 0.485E+03   -.875E-02 0.151E-01 0.819E+00   0.704E-04 -.122E-03 -.698E-02
   0.161E+01 -.280E+01 -.160E+03   -.161E+01 0.279E+01 0.160E+03   -.613E-02 0.106E-01 -.199E+00   0.143E-04 -.248E-04 -.144E-02
   0.325E+01 -.563E+01 -.324E+03   -.325E+01 0.563E+01 0.324E+03   -.277E-02 0.480E-02 0.669E-01   0.697E-04 -.121E-03 -.692E-02
 -----------------------------------------------------------------------------------------------
   -.140E-02 0.243E-02 0.130E+00   -.204E-13 0.426E-13 0.909E-12   -.371E-03 0.642E-03 -.554E-02   0.134E-02 -.233E-02 -.118E+00
 
 
 POSITION                                       TOTAL-FORCE (eV/Angst)
 -----------------------------------------------------------------------------------
      1.57587      0.26573     14.16843         0.001418     -0.002457     -0.013838
      1.51222      0.37598     21.60746         0.000107     -0.000185      0.007008
      1.44829      0.48671     29.04639        -0.001401      0.002426      0.010824
      0.73582      1.72074     11.65243         0.002663     -0.004613     -0.007700
      2.41736     -1.19177     16.68382         0.001991     -0.003449     -0.008297
      0.66928      1.83600     19.09389        -0.000195      0.000338     -0.003476
      2.35518     -1.08408     24.12120        -0.000117      0.000202      0.005679
      0.60684      1.94414     26.53104        -0.002043      0.003538      0.009765
      2.28831     -0.96825     31.56229        -0.002578      0.004465      0.005878
      1.61228      0.20266     10.41837         0.003077     -0.005329      0.000630
      1.54327      0.32220     17.88864         0.000389     -0.000674      0.007254
      1.48109      0.42990     25.32604        -0.000539      0.000933     -0.004349
      1.41183      0.54985     32.79682        -0.003107      0.005382     -0.001392
      2.45127     -1.25051     12.96143         0.001396     -0.002418      0.006724
      0.70065      1.78166     15.37495         0.002380     -0.004123     -0.008751
      2.38645     -1.13823     20.40251        -0.000429      0.000743     -0.001469
      0.63805      1.89009     22.81247         0.000275     -0.000476     -0.007379
      2.32349     -1.02917     27.84003        -0.002040      0.003533      0.008376
      0.57289      2.00295     30.25351        -0.001498      0.002594     -0.003128
      2.60254     -1.51250      1.11170         0.000049     -0.000085     -0.000945
      2.50822     -1.34915      7.99486         0.000893     -0.001547      0.008770
      1.67321      0.09713      5.67496         0.000655     -0.001134     -0.002489
      0.84057      1.53931      3.32875         0.001938     -0.003357      0.014996
      0.51562      2.10214     35.22034        -0.000984      0.001704     -0.011257
      2.18240     -0.78481     39.88585        -0.001741      0.003015     -0.014961
      1.35011      0.65676     37.53958        -0.000561      0.000972      0.003527
 -----------------------------------------------------------------------------------
    total drift:                               -0.000429      0.000742      0.006988


--------------------------------------------------------------------------------------------------------



  FREE ENERGIE OF THE ION-ELECTRON SYSTEM (eV)
  ---------------------------------------------------
  free  energy   TOTEN  =      -134.05525942 eV

  energy  without entropy=     -134.05224678  energy(sigma->0) =     -134.05375310
 
 d Force = 0.2292168E-03[ 0.112E-03, 0.346E-03]  d Energy = 0.2162830E-03 0.129E-04
 d Force =-0.3638901E+01[-0.364E+01,-0.364E+01]  d Ewald  =-0.3638900E+01-0.429E-06


--------------------------------------------------------------------------------------------------------


    POTLOK:  cpu time    0.20: real time    0.20


--------------------------------------------------------------------------------------------------------


 Conjugate gradient step on ions:
 trial-energy change:   -0.000216  1 .order   -0.000229   -0.000346   -0.000112
  (g-gl).g = 0.451E-03      g.g   = 0.428E-03  gl.gl    = 0.233E-02
 g(Force)  = 0.428E-03   g(Stress)= 0.000E+00 ortho     = 0.172E-04
 gamma     =   0.19335
 trial     =   0.80333
 opt step  =   1.18868  (harmonic =   1.18868) maximal distance =0.00222680
 next E    =  -134.055299   (d E  =  -0.00026)


--------------------------------------------------------------------------------------------------------


  
 reached required accuracy - stopping structural energy minimisation
     LOOP+:  cpu time   67.50: real time   67.56
    4ORBIT:  cpu time    0.00: real time    0.00

 total amount of memory used by VASP on root node   196071. kBytes
========================================================================

   base      :      30000. kBytes
   nonl-proj :      34140. kBytes
   fftplans  :      55171. kBytes
   grid      :      22118. kBytes
   one-center:         56. kBytes
   wavefun   :      54586. kBytes
 
  
  
 General timing and accounting informations for this job:
 ========================================================
  
                  Total CPU time used (sec):     2344.198
                            User time (sec):     2327.346
                          System time (sec):       16.852
                         Elapsed time (sec):     2346.941
  
                   Maximum memory used (kb):      304684.
                   Average memory used (kb):           0.
  
                          Minor page faults:       633127
                          Major page faults:            0
                 Voluntary context switches:          310
