       N       E                     dE             d eps       ncg     rms          rms(c)
DAV:   1     0.492063515219E+03    0.49206E+03   -0.44466E+04  2730   0.133E+03
DAV:   2    -0.100891787904E+03   -0.59296E+03   -0.55923E+03  3500   0.254E+02
DAV:   3    -0.153338069666E+03   -0.52446E+02   -0.52149E+02  3205   0.828E+01
DAV:   4    -0.154055482429E+03   -0.71741E+00   -0.71604E+00  3250   0.105E+01
DAV:   5    -0.154069465503E+03   -0.13983E-01   -0.13973E-01  3300   0.143E+00    0.243E+01
DAV:   6    -0.139152913350E+03    0.14917E+02   -0.12074E+02  3185   0.333E+01    0.212E+01
DAV:   7    -0.138940688127E+03    0.21223E+00   -0.61154E+01  3165   0.131E+01    0.106E+01
DAV:   8    -0.135635877580E+03    0.33048E+01   -0.27395E+00  3365   0.955E+00    0.750E+00
DAV:   9    -0.139875413870E+03   -0.42395E+01   -0.36207E+01  3465   0.115E+01    0.201E+01
DAV:  10    -0.134307246912E+03    0.55682E+01   -0.14835E+01  3130   0.553E+00    0.386E+00
DAV:  11    -0.134354316822E+03   -0.47070E-01   -0.22892E+00  2990   0.229E+00    0.277E+00
DAV:  12    -0.134629539815E+03   -0.27522E+00   -0.65904E-01  3405   0.181E+00    0.536E+00
DAV:  13    -0.134309415657E+03    0.32012E+00   -0.98748E-02  3185   0.112E+00    0.259E+00
DAV:  14    -0.134229531814E+03    0.79884E-01   -0.12852E-01  3365   0.864E-01    0.483E-01
DAV:  15    -0.134230991210E+03   -0.14594E-02   -0.70038E-03  2980   0.246E-01    0.492E-01
DAV:  16    -0.134231815207E+03   -0.82400E-03   -0.10240E-03  3175   0.119E-01    0.469E-01
DAV:  17    -0.134230437198E+03    0.13780E-02   -0.16439E-02  3200   0.747E-01    0.742E-01
DAV:  18    -0.134211613153E+03    0.18824E-01   -0.26265E-02  3545   0.850E-01    0.798E-01
DAV:  19    -0.134202181625E+03    0.94315E-02   -0.96696E-03  3140   0.359E-01    0.379E-01
DAV:  20    -0.134203344070E+03   -0.11624E-02   -0.74861E-03  3780   0.500E-01    0.691E-01
DAV:  21    -0.134190340033E+03    0.13004E-01   -0.24429E-02  3435   0.673E-01    0.199E-01
DAV:  22    -0.134190787962E+03   -0.44793E-03   -0.13660E-02  3850   0.647E-01    0.580E-01
DAV:  23    -0.134185204358E+03    0.55836E-02   -0.97328E-03  3810   0.647E-01    0.321E-01
DAV:  24    -0.134183809443E+03    0.13949E-02   -0.69137E-03  3740   0.729E-01    0.341E-01
DAV:  25    -0.134182803964E+03    0.10055E-02   -0.36562E-03  3120   0.311E-01    0.275E-01
DAV:  26    -0.134181123865E+03    0.16801E-02   -0.37206E-03  3630   0.556E-01    0.565E-02
DAV:  27    -0.134180805348E+03    0.31852E-03   -0.21956E-03  3430   0.417E-01    0.677E-02
DAV:  28    -0.134180824788E+03   -0.19440E-04   -0.15138E-03  3115   0.147E-01    0.529E-02
DAV:  29    -0.134180938675E+03   -0.11389E-03   -0.29762E-04  3125   0.917E-02    0.104E-01
DAV:  30    -0.134180816785E+03    0.12189E-03   -0.46732E-04  3170   0.111E-01    0.871E-02
DAV:  31    -0.134180736191E+03    0.80594E-04   -0.11687E-04  3305   0.641E-02    0.302E-02
DAV:  32    -0.134180728521E+03    0.76705E-05   -0.51741E-05  2700   0.362E-02
   1 F= -.13418073E+03 E0= -.13417703E+03  d E =-.134181E+03
       N       E                     dE             d eps       ncg     rms          rms(c)
DAV:   1    -0.137243520179E+03   -0.30628E+01   -0.97336E+01  2865   0.446E+01    0.802E+00
DAV:   2    -0.137984293242E+03   -0.74077E+00   -0.12992E+01  3660   0.120E+01    0.141E+01
DAV:   3    -0.136283391393E+03    0.17009E+01   -0.89377E+00  3325   0.545E+00    0.372E+00
DAV:   4    -0.136016217522E+03    0.26717E+00   -0.57997E-01  3035   0.309E+00    0.174E+00
DAV:   5    -0.136301241295E+03   -0.28502E+00   -0.26118E+00  3765   0.271E+00    0.653E+00
DAV:   6    -0.135964054282E+03    0.33719E+00   -0.15006E+00  3845   0.212E+00    0.106E+00
DAV:   7    -0.135963849332E+03    0.20495E-03   -0.13033E-01  3025   0.818E-01    0.839E-01
DAV:   8    -0.135960674049E+03    0.31753E-02   -0.85454E-02  3270   0.516E-01    0.602E-01
DAV:   9    -0.135958957105E+03    0.17169E-02   -0.18403E-02  3225   0.238E-01    0.229E-01
DAV:  10    -0.135958384435E+03    0.57267E-03   -0.25275E-03  3185   0.165E-01    0.783E-02
DAV:  11    -0.135958169000E+03    0.21543E-03   -0.47879E-04  3895   0.134E-01    0.366E-02
DAV:  12    -0.135958032864E+03    0.13614E-03   -0.52083E-04  3890   0.159E-01    0.650E-02
DAV:  13    -0.135957942551E+03    0.90314E-04   -0.18841E-04  2960   0.701E-02    0.510E-02
DAV:  14    -0.135957784246E+03    0.15830E-03   -0.22194E-04  3160   0.111E-01    0.668E-02
DAV:  15    -0.135957584101E+03    0.20014E-03   -0.21577E-04  3660   0.185E-01    0.284E-02
DAV:  16    -0.135957515189E+03    0.68912E-04   -0.27065E-04  3865   0.166E-01    0.440E-02
DAV:  17    -0.135957470433E+03    0.44756E-04   -0.18140E-04  3390   0.150E-01    0.138E-02
DAV:  18    -0.135957472969E+03   -0.25359E-05   -0.15119E-04  2830   0.731E-02    0.118E-02
DAV:  19    -0.135957471333E+03    0.16364E-05   -0.33028E-05  2320   0.255E-02
   2 F= -.13595747E+03 E0= -.13595292E+03  d E =-.177674E+01
       N       E                     dE             d eps       ncg     rms          rms(c)
DAV:   1    -0.138898449774E+03   -0.29410E+01   -0.20006E+02  2935   0.644E+01    0.115E+01
DAV:   2    -0.137279461951E+03    0.16190E+01   -0.68797E+00  3065   0.128E+01    0.747E+00
DAV:   3    -0.137791480685E+03   -0.51202E+00   -0.12382E+01  3675   0.857E+00    0.599E+00
DAV:   4    -0.136688513229E+03    0.11030E+01   -0.90915E-01  3405   0.579E+00    0.327E+00
DAV:   5    -0.136622276336E+03    0.66237E-01   -0.12727E+00  3475   0.495E+00    0.399E+00
DAV:   6    -0.136538064464E+03    0.84212E-01   -0.16855E+00  3625   0.319E+00    0.215E+00
DAV:   7    -0.136526998669E+03    0.11066E-01   -0.85298E-02  2935   0.100E+00    0.232E+00
DAV:   8    -0.136459669184E+03    0.67329E-01   -0.28176E-02  3775   0.865E-01    0.118E+00
DAV:   9    -0.136451521217E+03    0.81480E-02   -0.10990E-02  3025   0.374E-01    0.747E-01
DAV:  10    -0.136446694948E+03    0.48263E-02   -0.33118E-02  4040   0.465E-01    0.488E-01
DAV:  11    -0.136445781982E+03    0.91297E-03   -0.14165E-02  3065   0.204E-01    0.264E-01
DAV:  12    -0.136445071720E+03    0.71026E-03   -0.15844E-03  3130   0.116E-01    0.737E-02
DAV:  13    -0.136445029171E+03    0.42549E-04   -0.34702E-04  3075   0.730E-02    0.753E-02
DAV:  14    -0.136444994910E+03    0.34261E-04   -0.24337E-04  3110   0.406E-02    0.147E-02
DAV:  15    -0.136445012015E+03   -0.17105E-04   -0.56893E-05  2705   0.279E-02    0.440E-02
DAV:  16    -0.136444993686E+03    0.18329E-04   -0.17021E-05  1610   0.159E-02    0.242E-02
DAV:  17    -0.136444987528E+03    0.61588E-05   -0.11604E-05  1900   0.142E-02
   3 F= -.13644499E+03 E0= -.13643921E+03  d E =-.226426E+01
       N       E                     dE             d eps       ncg     rms          rms(c)
DAV:   1    -0.137997299867E+03   -0.15523E+01   -0.80063E+01  2790   0.371E+01    0.446E+00
DAV:   2    -0.137850045537E+03    0.14725E+00   -0.25760E+00  2955   0.710E+00    0.256E+00
DAV:   3    -0.137826797567E+03    0.23248E-01   -0.11803E+00  3395   0.336E+00    0.202E+00
DAV:   4    -0.137732068337E+03    0.94729E-01   -0.17580E-01  3345   0.227E+00    0.771E-01
DAV:   5    -0.137727794754E+03    0.42736E-02   -0.13869E-01  2975   0.158E+00    0.519E-01
DAV:   6    -0.137723965293E+03    0.38295E-02   -0.15568E-02  3075   0.504E-01    0.359E-01
DAV:   7    -0.137722100966E+03    0.18643E-02   -0.10743E-02  3010   0.378E-01    0.136E-01
DAV:   8    -0.137721749387E+03    0.35158E-03   -0.23816E-03  3180   0.206E-01    0.968E-02
DAV:   9    -0.137721676940E+03    0.72446E-04   -0.73963E-04  3175   0.122E-01    0.478E-02
DAV:  10    -0.137721652554E+03    0.24387E-04   -0.25602E-04  3040   0.650E-02    0.262E-02
DAV:  11    -0.137721649676E+03    0.28777E-05   -0.44937E-05  2850   0.307E-02
   4 F= -.13772165E+03 E0= -.13771709E+03  d E =-.127666E+01
       N       E                     dE             d eps       ncg     rms          rms(c)
DAV:   1    -0.135948988515E+03    0.17727E+01   -0.74065E+02  2810   0.113E+02    0.138E+01
DAV:   2    -0.136734704343E+03   -0.78572E+00   -0.41794E+01  3070   0.183E+01    0.913E+00
DAV:   3    -0.135312158796E+03    0.14225E+01   -0.46494E+00  3175   0.841E+00    0.373E+00
DAV:   4    -0.134988325935E+03    0.32383E+00   -0.69784E-01  3175   0.420E+00    0.144E+00
DAV:   5    -0.134932057006E+03    0.56269E-01   -0.26565E-01  3340   0.248E+00    0.436E-01
DAV:   6    -0.134929598785E+03    0.24582E-02   -0.50450E-02  3120   0.872E-01    0.356E-01
DAV:   7    -0.134924638925E+03    0.49599E-02   -0.11774E-02  3590   0.588E-01    0.162E-01
DAV:   8    -0.134921858229E+03    0.27807E-02   -0.44345E-03  3390   0.505E-01    0.104E-01
DAV:   9    -0.134921200697E+03    0.65753E-03   -0.34717E-03  3295   0.358E-01    0.670E-02
DAV:  10    -0.134920852285E+03    0.34841E-03   -0.73546E-04  3510   0.204E-01    0.529E-02
DAV:  11    -0.134920573729E+03    0.27856E-03   -0.62453E-04  3670   0.194E-01    0.124E-02
DAV:  12    -0.134920577660E+03   -0.39314E-05   -0.37120E-04  3195   0.885E-02    0.168E-02
DAV:  13    -0.134920569644E+03    0.80161E-05   -0.55595E-05  3055   0.366E-02
   5 F= -.13492057E+03 E0= -.13491816E+03  d E =0.152442E+01
       N       E                     dE             d eps       ncg     rms          rms(c)
DAV:   1    -0.138881644014E+03   -0.39611E+01   -0.56852E+02  2845   0.985E+01    0.127E+01
DAV:   2    -0.139390319514E+03   -0.50868E+00   -0.35019E+01  3080   0.200E+01    0.681E+00
DAV:   3    -0.138426423885E+03    0.96390E+00   -0.12224E+00  3320   0.657E+00    0.406E+00
DAV:   4    -0.138082099875E+03    0.34432E+00   -0.12012E+00  3120   0.558E+00    0.130E+00
DAV:   5    -0.138045097201E+03    0.37003E-01   -0.40475E-01  3070   0.247E+00    0.776E-01
DAV:   6    -0.138035667118E+03    0.94301E-02   -0.82396E-02  3085   0.112E+00    0.380E-01
DAV:   7    -0.138032973447E+03    0.26937E-02   -0.90512E-03  3555   0.566E-01    0.211E-01
DAV:   8    -0.138031089536E+03    0.18839E-02   -0.41650E-03  3210   0.414E-01    0.820E-02
DAV:   9    -0.138030701406E+03    0.38813E-03   -0.27689E-03  3305   0.307E-01    0.635E-02
DAV:  10    -0.138030646926E+03    0.54479E-04   -0.72426E-04  3140   0.138E-01    0.518E-02
DAV:  11    -0.138030578484E+03    0.68442E-04   -0.10053E-04  3155   0.517E-02    0.331E-02
DAV:  12    -0.138030488386E+03    0.90098E-04   -0.22865E-04  3265   0.124E-01    0.214E-02
DAV:  13    -0.138030480324E+03    0.80617E-05   -0.10466E-04  2805   0.527E-02    0.110E-02
DAV:  14    -0.138030477721E+03    0.26032E-05   -0.64195E-05  2675   0.492E-02
   6 F= -.13803048E+03 E0= -.13802772E+03  d E =-.158549E+01
       N       E                     dE             d eps       ncg     rms          rms(c)
DAV:   1    -0.138852934318E+03   -0.82245E+00   -0.12965E+02  2780   0.488E+01    0.546E+00
DAV:   2    -0.138876103387E+03   -0.23169E-01   -0.57716E+00  3020   0.781E+00    0.344E+00
DAV:   3    -0.138660833901E+03    0.21527E+00   -0.43931E-01  3275   0.313E+00    0.157E+00
DAV:   4    -0.138597276778E+03    0.63557E-01   -0.15721E-01  3140   0.204E+00    0.509E-01
DAV:   5    -0.138592882124E+03    0.43947E-02   -0.55074E-02  3150   0.100E+00    0.240E-01
DAV:   6    -0.138591713584E+03    0.11685E-02   -0.10062E-02  3090   0.306E-01    0.178E-01
DAV:   7    -0.138590913294E+03    0.80029E-03   -0.26203E-03  3215   0.240E-01    0.885E-02
DAV:   8    -0.138590488201E+03    0.42509E-03   -0.64870E-04  3475   0.231E-01    0.383E-02
DAV:   9    -0.138590356858E+03    0.13134E-03   -0.42569E-04  3415   0.168E-01    0.253E-02
DAV:  10    -0.138590318532E+03    0.38326E-04   -0.23376E-04  3305   0.109E-01    0.133E-02
DAV:  11    -0.138590304419E+03    0.14113E-04   -0.64781E-05  3025   0.519E-02    0.950E-03
DAV:  12    -0.138590292378E+03    0.12041E-04   -0.14497E-05  2055   0.425E-02    0.329E-03
DAV:  13    -0.138590290919E+03    0.14589E-05   -0.17710E-05  1850   0.262E-02
   7 F= -.13859029E+03 E0= -.13858872E+03  d E =-.214530E+01
       N       E                     dE             d eps       ncg     rms          rms(c)
DAV:   1    -0.138657656227E+03   -0.67364E-01   -0.11484E+01  2815   0.144E+01    0.163E+00
DAV:   2    -0.138651793312E+03    0.58629E-02   -0.46468E-01  3025   0.239E+00    0.945E-01
DAV:   3    -0.138633035334E+03    0.18758E-01   -0.28505E-02  3210   0.853E-01    0.438E-01
DAV:   4    -0.138628146776E+03    0.48886E-02   -0.20334E-02  3155   0.671E-01    0.135E-01
DAV:   5    -0.138627790418E+03    0.35636E-03   -0.74147E-03  3085   0.288E-01    0.924E-02
DAV:   6    -0.138627612076E+03    0.17834E-03   -0.81118E-04  3065   0.992E-02    0.496E-02
DAV:   7    -0.138627534812E+03    0.77264E-04   -0.13653E-04  3405   0.702E-02    0.259E-02
DAV:   8    -0.138627485890E+03    0.48922E-04   -0.72680E-05  3425   0.759E-02    0.986E-03
DAV:   9    -0.138627479060E+03    0.68295E-05   -0.42940E-05  2870   0.407E-02
   8 F= -.13862748E+03 E0= -.13862520E+03  d E =-.218249E+01
       N       E                     dE             d eps       ncg     rms          rms(c)
DAV:   1    -0.139480493923E+03   -0.85301E+00   -0.16477E+02  2770   0.542E+01    0.312E+00
DAV:   2    -0.139984869398E+03   -0.50438E+00   -0.64161E+00  3010   0.794E+00    0.236E+00
DAV:   3    -0.139899149261E+03    0.85720E-01   -0.13030E-01  3360   0.169E+00    0.137E+00
DAV:   4    -0.139852735819E+03    0.46413E-01   -0.17097E-01  3125   0.193E+00    0.435E-01
DAV:   5    -0.139847377626E+03    0.53582E-02   -0.36194E-02  3180   0.989E-01    0.188E-01
DAV:   6    -0.139845730812E+03    0.16468E-02   -0.68145E-03  3140   0.351E-01    0.142E-01
DAV:   7    -0.139844503540E+03    0.12273E-02   -0.14541E-03  3455   0.257E-01    0.804E-02
DAV:   8    -0.139843304689E+03    0.11989E-02   -0.12494E-03  3455   0.242E-01    0.544E-02
DAV:   9    -0.139842069016E+03    0.12357E-02   -0.91392E-04  3595   0.291E-01    0.518E-02
DAV:  10    -0.139841409336E+03    0.65968E-03   -0.85180E-04  3295   0.241E-01    0.582E-02
DAV:  11    -0.139840807367E+03    0.60197E-03   -0.89630E-04  3635   0.283E-01    0.273E-02
DAV:  12    -0.139840399591E+03    0.40778E-03   -0.89857E-04  3615   0.302E-01    0.298E-02
DAV:  13    -0.139840113043E+03    0.28655E-03   -0.41597E-04  3600   0.236E-01    0.214E-02
DAV:  14    -0.139839803967E+03    0.30908E-03   -0.40851E-04  4095   0.315E-01    0.267E-02
DAV:  15    -0.139839661955E+03    0.14201E-03   -0.55833E-04  3960   0.334E-01    0.175E-02
DAV:  16    -0.139839713087E+03   -0.51132E-04   -0.75552E-04  3010   0.139E-01    0.130E-02
DAV:  17    -0.139839719165E+03   -0.60786E-05   -0.10504E-04  2850   0.396E-02    0.171E-02
DAV:  18    -0.139839715211E+03    0.39540E-05   -0.12274E-05  1620   0.131E-02
   9 F= -.13983972E+03 E0= -.13983702E+03  d E =-.121224E+01
       N       E                     dE             d eps       ncg     rms          rms(c)
DAV:   1    -0.139896188464E+03   -0.56469E-01   -0.14058E+01  2750   0.157E+01    0.951E-01
DAV:   2    -0.139923627201E+03   -0.27439E-01   -0.42788E-01  3035   0.224E+00    0.596E-01
DAV:   3    -0.139915817785E+03    0.78094E-02   -0.87344E-03  3430   0.529E-01    0.327E-01
DAV:   4    -0.139911332990E+03    0.44848E-02   -0.10318E-02  3140   0.550E-01    0.955E-02
DAV:   5    -0.139910483708E+03    0.84928E-03   -0.32810E-03  3130   0.288E-01    0.596E-02
DAV:   6    -0.139910090123E+03    0.39358E-03   -0.45713E-04  3185   0.108E-01    0.510E-02
DAV:   7    -0.139909465036E+03    0.62509E-03   -0.44945E-04  3705   0.187E-01    0.310E-02
DAV:   8    -0.139908761833E+03    0.70320E-03   -0.48486E-04  3410   0.209E-01    0.370E-02
DAV:   9    -0.139908403802E+03    0.35803E-03   -0.46301E-04  3305   0.152E-01    0.274E-02
DAV:  10    -0.139907789503E+03    0.61430E-03   -0.42738E-04  4305   0.299E-01    0.293E-02
DAV:  11    -0.139907469636E+03    0.31987E-03   -0.55962E-04  3440   0.254E-01    0.171E-02
DAV:  12    -0.139907164151E+03    0.30548E-03   -0.44031E-04  4215   0.346E-01    0.156E-02
DAV:  13    -0.139907034945E+03    0.12921E-03   -0.56954E-04  3515   0.271E-01    0.127E-02
DAV:  14    -0.139907015381E+03    0.19564E-04   -0.42987E-04  3220   0.165E-01    0.120E-02
DAV:  15    -0.139907026020E+03   -0.10640E-04   -0.18442E-04  2850   0.594E-02    0.100E-02
DAV:  16    -0.139907023402E+03    0.26182E-05   -0.12738E-05  1710   0.158E-02
  10 F= -.13990702E+03 E0= -.13990364E+03  d E =-.127954E+01
       N       E                     dE             d eps       ncg     rms          rms(c)
DAV:   1    -0.141073892868E+03   -0.11669E+01   -0.52262E+01  2860   0.320E+01    0.389E+00
DAV:   2    -0.140911085659E+03    0.16281E+00   -0.79203E-01  3195   0.362E+00    0.219E+00
DAV:   3    -0.140806426438E+03    0.10466E+00   -0.16559E-01  3275   0.187E+00    0.498E-01
DAV:   4    -0.140801547406E+03    0.48790E-02   -0.32711E-02  3205   0.755E-01    0.183E-01
DAV:   5    -0.140801026036E+03    0.52137E-03   -0.44020E-03  3120   0.297E-01    0.914E-02
DAV:   6    -0.140800836001E+03    0.19004E-03   -0.37371E-04  3405   0.131E-01    0.555E-02
DAV:   7    -0.140800614786E+03    0.22122E-03   -0.35176E-04  3820   0.174E-01    0.249E-02
DAV:   8    -0.140800559330E+03    0.55455E-04   -0.16459E-04  3225   0.849E-02    0.199E-02
DAV:   9    -0.140800507787E+03    0.51544E-04   -0.79003E-05  3110   0.806E-02    0.106E-02
DAV:  10    -0.140800446841E+03    0.60945E-04   -0.28142E-05  2740   0.975E-02    0.852E-03
DAV:  11    -0.140800386368E+03    0.60474E-04   -0.90012E-05  3375   0.123E-01    0.716E-03
DAV:  12    -0.140800350682E+03    0.35685E-04   -0.80458E-05  3025   0.107E-01    0.112E-02
DAV:  13    -0.140800330314E+03    0.20368E-04   -0.70556E-05  2835   0.803E-02    0.674E-03
DAV:  14    -0.140800317814E+03    0.12501E-04   -0.35573E-05  2745   0.554E-02    0.401E-03
DAV:  15    -0.140800296465E+03    0.21348E-04   -0.19236E-05  2385   0.773E-02    0.709E-03
DAV:  16    -0.140800294262E+03    0.22035E-05   -0.37832E-05  2735   0.376E-02
  11 F= -.14080029E+03 E0= -.14079754E+03  d E =-.893271E+00
       N       E                     dE             d eps       ncg     rms          rms(c)
DAV:   1    -0.141540690310E+03   -0.74039E+00   -0.60593E+01  2845   0.344E+01    0.417E+00
DAV:   2    -0.141355116085E+03    0.18557E+00   -0.89210E-01  3140   0.375E+00    0.238E+00
DAV:   3    -0.141230396329E+03    0.12472E+00   -0.21496E-01  3275   0.206E+00    0.537E-01
DAV:   4    -0.141224651551E+03    0.57448E-02   -0.35731E-02  3135   0.812E-01    0.201E-01
DAV:   5    -0.141224170792E+03    0.48076E-03   -0.66718E-03  3165   0.364E-01    0.980E-02
DAV:   6    -0.141223965277E+03    0.20551E-03   -0.58173E-04  3495   0.139E-01    0.600E-02
DAV:   7    -0.141223683654E+03    0.28162E-03   -0.37807E-04  3785   0.161E-01    0.296E-02
DAV:   8    -0.141223576379E+03    0.10727E-03   -0.13851E-04  3185   0.866E-02    0.237E-02
DAV:   9    -0.141223456175E+03    0.12020E-03   -0.98192E-05  3370   0.966E-02    0.135E-02
DAV:  10    -0.141223207142E+03    0.24903E-03   -0.14773E-04  4285   0.202E-01    0.224E-02
DAV:  11    -0.141222969666E+03    0.23748E-03   -0.27206E-04  3665   0.216E-01    0.132E-02
DAV:  12    -0.141222809840E+03    0.15983E-03   -0.36230E-04  3965   0.249E-01    0.252E-02
DAV:  13    -0.141222753702E+03    0.56138E-04   -0.33106E-04  3325   0.178E-01    0.186E-02
DAV:  14    -0.141222755235E+03   -0.15324E-05   -0.29077E-04  3120   0.804E-02    0.113E-02
DAV:  15    -0.141222752847E+03    0.23883E-05   -0.40494E-05  2825   0.320E-02
  12 F= -.14122275E+03 E0= -.14122071E+03  d E =-.131573E+01
       N       E                     dE             d eps       ncg     rms          rms(c)
DAV:   1    -0.141251313487E+03   -0.28558E-01   -0.26097E+00  2865   0.712E+00    0.865E-01
DAV:   2    -0.141243433626E+03    0.78799E-02   -0.38883E-02  3115   0.772E-01    0.495E-01
DAV:   3    -0.141238027198E+03    0.54064E-02   -0.76169E-03  3210   0.397E-01    0.101E-01
DAV:   4    -0.141237828115E+03    0.19908E-03   -0.13886E-03  3160   0.171E-01    0.354E-02
DAV:   5    -0.141237822973E+03    0.51419E-05   -0.26631E-04  3100   0.679E-02    0.204E-02
DAV:   6    -0.141237812989E+03    0.99841E-05   -0.28089E-05  2325   0.252E-02
  13 F= -.14123781E+03 E0= -.14123604E+03  d E =-.133079E+01
       N       E                     dE             d eps       ncg     rms          rms(c)
DAV:   1    -0.141474750986E+03   -0.23693E+00   -0.91152E+00  2770   0.128E+01    0.244E+00
DAV:   2    -0.141384679762E+03    0.90071E-01   -0.75150E-01  2995   0.324E+00    0.422E-01
DAV:   3    -0.141380215897E+03    0.44639E-02   -0.20559E-02  3095   0.602E-01    0.229E-01
DAV:   4    -0.141376773617E+03    0.34423E-02   -0.74041E-03  3210   0.452E-01    0.128E-01
DAV:   5    -0.141375739307E+03    0.10343E-02   -0.20670E-03  3185   0.255E-01    0.856E-02
DAV:   6    -0.141375053947E+03    0.68536E-03   -0.98053E-04  3180   0.168E-01    0.511E-02
DAV:   7    -0.141372947893E+03    0.21061E-02   -0.72969E-04  4050   0.347E-01    0.463E-02
DAV:   8    -0.141371123484E+03    0.18244E-02   -0.12257E-03  4030   0.392E-01    0.554E-02
DAV:   9    -0.141369213990E+03    0.19095E-02   -0.25273E-03  4030   0.621E-01    0.553E-02
DAV:  10    -0.141368295185E+03    0.91881E-03   -0.25313E-03  3585   0.540E-01    0.711E-02
DAV:  11    -0.141367555622E+03    0.73956E-03   -0.14104E-03  3940   0.543E-01    0.427E-02
DAV:  12    -0.141367544012E+03    0.11610E-04   -0.16265E-03  2990   0.188E-01    0.329E-02
DAV:  13    -0.141367491225E+03    0.52787E-04   -0.20653E-04  3150   0.816E-02    0.210E-02
DAV:  14    -0.141367422515E+03    0.68710E-04   -0.39043E-05  2915   0.881E-02    0.135E-02
DAV:  15    -0.141367330147E+03    0.92368E-04   -0.26071E-04  3990   0.226E-01    0.336E-02
DAV:  16    -0.141367339468E+03   -0.93212E-05   -0.19749E-04  2890   0.577E-02    0.333E-02
DAV:  17    -0.141367329411E+03    0.10058E-04   -0.73492E-05  2830   0.413E-02    0.220E-02
DAV:  18    -0.141367324099E+03    0.53121E-05   -0.73213E-06  1790   0.395E-02
  14 F= -.14136732E+03 E0= -.14136538E+03  d E =-.129511E+00
       N       E                     dE             d eps       ncg     rms          rms(c)
DAV:   1    -0.141430648981E+03   -0.63320E-01   -0.34361E+00  2790   0.796E+00    0.149E+00
DAV:   2    -0.141396967520E+03    0.33681E-01   -0.27965E-01  3030   0.198E+00    0.261E-01
DAV:   3    -0.141395201466E+03    0.17661E-02   -0.75077E-03  3045   0.370E-01    0.141E-01
DAV:   4    -0.141393852109E+03    0.13494E-02   -0.27747E-03  3230   0.285E-01    0.809E-02
DAV:   5    -0.141393447481E+03    0.40463E-03   -0.78092E-04  3100   0.167E-01    0.550E-02
DAV:   6    -0.141393179130E+03    0.26835E-03   -0.40459E-04  3175   0.116E-01    0.334E-02
DAV:   7    -0.141392295388E+03    0.88374E-03   -0.25927E-04  4065   0.246E-01    0.284E-02
DAV:   8    -0.141391537620E+03    0.75777E-03   -0.48118E-04  3705   0.280E-01    0.335E-02
DAV:   9    -0.141390744455E+03    0.79317E-03   -0.95707E-04  4000   0.427E-01    0.324E-02
DAV:  10    -0.141390284499E+03    0.45996E-03   -0.12628E-03  3755   0.462E-01    0.436E-02
DAV:  11    -0.141390073769E+03    0.21073E-03   -0.97596E-04  3560   0.376E-01    0.347E-02
DAV:  12    -0.141390079680E+03   -0.59115E-05   -0.79520E-04  3040   0.120E-01    0.295E-02
DAV:  13    -0.141390068543E+03    0.11138E-04   -0.85944E-05  2880   0.376E-02    0.192E-02
DAV:  14    -0.141390055886E+03    0.12657E-04   -0.41739E-06  1635   0.235E-02    0.148E-02
DAV:  15    -0.141390003089E+03    0.52798E-04   -0.22636E-04  3455   0.167E-01    0.266E-02
DAV:  16    -0.141390005474E+03   -0.23854E-05   -0.71276E-05  2590   0.309E-02
  15 F= -.14139001E+03 E0= -.14138798E+03  d E =-.152192E+00
       N       E                     dE             d eps       ncg     rms          rms(c)
DAV:   1    -0.141461239563E+03   -0.71236E-01   -0.53528E+00  2765   0.100E+01    0.115E+00
DAV:   2    -0.141449284294E+03    0.11955E-01   -0.22105E-01  3090   0.189E+00    0.339E-01
DAV:   3    -0.141447539314E+03    0.17450E-02   -0.82334E-03  3040   0.429E-01    0.169E-01
DAV:   4    -0.141447018176E+03    0.52114E-03   -0.37978E-03  3080   0.281E-01    0.813E-02
DAV:   5    -0.141446886200E+03    0.13198E-03   -0.61544E-04  3275   0.134E-01    0.386E-02
DAV:   6    -0.141446832467E+03    0.53733E-04   -0.30575E-04  3100   0.918E-02    0.253E-02
DAV:   7    -0.141446797009E+03    0.35458E-04   -0.64627E-05  3220   0.583E-02    0.160E-02
DAV:   8    -0.141446752837E+03    0.44172E-04   -0.29133E-05  2700   0.586E-02    0.806E-03
DAV:   9    -0.141446709109E+03    0.43728E-04   -0.33075E-05  2980   0.773E-02    0.832E-03
DAV:  10    -0.141446680333E+03    0.28776E-04   -0.41184E-05  2860   0.686E-02    0.699E-03
DAV:  11    -0.141446645425E+03    0.34908E-04   -0.44638E-05  3140   0.112E-01    0.124E-02
DAV:  12    -0.141446630923E+03    0.14502E-04   -0.54238E-05  2870   0.743E-02    0.110E-02
DAV:  13    -0.141446622244E+03    0.86790E-05   -0.54507E-05  2705   0.647E-02
  16 F= -.14144662E+03 E0= -.14144472E+03  d E =-.566168E-01
       N       E                     dE             d eps       ncg     rms          rms(c)
DAV:   1    -0.141465117174E+03   -0.18486E-01   -0.27622E+00  2735   0.720E+00    0.818E-01
DAV:   2    -0.141459118263E+03    0.59989E-02   -0.11044E-01  3090   0.134E+00    0.243E-01
DAV:   3    -0.141458227323E+03    0.89094E-03   -0.41766E-03  3075   0.299E-01    0.120E-01
DAV:   4    -0.141457953024E+03    0.27430E-03   -0.18059E-03  3065   0.195E-01    0.570E-02
DAV:   5    -0.141457886213E+03    0.66810E-04   -0.30116E-04  3210   0.895E-02    0.271E-02
DAV:   6    -0.141457853212E+03    0.33002E-04   -0.15597E-04  3115   0.650E-02    0.182E-02
DAV:   7    -0.141457832032E+03    0.21180E-04   -0.27244E-05  2495   0.402E-02    0.119E-02
DAV:   8    -0.141457798236E+03    0.33796E-04   -0.23380E-05  2470   0.530E-02    0.600E-03
DAV:   9    -0.141457768198E+03    0.30039E-04   -0.22821E-05  2535   0.594E-02    0.748E-03
DAV:  10    -0.141457732607E+03    0.35591E-04   -0.37534E-05  2825   0.823E-02    0.739E-03
DAV:  11    -0.141457705727E+03    0.26880E-04   -0.58708E-05  3175   0.103E-01    0.165E-02
DAV:  12    -0.141457685407E+03    0.20319E-04   -0.85811E-05  3370   0.980E-02    0.494E-03
DAV:  13    -0.141457689669E+03   -0.42615E-05   -0.68973E-05  2605   0.345E-02
  17 F= -.14145769E+03 E0= -.14145589E+03  d E =-.676842E-01
       N       E                     dE             d eps       ncg     rms          rms(c)
DAV:   1    -0.141491194728E+03   -0.33509E-01   -0.56130E+00  2750   0.101E+01    0.383E-01
DAV:   2    -0.141500744591E+03   -0.95499E-02   -0.12492E-01  2975   0.143E+00    0.201E-01
DAV:   3    -0.141499810861E+03    0.93373E-03   -0.20735E-03  3200   0.255E-01    0.125E-01
DAV:   4    -0.141499368523E+03    0.44234E-03   -0.21388E-03  3190   0.268E-01    0.520E-02
DAV:   5    -0.141499330297E+03    0.38226E-04   -0.59202E-04  3070   0.116E-01    0.391E-02
DAV:   6    -0.141499274461E+03    0.55836E-04   -0.27528E-04  3060   0.797E-02    0.179E-02
DAV:   7    -0.141499251208E+03    0.23253E-04   -0.30245E-05  2395   0.460E-02    0.161E-02
DAV:   8    -0.141499215904E+03    0.35304E-04   -0.75533E-05  3055   0.766E-02    0.858E-03
DAV:   9    -0.141499191757E+03    0.24147E-04   -0.43460E-05  2820   0.627E-02    0.157E-02
DAV:  10    -0.141499156892E+03    0.34865E-04   -0.16690E-05  2050   0.581E-02    0.835E-03
DAV:  11    -0.141499084599E+03    0.72293E-04   -0.14740E-04  3880   0.185E-01    0.172E-02
DAV:  12    -0.141499052272E+03    0.32327E-04   -0.22986E-04  4130   0.189E-01    0.944E-03
DAV:  13    -0.141499065957E+03   -0.13685E-04   -0.16996E-04  2760   0.443E-02    0.194E-02
DAV:  14    -0.141499065589E+03    0.36741E-06   -0.34158E-06  1650   0.112E-02
  18 F= -.14149907E+03 E0= -.14149722E+03  d E =-.413759E-01
       N       E                     dE             d eps       ncg     rms          rms(c)
DAV:   1    -0.141492201205E+03    0.68648E-02   -0.50378E+01  2755   0.302E+01    0.108E+00
DAV:   2    -0.141585865545E+03   -0.93664E-01   -0.11585E+00  2980   0.434E+00    0.671E-01
DAV:   3    -0.141576374167E+03    0.94914E-02   -0.24140E-02  3170   0.801E-01    0.407E-01
DAV:   4    -0.141572584689E+03    0.37895E-02   -0.19963E-02  3140   0.776E-01    0.178E-01
DAV:   5    -0.141571918127E+03    0.66656E-03   -0.44233E-03  3055   0.327E-01    0.113E-01
DAV:   6    -0.141571433785E+03    0.48434E-03   -0.18075E-03  3185   0.236E-01    0.440E-02
DAV:   7    -0.141571320678E+03    0.11311E-03   -0.53285E-04  3035   0.118E-01    0.424E-02
DAV:   8    -0.141571118661E+03    0.20202E-03   -0.30470E-04  3740   0.154E-01    0.205E-02
DAV:   9    -0.141570920455E+03    0.19821E-03   -0.24791E-04  4110   0.185E-01    0.409E-02
DAV:  10    -0.141570795475E+03    0.12498E-03   -0.15959E-04  2950   0.962E-02    0.327E-02
DAV:  11    -0.141570419863E+03    0.37561E-03   -0.30571E-04  3815   0.265E-01    0.226E-02
DAV:  12    -0.141570044736E+03    0.37513E-03   -0.16198E-03  3715   0.637E-01    0.758E-02
DAV:  13    -0.141570026505E+03    0.18231E-04   -0.16203E-03  3095   0.194E-01    0.402E-02
DAV:  14    -0.141570027580E+03   -0.10748E-05   -0.52773E-04  2985   0.950E-02    0.247E-02
DAV:  15    -0.141570019214E+03    0.83654E-05   -0.13441E-04  2915   0.696E-02    0.132E-02
DAV:  16    -0.141570014181E+03    0.50335E-05   -0.76451E-05  3750   0.103E-01
  19 F= -.14157001E+03 E0= -.14156778E+03  d E =-.112325E+00
       N       E                     dE             d eps       ncg     rms          rms(c)
DAV:   1    -0.141566712547E+03    0.33067E-02   -0.70289E+00  2755   0.112E+01    0.425E-01
DAV:   2    -0.141578444831E+03   -0.11732E-01   -0.15411E-01  2970   0.158E+00    0.226E-01
DAV:   3    -0.141577275893E+03    0.11689E-02   -0.30350E-03  3160   0.288E-01    0.139E-01
DAV:   4    -0.141576801417E+03    0.47448E-03   -0.24390E-03  3110   0.266E-01    0.634E-02
DAV:   5    -0.141576702582E+03    0.98834E-04   -0.59354E-04  3045   0.120E-01    0.400E-02
DAV:   6    -0.141576644064E+03    0.58518E-04   -0.25680E-04  3165   0.936E-02    0.171E-02
DAV:   7    -0.141576629306E+03    0.14758E-04   -0.72279E-05  2940   0.431E-02    0.174E-02
DAV:   8    -0.141576599747E+03    0.29559E-04   -0.34918E-05  2800   0.479E-02    0.758E-03
DAV:   9    -0.141576573593E+03    0.26154E-04   -0.45991E-05  2980   0.651E-02    0.162E-02
DAV:  10    -0.141576551300E+03    0.22293E-04   -0.21005E-05  2155   0.445E-02    0.136E-02
DAV:  11    -0.141576514161E+03    0.37139E-04   -0.24809E-05  2315   0.694E-02    0.669E-03
DAV:  12    -0.141576442774E+03    0.71387E-04   -0.15355E-04  4310   0.205E-01    0.142E-02
DAV:  13    -0.141576428520E+03    0.14253E-04   -0.14468E-04  3215   0.117E-01    0.793E-03
DAV:  14    -0.141576435028E+03   -0.65077E-05   -0.10091E-04  2595   0.360E-02    0.883E-03
DAV:  15    -0.141576433227E+03    0.18012E-05   -0.62745E-06  1620   0.148E-02
  20 F= -.14157643E+03 E0= -.14157403E+03  d E =-.118744E+00
       N       E                     dE             d eps       ncg     rms          rms(c)
DAV:   1    -0.141619822216E+03   -0.43387E-01   -0.23801E+00  2760   0.685E+00    0.779E-01
DAV:   2    -0.141613083903E+03    0.67383E-02   -0.94427E-02  3125   0.122E+00    0.218E-01
DAV:   3    -0.141612137922E+03    0.94598E-03   -0.50009E-03  3050   0.310E-01    0.101E-01
DAV:   4    -0.141611729525E+03    0.40840E-03   -0.12385E-03  3055   0.191E-01    0.562E-02
DAV:   5    -0.141611423880E+03    0.30565E-03   -0.31287E-04  3845   0.166E-01    0.261E-02
DAV:   6    -0.141611223617E+03    0.20026E-03   -0.17914E-04  3535   0.133E-01    0.196E-02
DAV:   7    -0.141611039072E+03    0.18455E-03   -0.73151E-05  3555   0.130E-01    0.149E-02
DAV:   8    -0.141610644063E+03    0.39501E-03   -0.24447E-04  4525   0.307E-01    0.173E-02
DAV:   9    -0.141610541835E+03    0.10223E-03   -0.28343E-04  3075   0.131E-01    0.152E-02
DAV:  10    -0.141610352015E+03    0.18982E-03   -0.17454E-04  4105   0.249E-01    0.109E-02
DAV:  11    -0.141610233871E+03    0.11814E-03   -0.23506E-04  3510   0.245E-01    0.952E-03
DAV:  12    -0.141610237388E+03   -0.35171E-05   -0.33753E-04  3005   0.104E-01    0.962E-03
DAV:  13    -0.141610229874E+03    0.75141E-05   -0.76735E-05  2950   0.592E-02
  21 F= -.14161023E+03 E0= -.14160762E+03  d E =-.337966E-01
       N       E                     dE             d eps       ncg     rms          rms(c)
DAV:   1    -0.141629079185E+03   -0.18842E-01   -0.20928E+00  2755   0.643E+00    0.734E-01
DAV:   2    -0.141623135356E+03    0.59438E-02   -0.84589E-02  3130   0.116E+00    0.205E-01
DAV:   3    -0.141622321372E+03    0.81398E-03   -0.45765E-03  3050   0.290E-01    0.960E-02
DAV:   4    -0.141621958471E+03    0.36290E-03   -0.10649E-03  3075   0.178E-01    0.538E-02
DAV:   5    -0.141621688101E+03    0.27037E-03   -0.26704E-04  3650   0.154E-01    0.249E-02
DAV:   6    -0.141621513181E+03    0.17492E-03   -0.16340E-04  3505   0.124E-01    0.185E-02
DAV:   7    -0.141621344901E+03    0.16828E-03   -0.58181E-05  3265   0.119E-01    0.140E-02
DAV:   8    -0.141620971901E+03    0.37300E-03   -0.22774E-04  4505   0.285E-01    0.176E-02
DAV:   9    -0.141620876806E+03    0.95095E-04   -0.24815E-04  3105   0.117E-01    0.147E-02
DAV:  10    -0.141620677184E+03    0.19962E-03   -0.16388E-04  4150   0.244E-01    0.104E-02
DAV:  11    -0.141620546474E+03    0.13071E-03   -0.26802E-04  3670   0.261E-01    0.950E-03
DAV:  12    -0.141620554333E+03   -0.78592E-05   -0.34900E-04  2990   0.992E-02    0.919E-03
DAV:  13    -0.141620548089E+03    0.62439E-05   -0.65598E-05  2920   0.613E-02
  22 F= -.14162055E+03 E0= -.14161781E+03  d E =-.441149E-01
       N       E                     dE             d eps       ncg     rms          rms(c)
DAV:   1    -0.141641574107E+03   -0.21020E-01   -0.41541E+00  2825   0.893E+00    0.345E-01
DAV:   2    -0.141649399468E+03   -0.78254E-02   -0.10137E-01  3055   0.128E+00    0.204E-01
DAV:   3    -0.141648520373E+03    0.87909E-03   -0.17707E-03  3170   0.223E-01    0.132E-01
DAV:   4    -0.141648004829E+03    0.51554E-03   -0.23046E-03  3070   0.278E-01    0.531E-02
DAV:   5    -0.141647941251E+03    0.63578E-04   -0.80146E-04  3090   0.143E-01    0.461E-02
DAV:   6    -0.141647886784E+03    0.54467E-04   -0.31212E-04  3120   0.929E-02    0.191E-02
DAV:   7    -0.141647847187E+03    0.39597E-04   -0.28619E-05  2505   0.628E-02    0.125E-02
DAV:   8    -0.141647788251E+03    0.58936E-04   -0.29036E-05  2700   0.100E-01    0.121E-02
DAV:   9    -0.141647756488E+03    0.31763E-04   -0.45872E-05  2700   0.717E-02    0.118E-02
DAV:  10    -0.141647705729E+03    0.50760E-04   -0.45475E-05  3045   0.133E-01    0.659E-03
DAV:  11    -0.141647682303E+03    0.23425E-04   -0.10427E-04  3570   0.125E-01    0.112E-02
DAV:  12    -0.141647678686E+03    0.36172E-05   -0.76451E-05  2735   0.718E-02
  23 F= -.14164768E+03 E0= -.14164487E+03  d E =-.271306E-01
       N       E                     dE             d eps       ncg     rms          rms(c)
DAV:   1    -0.141642450574E+03    0.52317E-02   -0.13740E+01  2745   0.162E+01    0.624E-01
DAV:   2    -0.141669071269E+03   -0.26621E-01   -0.34053E-01  3050   0.232E+00    0.380E-01
DAV:   3    -0.141666201932E+03    0.28693E-02   -0.57350E-03  3180   0.399E-01    0.245E-01
DAV:   4    -0.141664497246E+03    0.17047E-02   -0.85885E-03  3080   0.524E-01    0.986E-02
DAV:   5    -0.141664387174E+03    0.11007E-03   -0.25722E-03  3125   0.248E-01    0.871E-02
DAV:   6    -0.141664235472E+03    0.15170E-03   -0.90496E-04  3110   0.147E-01    0.350E-02
DAV:   7    -0.141664136211E+03    0.99261E-04   -0.78560E-05  3085   0.101E-01    0.203E-02
DAV:   8    -0.141663999595E+03    0.13662E-03   -0.88605E-05  3865   0.152E-01    0.171E-02
DAV:   9    -0.141663920907E+03    0.78688E-04   -0.93654E-05  3385   0.111E-01    0.160E-02
DAV:  10    -0.141663788982E+03    0.13192E-03   -0.13566E-04  4090   0.220E-01    0.101E-02
DAV:  11    -0.141663734558E+03    0.54425E-04   -0.20514E-04  3600   0.174E-01    0.164E-02
DAV:  12    -0.141663725642E+03    0.89160E-05   -0.16517E-04  2980   0.104E-01    0.141E-02
DAV:  13    -0.141663728442E+03   -0.28004E-05   -0.10457E-04  2740   0.417E-02    0.119E-02
DAV:  14    -0.141663723927E+03    0.45147E-05   -0.11805E-05  1710   0.242E-02
  24 F= -.14166372E+03 E0= -.14166099E+03  d E =-.431758E-01
       N       E                     dE             d eps       ncg     rms          rms(c)
DAV:   1    -0.141678940078E+03   -0.15212E-01   -0.57139E+00  2770   0.103E+01    0.575E-01
DAV:   2    -0.141686148633E+03   -0.72086E-02   -0.14820E-01  3015   0.153E+00    0.215E-01
DAV:   3    -0.141685168652E+03    0.97998E-03   -0.28659E-03  3190   0.265E-01    0.127E-01
DAV:   4    -0.141684728973E+03    0.43968E-03   -0.21522E-03  3180   0.280E-01    0.525E-02
DAV:   5    -0.141684695965E+03    0.33007E-04   -0.77060E-04  3075   0.130E-01    0.464E-02
DAV:   6    -0.141684655870E+03    0.40096E-04   -0.12402E-04  3020   0.477E-02    0.265E-02
DAV:   7    -0.141684612244E+03    0.43626E-04   -0.79965E-05  2965   0.424E-02    0.123E-02
DAV:   8    -0.141684580644E+03    0.31600E-04   -0.21957E-05  2255   0.540E-02    0.137E-02
DAV:   9    -0.141684545030E+03    0.35615E-04   -0.57283E-05  2895   0.814E-02    0.840E-03
DAV:  10    -0.141684532329E+03    0.12701E-04   -0.50393E-05  2575   0.479E-02    0.118E-02
DAV:  11    -0.141684507462E+03    0.24867E-04   -0.47210E-05  2695   0.414E-02    0.111E-02
DAV:  12    -0.141684473654E+03    0.33808E-04   -0.34990E-05  2585   0.973E-02    0.190E-02
DAV:  13    -0.141684445602E+03    0.28052E-04   -0.72699E-05  2995   0.105E-01    0.805E-03
DAV:  14    -0.141684439151E+03    0.64506E-05   -0.11747E-04  2990   0.825E-02    0.120E-02
DAV:  15    -0.141684434982E+03    0.41694E-05   -0.47216E-05  2695   0.384E-02
  25 F= -.14168443E+03 E0= -.14168201E+03  d E =-.207111E-01
       N       E                     dE             d eps       ncg     rms          rms(c)
DAV:   1    -0.141685483610E+03   -0.10445E-02   -0.10914E+01  2770   0.142E+01    0.804E-01
DAV:   2    -0.141699356542E+03   -0.13873E-01   -0.28771E-01  3015   0.212E+00    0.298E-01
DAV:   3    -0.141697482825E+03    0.18737E-02   -0.52906E-03  3170   0.367E-01    0.177E-01
DAV:   4    -0.141696579267E+03    0.90356E-03   -0.42241E-03  3190   0.406E-01    0.724E-02
DAV:   5    -0.141696542590E+03    0.36677E-04   -0.16207E-03  3075   0.185E-01    0.679E-02
DAV:   6    -0.141696461075E+03    0.81515E-04   -0.22105E-04  3040   0.639E-02    0.413E-02
DAV:   7    -0.141696359364E+03    0.10171E-03   -0.15091E-04  3040   0.587E-02    0.174E-02
DAV:   8    -0.141696269662E+03    0.89702E-04   -0.88790E-05  3305   0.897E-02    0.236E-02
DAV:   9    -0.141696179284E+03    0.90378E-04   -0.14285E-04  3765   0.125E-01    0.169E-02
DAV:  10    -0.141696139146E+03    0.40138E-04   -0.11300E-04  2980   0.768E-02    0.184E-02
DAV:  11    -0.141696044638E+03    0.94508E-04   -0.17164E-04  2920   0.992E-02    0.233E-02
DAV:  12    -0.141695920285E+03    0.12435E-03   -0.14264E-04  3650   0.217E-01    0.306E-02
DAV:  13    -0.141695842189E+03    0.78096E-04   -0.46095E-04  4360   0.252E-01    0.127E-02
DAV:  14    -0.141695842709E+03   -0.52014E-06   -0.31798E-04  3130   0.102E-01    0.209E-02
DAV:  15    -0.141695829633E+03    0.13076E-04   -0.10508E-04  2970   0.588E-02    0.927E-03
DAV:  16    -0.141695828005E+03    0.16275E-05   -0.27457E-05  2295   0.234E-02
  26 F= -.14169583E+03 E0= -.14169377E+03  d E =-.321041E-01
       N       E                     dE             d eps       ncg     rms          rms(c)
DAV:   1    -0.141706125129E+03   -0.10295E-01   -0.98784E-01  2765   0.438E+00    0.358E-01
DAV:   2    -0.141706341655E+03   -0.21653E-03   -0.28707E-02  3125   0.684E-01    0.172E-01
DAV:   3    -0.141705658923E+03    0.68273E-03   -0.11484E-03  3235   0.195E-01    0.874E-02
DAV:   4    -0.141705370193E+03    0.28873E-03   -0.78894E-04  3170   0.170E-01    0.274E-02
DAV:   5    -0.141705321245E+03    0.48949E-04   -0.28726E-04  3120   0.929E-02    0.213E-02
DAV:   6    -0.141705280552E+03    0.40692E-04   -0.88616E-05  3095   0.553E-02    0.129E-02
DAV:   7    -0.141705239755E+03    0.40798E-04   -0.96987E-06  2025   0.482E-02    0.889E-03
DAV:   8    -0.141705172012E+03    0.67743E-04   -0.54816E-05  3475   0.988E-02    0.665E-03
DAV:   9    -0.141705104360E+03    0.67651E-04   -0.80526E-05  3645   0.146E-01    0.812E-03
DAV:  10    -0.141705078644E+03    0.25716E-04   -0.10344E-04  3440   0.117E-01    0.833E-03
DAV:  11    -0.141705074582E+03    0.40620E-05   -0.76214E-05  2730   0.547E-02
  27 F= -.14170507E+03 E0= -.14170283E+03  d E =-.924658E-02
       N       E                     dE             d eps       ncg     rms          rms(c)
DAV:   1    -0.141706632597E+03   -0.15540E-02   -0.28013E-01  2795   0.233E+00    0.189E-01
DAV:   2    -0.141706717637E+03   -0.85041E-04   -0.80248E-03  3135   0.357E-01    0.914E-02
DAV:   3    -0.141706522281E+03    0.19536E-03   -0.28190E-04  3185   0.976E-02    0.459E-02
DAV:   4    -0.141706439031E+03    0.83250E-04   -0.22006E-04  3160   0.937E-02    0.143E-02
DAV:   5    -0.141706423853E+03    0.15178E-04   -0.84315E-05  3100   0.484E-02    0.114E-02
DAV:   6    -0.141706407841E+03    0.16013E-04   -0.18664E-05  1870   0.283E-02    0.602E-03
DAV:   7    -0.141706389139E+03    0.18701E-04   -0.36661E-06  1905   0.349E-02    0.511E-03
DAV:   8    -0.141706353823E+03    0.35317E-04   -0.19527E-05  2505   0.762E-02    0.455E-03
DAV:   9    -0.141706317331E+03    0.36491E-04   -0.55760E-05  3385   0.116E-01    0.497E-03
DAV:  10    -0.141706302721E+03    0.14610E-04   -0.53407E-05  3030   0.920E-02    0.469E-03
DAV:  11    -0.141706303751E+03   -0.10299E-05   -0.52259E-05  2640   0.350E-02
  28 F= -.14170630E+03 E0= -.14170390E+03  d E =-.104757E-01
       N       E                     dE             d eps       ncg     rms          rms(c)
DAV:   1    -0.141711890290E+03   -0.55876E-02   -0.82042E-01  2785   0.401E+00    0.265E-01
DAV:   2    -0.141712824930E+03   -0.93464E-03   -0.20993E-02  3115   0.586E-01    0.157E-01
DAV:   3    -0.141712325916E+03    0.49901E-03   -0.48823E-04  3175   0.140E-01    0.858E-02
DAV:   4    -0.141712145418E+03    0.18050E-03   -0.87759E-04  3305   0.166E-01    0.299E-02
DAV:   5    -0.141712144113E+03    0.13052E-05   -0.23595E-04  3080   0.694E-02    0.280E-02
DAV:   6    -0.141712131432E+03    0.12681E-04   -0.60077E-05  2790   0.338E-02    0.121E-02
DAV:   7    -0.141712121765E+03    0.96671E-05   -0.12064E-05  1865   0.322E-02
  29 F= -.14171212E+03 E0= -.14170911E+03  d E =-.581801E-02
       N       E                     dE             d eps       ncg     rms          rms(c)
DAV:   1    -0.141712781752E+03   -0.65032E-03   -0.28605E-01  2795   0.237E+00    0.155E-01
DAV:   2    -0.141713109693E+03   -0.32794E-03   -0.73013E-03  3115   0.347E-01    0.935E-02
DAV:   3    -0.141712926200E+03    0.18349E-03   -0.19126E-04  3210   0.883E-02    0.503E-02
DAV:   4    -0.141712848761E+03    0.77439E-04   -0.25300E-04  3320   0.998E-02    0.163E-02
DAV:   5    -0.141712846183E+03    0.25783E-05   -0.10220E-04  2925   0.516E-02    0.145E-02
DAV:   6    -0.141712838736E+03    0.74466E-05   -0.38558E-05  2690   0.337E-02
  30 F= -.14171284E+03 E0= -.14170931E+03  d E =-.653498E-02
       N       E                     dE             d eps       ncg     rms          rms(c)
DAV:   1    -0.141715866558E+03   -0.30204E-02   -0.38634E-01  2775   0.276E+00    0.177E-01
DAV:   2    -0.141716328541E+03   -0.46198E-03   -0.10630E-02  3040   0.411E-01    0.850E-02
DAV:   3    -0.141716181547E+03    0.14699E-03   -0.21480E-04  3280   0.776E-02    0.453E-02
DAV:   4    -0.141716112813E+03    0.68735E-04   -0.16357E-04  3140   0.798E-02    0.131E-02
DAV:   5    -0.141716107317E+03    0.54956E-05   -0.66447E-05  2910   0.441E-02    0.116E-02
DAV:   6    -0.141716100427E+03    0.68901E-05   -0.15164E-05  1705   0.247E-02
  31 F= -.14171610E+03 E0= -.14171218E+03  d E =-.326169E-02
       N       E                     dE             d eps       ncg     rms          rms(c)
DAV:   1    -0.141717796362E+03   -0.16890E-02   -0.19108E+00  2745   0.613E+00    0.391E-01
DAV:   2    -0.141720155905E+03   -0.23595E-02   -0.52509E-02  3040   0.909E-01    0.190E-01
DAV:   3    -0.141719434133E+03    0.72177E-03   -0.11027E-03  3280   0.167E-01    0.100E-01
DAV:   4    -0.141719140745E+03    0.29339E-03   -0.84741E-04  3155   0.154E-01    0.303E-02
DAV:   5    -0.141719118498E+03    0.22246E-04   -0.24359E-04  3140   0.808E-02    0.228E-02
DAV:   6    -0.141719096207E+03    0.22292E-04   -0.65599E-05  2960   0.479E-02    0.127E-02
DAV:   7    -0.141719080615E+03    0.15592E-04   -0.63725E-06  1740   0.312E-02    0.893E-03
DAV:   8    -0.141719040880E+03    0.39735E-04   -0.13214E-05  2260   0.791E-02    0.480E-03
DAV:   9    -0.141719011965E+03    0.28915E-04   -0.34575E-05  2625   0.711E-02    0.651E-03
DAV:  10    -0.141718977778E+03    0.34187E-04   -0.29720E-05  2745   0.110E-01    0.564E-03
DAV:  11    -0.141718957103E+03    0.20675E-04   -0.70260E-05  3440   0.132E-01    0.519E-03
DAV:  12    -0.141718962005E+03   -0.49026E-05   -0.88815E-05  2620   0.462E-02
  32 F= -.14171896E+03 E0= -.14171423E+03  d E =-.612327E-02
       N       E                     dE             d eps       ncg     rms          rms(c)
DAV:   1    -0.141720842653E+03   -0.18856E-02   -0.17102E-01  2760   0.183E+00    0.711E-02
DAV:   2    -0.141721136888E+03   -0.29424E-03   -0.37816E-03  3090   0.254E-01    0.331E-02
DAV:   3    -0.141721114917E+03    0.21971E-04   -0.66741E-05  3200   0.431E-02    0.211E-02
DAV:   4    -0.141721099925E+03    0.14993E-04   -0.38063E-05  2755   0.377E-02    0.899E-03
DAV:   5    -0.141721095027E+03    0.48971E-05   -0.14438E-05  1800   0.292E-02    0.589E-03
DAV:   6    -0.141721093248E+03    0.17799E-05   -0.11518E-05  1645   0.197E-02
  33 F= -.14172109E+03 E0= -.14171622E+03  d E =-.213124E-02
       N       E                     dE             d eps       ncg     rms          rms(c)
DAV:   1    -0.141723411298E+03   -0.23163E-02   -0.15397E+00  2740   0.548E+00    0.211E-01
DAV:   2    -0.141726140159E+03   -0.27289E-02   -0.34087E-02  3070   0.758E-01    0.967E-02
DAV:   3    -0.141725955807E+03    0.18435E-03   -0.50992E-04  3240   0.116E-01    0.619E-02
DAV:   4    -0.141725842722E+03    0.11309E-03   -0.35217E-04  3240   0.112E-01    0.256E-02
DAV:   5    -0.141725820469E+03    0.22253E-04   -0.15328E-04  3230   0.756E-02    0.181E-02
DAV:   6    -0.141725805537E+03    0.14932E-04   -0.77497E-05  2945   0.552E-02    0.118E-02
DAV:   7    -0.141725793111E+03    0.12426E-04   -0.89570E-06  1820   0.334E-02    0.780E-03
DAV:   8    -0.141725776758E+03    0.16353E-04   -0.66207E-06  1920   0.441E-02    0.458E-03
DAV:   9    -0.141725755050E+03    0.21708E-04   -0.23872E-05  2575   0.761E-02    0.683E-03
DAV:  10    -0.141725741792E+03    0.13258E-04   -0.24348E-05  2500   0.733E-02    0.533E-03
DAV:  11    -0.141725736137E+03    0.56548E-05   -0.36703E-05  2735   0.769E-02
  34 F= -.14172574E+03 E0= -.14172051E+03  d E =-.677413E-02
       N       E                     dE             d eps       ncg     rms          rms(c)
DAV:   1    -0.141718044474E+03    0.76973E-02   -0.61552E+00  2730   0.109E+01    0.412E-01
DAV:   2    -0.141728991387E+03   -0.10947E-01   -0.13466E-01  3040   0.150E+00    0.195E-01
DAV:   3    -0.141728274322E+03    0.71707E-03   -0.20171E-03  3245   0.223E-01    0.123E-01
DAV:   4    -0.141727887661E+03    0.38666E-03   -0.13652E-03  3230   0.209E-01    0.508E-02
DAV:   5    -0.141727832726E+03    0.54935E-04   -0.55794E-04  3205   0.131E-01    0.336E-02
DAV:   6    -0.141727795157E+03    0.37569E-04   -0.22930E-04  3240   0.903E-02    0.213E-02
DAV:   7    -0.141727767910E+03    0.27248E-04   -0.29574E-05  2575   0.482E-02    0.139E-02
DAV:   8    -0.141727728118E+03    0.39791E-04   -0.20744E-05  2235   0.670E-02    0.703E-03
DAV:   9    -0.141727686844E+03    0.41274E-04   -0.37852E-05  2955   0.917E-02    0.879E-03
DAV:  10    -0.141727653824E+03    0.33021E-04   -0.51210E-05  3150   0.109E-01    0.558E-03
DAV:  11    -0.141727636053E+03    0.17771E-04   -0.56143E-05  3295   0.116E-01    0.582E-03
DAV:  12    -0.141727637457E+03   -0.14043E-05   -0.72297E-05  2600   0.560E-02
  35 F= -.14172764E+03 E0= -.14172216E+03  d E =-.867545E-02
       N       E                     dE             d eps       ncg     rms          rms(c)
DAV:   1    -0.141727201413E+03    0.43464E-03   -0.56528E-01  2740   0.332E+00    0.131E-01
DAV:   2    -0.141728199879E+03   -0.99847E-03   -0.12643E-02  3040   0.461E-01    0.587E-02
DAV:   3    -0.141728132532E+03    0.67348E-04   -0.18159E-04  3225   0.681E-02    0.377E-02
DAV:   4    -0.141728095090E+03    0.37441E-04   -0.14255E-04  3185   0.673E-02    0.150E-02
DAV:   5    -0.141728091729E+03    0.33609E-05   -0.55498E-05  3065   0.397E-02    0.111E-02
DAV:   6    -0.141728088347E+03    0.33825E-05   -0.25410E-05  2185   0.297E-02
  36 F= -.14172809E+03 E0= -.14172262E+03  d E =-.912634E-02
       N       E                     dE             d eps       ncg     rms          rms(c)
DAV:   1    -0.141729723239E+03   -0.16315E-02   -0.24677E-01  2740   0.218E+00    0.751E-02
DAV:   2    -0.141730198621E+03   -0.47538E-03   -0.53970E-03  2970   0.301E-01    0.367E-02
DAV:   3    -0.141730171345E+03    0.27276E-04   -0.68469E-05  3310   0.399E-02    0.247E-02
DAV:   4    -0.141730153084E+03    0.18261E-04   -0.62647E-05  2985   0.482E-02    0.948E-03
DAV:   5    -0.141730152382E+03    0.70176E-06   -0.25220E-05  2285   0.247E-02    0.768E-03
DAV:   6    -0.141730150815E+03    0.15671E-05   -0.77960E-06  1585   0.149E-02
  37 F= -.14173015E+03 E0= -.14172467E+03  d E =-.206247E-02
       N       E                     dE             d eps       ncg     rms          rms(c)
DAV:   1    -0.141732128970E+03   -0.19766E-02   -0.22183E+00  2730   0.655E+00    0.230E-01
DAV:   2    -0.141736455367E+03   -0.43264E-02   -0.49067E-02  2965   0.902E-01    0.110E-01
DAV:   3    -0.141736216170E+03    0.23920E-03   -0.56310E-04  3360   0.116E-01    0.730E-02
DAV:   4    -0.141736069028E+03    0.14714E-03   -0.58483E-04  3150   0.140E-01    0.264E-02
DAV:   5    -0.141736071247E+03   -0.22197E-05   -0.21406E-04  3095   0.611E-02    0.219E-02
DAV:   6    -0.141736061104E+03    0.10143E-04   -0.54022E-05  2800   0.318E-02    0.968E-03
DAV:   7    -0.141736054082E+03    0.70224E-05   -0.84457E-06  1715   0.186E-02
  38 F= -.14173605E+03 E0= -.14173064E+03  d E =-.796574E-02
       N       E                     dE             d eps       ncg     rms          rms(c)
DAV:   1    -0.141730598993E+03    0.54621E-02   -0.88707E+00  2740   0.131E+01    0.467E-01
DAV:   2    -0.141748077604E+03   -0.17479E-01   -0.19990E-01  2985   0.181E+00    0.222E-01
DAV:   3    -0.141747085763E+03    0.99184E-03   -0.21536E-03  3340   0.230E-01    0.148E-01
DAV:   4    -0.141746457183E+03    0.62858E-03   -0.26184E-03  3160   0.298E-01    0.526E-02
DAV:   5    -0.141746471102E+03   -0.13918E-04   -0.94098E-04  3115   0.126E-01    0.459E-02
DAV:   6    -0.141746423730E+03    0.47372E-04   -0.20423E-04  3065   0.617E-02    0.200E-02
DAV:   7    -0.141746385626E+03    0.38104E-04   -0.37971E-05  2720   0.405E-02    0.159E-02
DAV:   8    -0.141746349094E+03    0.36532E-04   -0.15838E-05  2215   0.400E-02    0.136E-02
DAV:   9    -0.141746302834E+03    0.46260E-04   -0.26677E-05  2505   0.564E-02    0.926E-03
DAV:  10    -0.141746224888E+03    0.77947E-04   -0.53120E-05  3465   0.108E-01    0.731E-03
DAV:  11    -0.141746130821E+03    0.94067E-04   -0.18106E-04  3850   0.213E-01    0.104E-02
DAV:  12    -0.141746131940E+03   -0.11192E-05   -0.20972E-04  2920   0.878E-02    0.877E-03
DAV:  13    -0.141746131243E+03    0.69668E-06   -0.55981E-05  2690   0.360E-02
  39 F= -.14174613E+03 E0= -.14174122E+03  d E =-.180429E-01
       N       E                     dE             d eps       ncg     rms          rms(c)
DAV:   1    -0.141692825916E+03    0.53306E-01   -0.35455E+01  2730   0.262E+01    0.970E-01
DAV:   2    -0.141765509943E+03   -0.72684E-01   -0.84532E-01  2985   0.369E+00    0.468E-01
DAV:   3    -0.141761182597E+03    0.43273E-02   -0.88638E-03  3320   0.476E-01    0.309E-01
DAV:   4    -0.141758741991E+03    0.24406E-02   -0.13076E-02  3170   0.641E-01    0.115E-01
DAV:   5    -0.141758850302E+03   -0.10831E-03   -0.39934E-03  3130   0.257E-01    0.100E-01
DAV:   6    -0.141758704671E+03    0.14563E-03   -0.87417E-04  3055   0.126E-01    0.431E-02
DAV:   7    -0.141758641001E+03    0.63671E-04   -0.13421E-04  3195   0.599E-02    0.256E-02
DAV:   8    -0.141758566361E+03    0.74640E-04   -0.42769E-05  2890   0.641E-02    0.193E-02
DAV:   9    -0.141758492346E+03    0.74015E-04   -0.52620E-05  3180   0.725E-02    0.127E-02
DAV:  10    -0.141758419867E+03    0.72479E-04   -0.35969E-05  2765   0.722E-02    0.986E-03
DAV:  11    -0.141758215145E+03    0.20472E-03   -0.21567E-04  3990   0.250E-01    0.204E-02
DAV:  12    -0.141758172334E+03    0.42811E-04   -0.24981E-04  3070   0.127E-01    0.197E-02
DAV:  13    -0.141758156940E+03    0.15394E-04   -0.17332E-04  3005   0.700E-02    0.882E-03
DAV:  14    -0.141758139317E+03    0.17622E-04   -0.23459E-05  2445   0.795E-02    0.627E-03
DAV:  15    -0.141758126404E+03    0.12913E-04   -0.27476E-05  2435   0.775E-02    0.479E-03
DAV:  16    -0.141758124641E+03    0.17631E-05   -0.38138E-05  2630   0.418E-02
  40 F= -.14175812E+03 E0= -.14175459E+03  d E =-.300363E-01
       N       E                     dE             d eps       ncg     rms          rms(c)
DAV:   1    -0.141749308376E+03    0.88180E-02   -0.54764E+00  2730   0.103E+01    0.359E-01
DAV:   2    -0.141759969427E+03   -0.10661E-01   -0.12100E-01  3025   0.141E+00    0.173E-01
DAV:   3    -0.141759350802E+03    0.61862E-03   -0.11639E-03  3310   0.173E-01    0.115E-01
DAV:   4    -0.141758991956E+03    0.35885E-03   -0.16059E-03  3195   0.236E-01    0.382E-02
DAV:   5    -0.141759021064E+03   -0.29108E-04   -0.60781E-04  3110   0.976E-02    0.373E-02
DAV:   6    -0.141759000781E+03    0.20284E-04   -0.91454E-05  3015   0.420E-02    0.180E-02
DAV:   7    -0.141758991938E+03    0.88427E-05   -0.34449E-05  2545   0.274E-02
  41 F= -.14175899E+03 E0= -.14175575E+03  d E =-.309036E-01
       N       E                     dE             d eps       ncg     rms          rms(c)
DAV:   1    -0.141761798502E+03   -0.27977E-02   -0.65012E+00  2730   0.112E+01    0.586E-01
DAV:   2    -0.141771806435E+03   -0.10008E-01   -0.16579E-01  3035   0.161E+00    0.216E-01
DAV:   3    -0.141770884450E+03    0.92198E-03   -0.29471E-03  3320   0.259E-01    0.134E-01
DAV:   4    -0.141770460277E+03    0.42417E-03   -0.21883E-03  3130   0.233E-01    0.565E-02
DAV:   5    -0.141770433347E+03    0.26930E-04   -0.55274E-04  3115   0.111E-01    0.381E-02
DAV:   6    -0.141770408568E+03    0.24779E-04   -0.27932E-04  3110   0.829E-02    0.215E-02
DAV:   7    -0.141770392200E+03    0.16367E-04   -0.31595E-05  2600   0.435E-02    0.182E-02
DAV:   8    -0.141770367870E+03    0.24330E-04   -0.21572E-05  2375   0.514E-02    0.922E-03
DAV:   9    -0.141770352676E+03    0.15195E-04   -0.22671E-05  2255   0.443E-02    0.482E-03
DAV:  10    -0.141770334689E+03    0.17987E-04   -0.89268E-06  2075   0.578E-02    0.753E-03
DAV:  11    -0.141770301579E+03    0.33110E-04   -0.66027E-05  3515   0.148E-01    0.953E-03
DAV:  12    -0.141770301813E+03   -0.23442E-06   -0.73768E-05  2710   0.484E-02
  42 F= -.14177030E+03 E0= -.14176731E+03  d E =-.113099E-01
       N       E                     dE             d eps       ncg     rms          rms(c)
DAV:   1    -0.141756404461E+03    0.13897E-01   -0.13983E+01  2730   0.164E+01    0.883E-01
DAV:   2    -0.141778312691E+03   -0.21908E-01   -0.36980E-01  3045   0.239E+00    0.321E-01
DAV:   3    -0.141776310246E+03    0.20024E-02   -0.65059E-03  3300   0.386E-01    0.201E-01
DAV:   4    -0.141775371464E+03    0.93878E-03   -0.52498E-03  3110   0.355E-01    0.871E-02
DAV:   5    -0.141775314720E+03    0.56744E-04   -0.12462E-03  3110   0.169E-01    0.594E-02
DAV:   6    -0.141775263518E+03    0.51202E-04   -0.64600E-04  3085   0.126E-01    0.313E-02
DAV:   7    -0.141775233883E+03    0.29635E-04   -0.66674E-05  3075   0.659E-02    0.243E-02
DAV:   8    -0.141775187527E+03    0.46356E-04   -0.45397E-05  3005   0.828E-02    0.113E-02
DAV:   9    -0.141775166266E+03    0.21261E-04   -0.47705E-05  2755   0.573E-02    0.698E-03
DAV:  10    -0.141775136266E+03    0.30000E-04   -0.17315E-05  2315   0.806E-02    0.966E-03
DAV:  11    -0.141775091376E+03    0.44890E-04   -0.89568E-05  3825   0.172E-01    0.153E-02
DAV:  12    -0.141775089684E+03    0.16923E-05   -0.96978E-05  2740   0.519E-02
  43 F= -.14177509E+03 E0= -.14177229E+03  d E =-.160977E-01
       N       E                     dE             d eps       ncg     rms          rms(c)
DAV:   1    -0.141776920299E+03   -0.18289E-02   -0.58135E+00  2730   0.108E+01    0.410E-01
DAV:   2    -0.141787102643E+03   -0.10182E-01   -0.12457E-01  3085   0.146E+00    0.191E-01
DAV:   3    -0.141786487536E+03    0.61511E-03   -0.22874E-03  3255   0.227E-01    0.127E-01
DAV:   4    -0.141786128094E+03    0.35944E-03   -0.12776E-03  3235   0.201E-01    0.634E-02
DAV:   5    -0.141786023867E+03    0.10423E-03   -0.44914E-04  3350   0.122E-01    0.402E-02
DAV:   6    -0.141785961107E+03    0.62760E-04   -0.26050E-04  3120   0.883E-02    0.209E-02
DAV:   7    -0.141785922154E+03    0.38953E-04   -0.69538E-05  3090   0.473E-02    0.166E-02
DAV:   8    -0.141785873869E+03    0.48285E-04   -0.18546E-05  2285   0.446E-02    0.925E-03
DAV:   9    -0.141785787287E+03    0.86582E-04   -0.83641E-05  3480   0.101E-01    0.161E-02
DAV:  10    -0.141785727160E+03    0.60127E-04   -0.87301E-05  3430   0.997E-02    0.927E-03
DAV:  11    -0.141785677456E+03    0.49705E-04   -0.10200E-04  3845   0.137E-01    0.110E-02
DAV:  12    -0.141785662535E+03    0.14921E-04   -0.96917E-05  2950   0.830E-02    0.810E-03
DAV:  13    -0.141785657612E+03    0.49231E-05   -0.52115E-05  2660   0.363E-02
  44 F= -.14178566E+03 E0= -.14178270E+03  d E =-.105679E-01
       N       E                     dE             d eps       ncg     rms          rms(c)
DAV:   1    -0.141785453898E+03    0.20864E-03   -0.50232E-01  2770   0.317E+00    0.120E-01
DAV:   2    -0.141786336729E+03   -0.88283E-03   -0.10788E-02  3085   0.433E-01    0.564E-02
DAV:   3    -0.141786286115E+03    0.50614E-04   -0.23168E-04  3295   0.702E-02    0.379E-02
DAV:   4    -0.141786256648E+03    0.29467E-04   -0.11996E-04  3190   0.570E-02    0.197E-02
DAV:   5    -0.141786244389E+03    0.12260E-04   -0.27480E-05  2585   0.326E-02    0.120E-02
DAV:   6    -0.141786235230E+03    0.91591E-05   -0.25292E-05  2295   0.323E-02
  45 F= -.14178624E+03 E0= -.14178323E+03  d E =-.111455E-01
       N       E                     dE             d eps       ncg     rms          rms(c)
DAV:   1    -0.141792506774E+03   -0.62624E-02   -0.21785E+00  2750   0.657E+00    0.295E-01
DAV:   2    -0.141796330806E+03   -0.38240E-02   -0.54828E-02  2980   0.966E-01    0.126E-01
DAV:   3    -0.141795999083E+03    0.33172E-03   -0.88454E-04  3255   0.154E-01    0.783E-02
DAV:   4    -0.141795829674E+03    0.16941E-03   -0.75500E-04  3120   0.147E-01    0.332E-02
DAV:   5    -0.141795808189E+03    0.21485E-04   -0.21038E-04  3245   0.797E-02    0.262E-02
DAV:   6    -0.141795792708E+03    0.15481E-04   -0.93661E-05  2845   0.495E-02    0.136E-02
DAV:   7    -0.141795777268E+03    0.15440E-04   -0.64111E-06  1835   0.381E-02    0.762E-03
DAV:   8    -0.141795759438E+03    0.17830E-04   -0.12749E-05  2210   0.522E-02    0.571E-03
DAV:   9    -0.141795743956E+03    0.15482E-04   -0.15507E-05  2265   0.602E-02    0.318E-03
DAV:  10    -0.141795726498E+03    0.17458E-04   -0.29232E-05  2695   0.109E-01    0.649E-03
DAV:  11    -0.141795725483E+03    0.10149E-05   -0.55638E-05  2715   0.651E-02
  46 F= -.14179573E+03 E0= -.14179275E+03  d E =-.949025E-02
       N       E                     dE             d eps       ncg     rms          rms(c)
DAV:   1    -0.141792296504E+03    0.34300E-02   -0.68118E+00  2740   0.116E+01    0.508E-01
DAV:   2    -0.141804299756E+03   -0.12003E-01   -0.16940E-01  2980   0.170E+00    0.226E-01
DAV:   3    -0.141803237998E+03    0.10618E-02   -0.28362E-03  3240   0.275E-01    0.141E-01
DAV:   4    -0.141802687543E+03    0.55046E-03   -0.22996E-03  3130   0.257E-01    0.592E-02
DAV:   5    -0.141802605750E+03    0.81793E-04   -0.62456E-04  3210   0.145E-01    0.443E-02
DAV:   6    -0.141802547458E+03    0.58292E-04   -0.31246E-04  3005   0.973E-02    0.228E-02
DAV:   7    -0.141802488406E+03    0.59052E-04   -0.26311E-05  2465   0.784E-02    0.141E-02
DAV:   8    -0.141802423422E+03    0.64984E-04   -0.43044E-05  2995   0.948E-02    0.103E-02
DAV:   9    -0.141802352973E+03    0.70450E-04   -0.70941E-05  3650   0.129E-01    0.834E-03
DAV:  10    -0.141802286834E+03    0.66139E-04   -0.10216E-04  3755   0.191E-01    0.130E-02
DAV:  11    -0.141802272146E+03    0.14688E-04   -0.15015E-04  3475   0.137E-01    0.852E-03
DAV:  12    -0.141802281744E+03   -0.95982E-05   -0.14943E-04  2810   0.468E-02    0.114E-02
DAV:  13    -0.141802281608E+03    0.13556E-06   -0.50152E-06  1620   0.908E-03
  47 F= -.14180228E+03 E0= -.14179940E+03  d E =-.160464E-01
       N       E                     dE             d eps       ncg     rms          rms(c)
DAV:   1    -0.141805767542E+03   -0.34858E-02   -0.24765E+00  2755   0.684E+00    0.237E-01
DAV:   2    -0.141810253144E+03   -0.44856E-02   -0.55518E-02  2975   0.964E-01    0.126E-01
DAV:   3    -0.141809875262E+03    0.37788E-03   -0.89006E-04  3240   0.159E-01    0.843E-02
DAV:   4    -0.141809611142E+03    0.26412E-03   -0.71223E-04  3140   0.179E-01    0.383E-02
DAV:   5    -0.141809570046E+03    0.41096E-04   -0.39508E-04  3155   0.112E-01    0.278E-02
DAV:   6    -0.141809542821E+03    0.27225E-04   -0.11872E-04  2890   0.530E-02    0.148E-02
DAV:   7    -0.141809509613E+03    0.33208E-04   -0.20930E-05  2285   0.462E-02    0.908E-03
DAV:   8    -0.141809483614E+03    0.25999E-04   -0.14633E-05  2200   0.485E-02    0.916E-03
DAV:   9    -0.141809436688E+03    0.46926E-04   -0.77466E-05  3430   0.123E-01    0.109E-02
DAV:  10    -0.141809433496E+03    0.31914E-05   -0.60883E-05  2640   0.336E-02
  48 F= -.14180943E+03 E0= -.14180668E+03  d E =-.715189E-02
       N       E                     dE             d eps       ncg     rms          rms(c)
DAV:   1    -0.141796764280E+03    0.12672E-01   -0.98054E+00  2755   0.136E+01    0.482E-01
DAV:   2    -0.141814753257E+03   -0.17989E-01   -0.22419E-01  2980   0.193E+00    0.254E-01
DAV:   3    -0.141813254142E+03    0.14991E-02   -0.33857E-03  3240   0.312E-01    0.169E-01
DAV:   4    -0.141812166691E+03    0.10875E-02   -0.31150E-03  3190   0.378E-01    0.730E-02
DAV:   5    -0.141812057251E+03    0.10944E-03   -0.17030E-03  3140   0.221E-01    0.593E-02
DAV:   6    -0.141811959157E+03    0.98094E-04   -0.39650E-04  3045   0.939E-02    0.336E-02
DAV:   7    -0.141811818827E+03    0.14033E-03   -0.10339E-04  3070   0.869E-02    0.159E-02
DAV:   8    -0.141811691340E+03    0.12749E-03   -0.78642E-05  3180   0.110E-01    0.207E-02
DAV:   9    -0.141811500429E+03    0.19091E-03   -0.28684E-04  4420   0.238E-01    0.256E-02
DAV:  10    -0.141811478627E+03    0.21802E-04   -0.21470E-04  2845   0.658E-02    0.295E-02
DAV:  11    -0.141811465240E+03    0.13387E-04   -0.37512E-05  2640   0.398E-02    0.184E-02
DAV:  12    -0.141811402380E+03    0.62860E-04   -0.67405E-04  3140   0.135E-01    0.562E-02
DAV:  13    -0.141811310216E+03    0.92164E-04   -0.15673E-04  3910   0.213E-01    0.695E-02
DAV:  14    -0.141811175965E+03    0.13425E-03   -0.56858E-04  4030   0.209E-01    0.221E-02
DAV:  15    -0.141811201496E+03   -0.25531E-04   -0.60276E-04  3000   0.120E-01    0.312E-02
DAV:  16    -0.141811173486E+03    0.28010E-04   -0.10700E-04  3030   0.564E-02    0.124E-02
DAV:  17    -0.141811168586E+03    0.49006E-05   -0.77672E-05  3245   0.571E-02
  49 F= -.14181117E+03 E0= -.14180863E+03  d E =-.888698E-02
       N       E                     dE             d eps       ncg     rms          rms(c)
DAV:   1    -0.141810285257E+03    0.88823E-03   -0.14118E+00  2755   0.517E+00    0.179E-01
DAV:   2    -0.141812895531E+03   -0.26103E-02   -0.31836E-02  2990   0.733E-01    0.983E-02
DAV:   3    -0.141812683126E+03    0.21240E-03   -0.53981E-04  3300   0.123E-01    0.652E-02
DAV:   4    -0.141812542775E+03    0.14035E-03   -0.42897E-04  3160   0.132E-01    0.298E-02
DAV:   5    -0.141812521899E+03    0.20876E-04   -0.19081E-04  3180   0.768E-02    0.210E-02
DAV:   6    -0.141812501956E+03    0.19943E-04   -0.85774E-05  2880   0.509E-02    0.114E-02
DAV:   7    -0.141812490034E+03    0.11923E-04   -0.10778E-05  1925   0.367E-02    0.939E-03
DAV:   8    -0.141812477805E+03    0.12228E-04   -0.16756E-05  2250   0.421E-02    0.375E-03
DAV:   9    -0.141812464764E+03    0.13041E-04   -0.58511E-06  1885   0.535E-02    0.387E-03
DAV:  10    -0.141812457243E+03    0.75215E-05   -0.17780E-05  2325   0.425E-02
  50 F= -.14181246E+03 E0= -.14180985E+03  d E =-.101756E-01
       N       E                     dE             d eps       ncg     rms          rms(c)
DAV:   1    -0.141816832589E+03   -0.43678E-02   -0.10087E+00  2775   0.441E+00    0.351E-01
DAV:   2    -0.141816597921E+03    0.23467E-03   -0.32886E-02  3080   0.751E-01    0.119E-01
DAV:   3    -0.141816303215E+03    0.29471E-03   -0.15539E-03  3110   0.175E-01    0.653E-02
DAV:   4    -0.141816127009E+03    0.17621E-03   -0.41856E-04  3150   0.111E-01    0.379E-02
DAV:   5    -0.141816015607E+03    0.11140E-03   -0.10134E-04  3320   0.900E-02    0.215E-02
DAV:   6    -0.141815917201E+03    0.98406E-04   -0.81108E-05  3595   0.102E-01    0.126E-02
DAV:   7    -0.141815844255E+03    0.72946E-04   -0.63911E-05  3105   0.830E-02    0.111E-02
DAV:   8    -0.141815716285E+03    0.12797E-03   -0.41396E-05  2700   0.128E-01    0.900E-03
DAV:   9    -0.141815610455E+03    0.10583E-03   -0.10241E-04  3400   0.133E-01    0.140E-02
DAV:  10    -0.141815530757E+03    0.79698E-04   -0.10702E-04  3730   0.148E-01    0.931E-03
DAV:  11    -0.141815455015E+03    0.75742E-04   -0.15689E-04  3955   0.225E-01    0.101E-02
DAV:  12    -0.141815454882E+03    0.13261E-06   -0.22711E-04  3130   0.115E-01    0.829E-03
DAV:  13    -0.141815461692E+03   -0.68094E-05   -0.94763E-05  2740   0.388E-02
  51 F= -.14181546E+03 E0= -.14181293E+03  d E =-.300445E-02
       N       E                     dE             d eps       ncg     rms          rms(c)
DAV:   1    -0.141815661607E+03   -0.20672E-03   -0.34994E-02  2835   0.821E-01    0.642E-02
DAV:   2    -0.141815649948E+03    0.11659E-04   -0.11158E-03  3075   0.141E-01    0.224E-02
DAV:   3    -0.141815639294E+03    0.10653E-04   -0.59262E-05  3105   0.368E-02    0.123E-02
DAV:   4    -0.141815631870E+03    0.74240E-05   -0.14447E-05  1870   0.249E-02    0.670E-03
DAV:   5    -0.141815626178E+03    0.56923E-05   -0.53695E-06  1890   0.245E-02    0.366E-03
DAV:   6    -0.141815622680E+03    0.34979E-05   -0.48839E-06  1660   0.228E-02
  52 F= -.14181562E+03 E0= -.14181308E+03  d E =-.316544E-02
       N       E                     dE             d eps       ncg     rms          rms(c)
DAV:   1    -0.141816507449E+03   -0.88127E-03   -0.58633E-01  2790   0.330E+00    0.161E-01
DAV:   2    -0.141817341194E+03   -0.83374E-03   -0.14747E-02  3060   0.501E-01    0.776E-02
DAV:   3    -0.141817178508E+03    0.16269E-03   -0.34864E-04  3140   0.112E-01    0.482E-02
DAV:   4    -0.141817057929E+03    0.12058E-03   -0.29843E-04  3290   0.130E-01    0.215E-02
DAV:   5    -0.141817034906E+03    0.23023E-04   -0.17617E-04  3120   0.818E-02    0.188E-02
DAV:   6    -0.141817017592E+03    0.17314E-04   -0.65448E-05  2845   0.452E-02    0.103E-02
DAV:   7    -0.141816980177E+03    0.37415E-04   -0.11854E-05  2050   0.630E-02    0.617E-03
DAV:   8    -0.141816940896E+03    0.39280E-04   -0.35639E-05  3005   0.955E-02    0.106E-02
DAV:   9    -0.141816908276E+03    0.32621E-04   -0.53588E-05  3410   0.131E-01    0.125E-02
DAV:  10    -0.141816892930E+03    0.15346E-04   -0.73786E-05  3590   0.110E-01    0.884E-03
DAV:  11    -0.141816894564E+03   -0.16343E-05   -0.67523E-05  2610   0.414E-02
  53 F= -.14181689E+03 E0= -.14181436E+03  d E =-.127188E-02
       N       E                     dE             d eps       ncg     rms          rms(c)
DAV:   1    -0.141816903166E+03   -0.10236E-04   -0.66313E-03  2870   0.352E-01    0.186E-02
DAV:   2    -0.141816911522E+03   -0.83569E-05   -0.17599E-04  3050   0.551E-02    0.910E-03
DAV:   3    -0.141816909588E+03    0.19339E-05   -0.45502E-06  1665   0.122E-02    0.552E-03
DAV:   4    -0.141816908210E+03    0.13786E-05   -0.44195E-06  1635   0.122E-02    0.230E-03
DAV:   5    -0.141816908044E+03    0.16555E-06   -0.18111E-06  1530   0.728E-03    0.198E-03
DAV:   6    -0.141816907879E+03    0.16569E-06   -0.60652E-07  1440   0.530E-03
  54 F= -.14181691E+03 E0= -.14181437E+03  d E =-.128520E-02
       N       E                     dE             d eps       ncg     rms          rms(c)
DAV:   1    -0.141817313385E+03   -0.40534E-03   -0.40648E-01  2760   0.273E+00    0.130E-01
DAV:   2    -0.141817816351E+03   -0.50297E-03   -0.94720E-03  3035   0.397E-01    0.604E-02
DAV:   3    -0.141817718555E+03    0.97797E-04   -0.20249E-04  3165   0.885E-02    0.359E-02
DAV:   4    -0.141817671944E+03    0.46611E-04   -0.22649E-04  3150   0.889E-02    0.157E-02
DAV:   5    -0.141817669017E+03    0.29266E-05   -0.68533E-05  3010   0.401E-02    0.134E-02
DAV:   6    -0.141817665366E+03    0.36506E-05   -0.12611E-05  1595   0.178E-02
  55 F= -.14181767E+03 E0= -.14181513E+03  d E =-.757488E-03
       N       E                     dE             d eps       ncg     rms          rms(c)
DAV:   1    -0.141817660481E+03    0.85358E-05   -0.49482E-03  2860   0.303E-01    0.152E-02
DAV:   2    -0.141817662453E+03   -0.19713E-05   -0.11331E-04  3020   0.497E-02    0.774E-03
DAV:   3    -0.141817660207E+03    0.22460E-05   -0.86118E-06  1630   0.179E-02    0.488E-03
DAV:   4    -0.141817658212E+03    0.19946E-05   -0.21993E-06  1595   0.108E-02    0.286E-03
DAV:   5    -0.141817655559E+03    0.26526E-05   -0.18691E-06  1735   0.179E-02    0.156E-03
DAV:   6    -0.141817654654E+03    0.90492E-06   -0.26290E-06  1595   0.119E-02
  56 F= -.14181765E+03 E0= -.14181512E+03  d E =-.746776E-03
       N       E                     dE             d eps       ncg     rms          rms(c)
DAV:   1    -0.141817683448E+03   -0.27889E-04   -0.89210E-02  2835   0.131E+00    0.550E-02
DAV:   2    -0.141817851828E+03   -0.16838E-03   -0.25404E-03  3070   0.211E-01    0.347E-02
DAV:   3    -0.141817824110E+03    0.27719E-04   -0.63515E-05  3100   0.444E-02    0.227E-02
DAV:   4    -0.141817798725E+03    0.25385E-04   -0.47494E-05  2950   0.457E-02    0.969E-03
DAV:   5    -0.141817787017E+03    0.11708E-04   -0.17340E-05  1840   0.388E-02    0.618E-03
DAV:   6    -0.141817777504E+03    0.95128E-05   -0.13211E-05  2060   0.364E-02
  57 F= -.14181778E+03 E0= -.14181524E+03  d E =-.122849E-03
       N       E                     dE             d eps       ncg     rms          rms(c)
DAV:   1    -0.141817800878E+03   -0.13861E-04   -0.92650E-03  2930   0.422E-01    0.189E-02
DAV:   2    -0.141817820110E+03   -0.19232E-04   -0.30017E-04  3055   0.730E-02    0.130E-02
DAV:   3    -0.141817816353E+03    0.37570E-05   -0.93996E-06  1635   0.147E-02    0.849E-03
DAV:   4    -0.141817813400E+03    0.29530E-05   -0.68975E-06  1585   0.134E-02    0.317E-03
DAV:   5    -0.141817812347E+03    0.10524E-05   -0.18684E-06  1575   0.104E-02    0.261E-03
DAV:   6    -0.141817810901E+03    0.14466E-05   -0.93969E-07  1590   0.136E-02
  58 F= -.14181781E+03 E0= -.14181528E+03  d E =-.156246E-03
       N       E                     dE             d eps       ncg     rms          rms(c)
DAV:   1    -0.141817810943E+03    0.14049E-05   -0.25726E-04  2700   0.706E-02    0.376E-03
DAV:   2    -0.141817811344E+03   -0.40124E-06   -0.97251E-06  1625   0.137E-02    0.228E-03
DAV:   3    -0.141817810980E+03    0.36428E-06   -0.90298E-07  1565   0.483E-03    0.141E-03
DAV:   4    -0.141817810335E+03    0.64452E-06   -0.43596E-07  1575   0.613E-03    0.896E-04
DAV:   5    -0.141817810152E+03    0.18326E-06   -0.28697E-07  1525   0.337E-03    0.937E-04
DAV:   6    -0.141817809241E+03    0.91085E-06   -0.35894E-07  1585   0.117E-02
  59 F= -.14181781E+03 E0= -.14181527E+03  d E =-.154586E-03
       N       E                     dE             d eps       ncg     rms          rms(c)
DAV:   1    -0.141817924451E+03   -0.11430E-03   -0.14976E-02  2755   0.540E-01    0.285E-02
DAV:   2    -0.141817944566E+03   -0.20116E-04   -0.39046E-04  3060   0.839E-02    0.164E-02
DAV:   3    -0.141817938941E+03    0.56257E-05   -0.12795E-05  1780   0.196E-02    0.105E-02
DAV:   4    -0.141817935905E+03    0.30359E-05   -0.12322E-05  1665   0.192E-02    0.362E-03
DAV:   5    -0.141817935748E+03    0.15683E-06   -0.42745E-06  1560   0.106E-02    0.309E-03
DAV:   6    -0.141817935522E+03    0.22619E-06   -0.16198E-06  1465   0.711E-03
  60 F= -.14181794E+03 E0= -.14181540E+03  d E =-.126281E-03
