       N       E                     dE             d eps       ncg     rms          rms(c)
DAV:   1     0.527368138574E+03    0.52737E+03   -0.45064E+04  2804   0.134E+03
DAV:   2    -0.978360109615E+02   -0.62520E+03   -0.59433E+03  3620   0.254E+02
DAV:   3    -0.160071232390E+03   -0.62235E+02   -0.61898E+02  3256   0.871E+01
DAV:   4    -0.160910005515E+03   -0.83877E+00   -0.83729E+00  3192   0.109E+01
DAV:   5    -0.160923302294E+03   -0.13297E-01   -0.13290E-01  3366   0.135E+00    0.231E+01
DAV:   6    -0.144834827993E+03    0.16088E+02   -0.94308E+01  3118   0.301E+01    0.789E+00
DAV:   7    -0.144712516487E+03    0.12231E+00   -0.21389E+00  3060   0.531E+00    0.480E+00
DAV:   8    -0.144599255093E+03    0.11326E+00   -0.58557E-01  3174   0.403E+00    0.847E-01
DAV:   9    -0.144583194200E+03    0.16061E-01   -0.96450E-02  3142   0.117E+00    0.491E-01
DAV:  10    -0.144582959776E+03    0.23442E-03   -0.42815E-02  3070   0.832E-01    0.248E-01
DAV:  11    -0.144583640683E+03   -0.68091E-03   -0.36920E-03  3126   0.263E-01    0.179E-01
DAV:  12    -0.144583652819E+03   -0.12136E-04   -0.23781E-03  4024   0.271E-01    0.860E-02
DAV:  13    -0.144583597695E+03    0.55124E-04   -0.15573E-03  3052   0.160E-01    0.354E-02
DAV:  14    -0.144583572660E+03    0.25035E-04   -0.13434E-04  3168   0.615E-02    0.162E-02
DAV:  15    -0.144583569887E+03    0.27729E-05   -0.33008E-05  2702   0.284E-02
   1 F= -.14458357E+03 E0= -.14458080E+03  d E =-.144584E+03
       N       E                     dE             d eps       ncg     rms          rms(c)
DAV:   1    -0.144584576382E+03   -0.10037E-02   -0.19450E-02  2844   0.618E-01    0.312E-02
DAV:   2    -0.144584604081E+03   -0.27699E-04   -0.89779E-04  3188   0.141E-01    0.233E-02
DAV:   3    -0.144584593969E+03    0.10112E-04   -0.82842E-05  3064   0.423E-02    0.196E-02
DAV:   4    -0.144584582849E+03    0.11120E-04   -0.15232E-05  1968   0.195E-02    0.110E-02
DAV:   5    -0.144584567966E+03    0.14883E-04   -0.45612E-05  2894   0.536E-02    0.986E-03
DAV:   6    -0.144584565017E+03    0.29492E-05   -0.17043E-05  2142   0.419E-02
   2 F= -.14458457E+03 E0= -.14458177E+03  d E =-.995130E-03
       N       E                     dE             d eps       ncg     rms          rms(c)
DAV:   1    -0.144585175629E+03   -0.60766E-03   -0.50979E-02  2812   0.100E+00    0.471E-02
DAV:   2    -0.144585277378E+03   -0.10175E-03   -0.24573E-03  3162   0.218E-01    0.412E-02
DAV:   3    -0.144585242526E+03    0.34852E-04   -0.15358E-04  3128   0.576E-02    0.319E-02
DAV:   4    -0.144585202911E+03    0.39616E-04   -0.97653E-05  3108   0.445E-02    0.127E-02
DAV:   5    -0.144585177434E+03    0.25477E-04   -0.62747E-05  3070   0.639E-02    0.168E-02
DAV:   6    -0.144585165550E+03    0.11884E-04   -0.37025E-05  2768   0.646E-02    0.118E-02
DAV:   7    -0.144585167849E+03   -0.22986E-05   -0.66522E-05  2764   0.393E-02
   3 F= -.14458517E+03 E0= -.14458232E+03  d E =-.159796E-02
       N       E                     dE             d eps       ncg     rms          rms(c)
DAV:   1    -0.144585723439E+03   -0.55789E-03   -0.89722E-02  2816   0.128E+00    0.420E-02
DAV:   2    -0.144585916679E+03   -0.19324E-03   -0.21447E-03  3056   0.178E-01    0.229E-02
DAV:   3    -0.144585907731E+03    0.89482E-05   -0.26595E-05  2606   0.251E-02    0.150E-02
DAV:   4    -0.144585906440E+03    0.12910E-05   -0.19191E-05  1940   0.233E-02    0.518E-03
DAV:   5    -0.144585910888E+03   -0.44487E-05   -0.90748E-06  1602   0.131E-02    0.345E-03
DAV:   6    -0.144585914815E+03   -0.39265E-05   -0.21857E-06  1498   0.876E-03
   4 F= -.14458591E+03 E0= -.14458304E+03  d E =-.746966E-03
       N       E                     dE             d eps       ncg     rms          rms(c)
DAV:   1    -0.144585905078E+03    0.58100E-05   -0.80832E-01  2804   0.386E+00    0.118E-01
DAV:   2    -0.144587638240E+03   -0.17332E-02   -0.19421E-02  3062   0.535E-01    0.707E-02
DAV:   3    -0.144587518713E+03    0.11953E-03   -0.19329E-04  3264   0.855E-02    0.478E-02
DAV:   4    -0.144587416984E+03    0.10173E-03   -0.21320E-04  3506   0.120E-01    0.161E-02
DAV:   5    -0.144587410596E+03    0.63880E-05   -0.17265E-04  3034   0.716E-02    0.141E-02
DAV:   6    -0.144587405552E+03    0.50435E-05   -0.28754E-05  2298   0.231E-02
   5 F= -.14458741E+03 E0= -.14458446E+03  d E =-.223770E-02
       N       E                     dE             d eps       ncg     rms          rms(c)
DAV:   1    -0.144581151054E+03    0.62595E-02   -0.32311E+00  2804   0.772E+00    0.238E-01
DAV:   2    -0.144587983142E+03   -0.68321E-02   -0.77846E-02  3074   0.107E+00    0.144E-01
DAV:   3    -0.144587436596E+03    0.54655E-03   -0.86034E-04  3248   0.192E-01    0.965E-02
DAV:   4    -0.144586919552E+03    0.51704E-03   -0.80971E-04  3810   0.264E-01    0.361E-02
DAV:   5    -0.144586795206E+03    0.12435E-03   -0.73197E-04  3116   0.177E-01    0.270E-02
DAV:   6    -0.144586649871E+03    0.14534E-03   -0.15598E-04  3230   0.107E-01    0.161E-02
DAV:   7    -0.144586469796E+03    0.18008E-03   -0.58526E-05  3190   0.147E-01    0.154E-02
DAV:   8    -0.144586222233E+03    0.24756E-03   -0.15978E-04  3932   0.231E-01    0.106E-02
DAV:   9    -0.144585921389E+03    0.30084E-03   -0.27472E-04  4120   0.358E-01    0.110E-02
DAV:  10    -0.144585760204E+03    0.16119E-03   -0.54092E-04  4266   0.381E-01    0.794E-03
DAV:  11    -0.144585786448E+03   -0.26244E-04   -0.67471E-04  3332   0.217E-01    0.119E-02
DAV:  12    -0.144585822174E+03   -0.35726E-04   -0.40878E-04  2854   0.696E-02    0.280E-02
DAV:  13    -0.144585822413E+03   -0.23912E-06   -0.58167E-06  1720   0.887E-03
   6 F= -.14458582E+03 E0= -.14458264E+03  d E =-.654565E-03
       N       E                     dE             d eps       ncg     rms          rms(c)
DAV:   1    -0.144585190026E+03    0.63215E-03   -0.15050E+00  2810   0.525E+00    0.162E-01
DAV:   2    -0.144588177122E+03   -0.29871E-02   -0.34384E-02  3078   0.728E-01    0.937E-02
DAV:   3    -0.144587946870E+03    0.23025E-03   -0.54282E-04  3230   0.131E-01    0.623E-02
DAV:   4    -0.144587773638E+03    0.17323E-03   -0.29533E-04  3370   0.125E-01    0.287E-02
DAV:   5    -0.144587702666E+03    0.70971E-04   -0.19802E-04  3372   0.110E-01    0.173E-02
DAV:   6    -0.144587670891E+03    0.31775E-04   -0.13761E-04  3132   0.798E-02    0.109E-02
DAV:   7    -0.144587641554E+03    0.29337E-04   -0.25157E-05  2358   0.509E-02    0.106E-02
DAV:   8    -0.144587596862E+03    0.44692E-04   -0.18282E-05  2216   0.717E-02    0.696E-03
DAV:   9    -0.144587523048E+03    0.73814E-04   -0.11474E-04  3692   0.163E-01    0.123E-02
DAV:  10    -0.144587476887E+03    0.46161E-04   -0.11157E-04  3638   0.184E-01    0.939E-03
DAV:  11    -0.144587477630E+03   -0.74320E-06   -0.16020E-04  2894   0.862E-02    0.648E-03
DAV:  12    -0.144587480307E+03   -0.26767E-05   -0.57035E-05  2684   0.338E-02
   7 F= -.14458748E+03 E0= -.14458445E+03  d E =-.231246E-02
       N       E                     dE             d eps       ncg     rms          rms(c)
DAV:   1    -0.144587812844E+03   -0.33521E-03   -0.10377E-01  2896   0.137E+00    0.420E-02
DAV:   2    -0.144588025145E+03   -0.21230E-03   -0.23940E-03  3024   0.187E-01    0.229E-02
DAV:   3    -0.144588008640E+03    0.16505E-04   -0.24468E-05  2536   0.267E-02    0.157E-02
DAV:   4    -0.144587992740E+03    0.15900E-04   -0.31915E-05  2680   0.378E-02    0.561E-03
DAV:   5    -0.144587988552E+03    0.41882E-05   -0.16920E-05  2052   0.214E-02    0.435E-03
DAV:   6    -0.144587985255E+03    0.32965E-05   -0.32011E-06  1720   0.110E-02
   8 F= -.14458799E+03 E0= -.14458493E+03  d E =-.504948E-03
       N       E                     dE             d eps       ncg     rms          rms(c)
DAV:   1    -0.144587398993E+03    0.58956E-03   -0.93316E-01  2876   0.410E+00    0.123E-01
DAV:   2    -0.144589340241E+03   -0.19412E-02   -0.21539E-02  3002   0.566E-01    0.705E-02
DAV:   3    -0.144589219948E+03    0.12029E-03   -0.23019E-04  3190   0.707E-02    0.489E-02
DAV:   4    -0.144589124295E+03    0.95652E-04   -0.24722E-04  3188   0.908E-02    0.178E-02
DAV:   5    -0.144589107641E+03    0.16654E-04   -0.11207E-04  3100   0.512E-02    0.140E-02
DAV:   6    -0.144589093530E+03    0.14112E-04   -0.19422E-05  2084   0.261E-02    0.697E-03
DAV:   7    -0.144589073520E+03    0.20010E-04   -0.10111E-05  2048   0.363E-02    0.482E-03
DAV:   8    -0.144589043316E+03    0.30203E-04   -0.16118E-05  2096   0.649E-02    0.871E-03
DAV:   9    -0.144589018079E+03    0.25237E-04   -0.33346E-05  2724   0.716E-02    0.580E-03
DAV:  10    -0.144588989685E+03    0.28394E-04   -0.46238E-05  2962   0.112E-01    0.111E-02
DAV:  11    -0.144588977351E+03    0.12334E-04   -0.52627E-05  2890   0.760E-02    0.889E-03
DAV:  12    -0.144588974500E+03    0.28503E-05   -0.41619E-05  2774   0.487E-02
   9 F= -.14458897E+03 E0= -.14458585E+03  d E =-.149419E-02
       N       E                     dE             d eps       ncg     rms          rms(c)
DAV:   1    -0.144581984188E+03    0.69932E-02   -0.37353E+00  2860   0.826E+00    0.249E-01
DAV:   2    -0.144589958253E+03   -0.79741E-02   -0.88192E-02  2974   0.115E+00    0.145E-01
DAV:   3    -0.144589491544E+03    0.46671E-03   -0.98727E-04  3166   0.145E-01    0.100E-01
DAV:   4    -0.144589167841E+03    0.32370E-03   -0.95354E-04  3204   0.170E-01    0.376E-02
DAV:   5    -0.144589123263E+03    0.44577E-04   -0.38317E-04  3108   0.915E-02    0.272E-02
DAV:   6    -0.144589086636E+03    0.36627E-04   -0.85505E-05  3054   0.505E-02    0.128E-02
DAV:   7    -0.144589050929E+03    0.35707E-04   -0.22764E-05  2322   0.486E-02    0.807E-03
DAV:   8    -0.144588995208E+03    0.55722E-04   -0.24065E-05  2296   0.809E-02    0.973E-03
DAV:   9    -0.144588944069E+03    0.51139E-04   -0.47649E-05  2862   0.889E-02    0.869E-03
DAV:  10    -0.144588853320E+03    0.90749E-04   -0.14060E-04  4044   0.200E-01    0.163E-02
DAV:  11    -0.144588828046E+03    0.25274E-04   -0.13034E-04  3286   0.117E-01    0.158E-02
DAV:  12    -0.144588831194E+03   -0.31487E-05   -0.16885E-04  2922   0.652E-02    0.985E-03
DAV:  13    -0.144588825274E+03    0.59200E-05   -0.15786E-05  1992   0.440E-02
  10 F= -.14458883E+03 E0= -.14458553E+03  d E =-.134497E-02
       N       E                     dE             d eps       ncg     rms          rms(c)
DAV:   1    -0.144587582482E+03    0.12487E-02   -0.88735E-01  2868   0.399E+00    0.125E-01
DAV:   2    -0.144589525882E+03   -0.19434E-02   -0.21595E-02  2996   0.552E-01    0.718E-02
DAV:   3    -0.144589409069E+03    0.11681E-03   -0.22590E-04  3182   0.737E-02    0.515E-02
DAV:   4    -0.144589324265E+03    0.84804E-04   -0.33738E-04  3140   0.102E-01    0.184E-02
DAV:   5    -0.144589317978E+03    0.62864E-05   -0.11592E-04  3082   0.449E-02    0.175E-02
DAV:   6    -0.144589306405E+03    0.11574E-04   -0.38501E-05  2806   0.284E-02    0.602E-03
DAV:   7    -0.144589299618E+03    0.67867E-05   -0.85190E-06  1894   0.201E-02
  11 F= -.14458930E+03 E0= -.14458610E+03  d E =-.181931E-02
       N       E                     dE             d eps       ncg     rms          rms(c)
DAV:   1    -0.144589791648E+03   -0.48524E-03   -0.13467E-01  2818   0.157E+00    0.529E-02
DAV:   2    -0.144590055575E+03   -0.26393E-03   -0.32656E-03  3104   0.230E-01    0.286E-02
DAV:   3    -0.144590036098E+03    0.19477E-04   -0.72726E-05  3174   0.387E-02    0.217E-02
DAV:   4    -0.144590019958E+03    0.16140E-04   -0.62190E-05  3062   0.360E-02    0.100E-02
DAV:   5    -0.144590012175E+03    0.77824E-05   -0.15143E-05  1970   0.239E-02    0.116E-02
DAV:   6    -0.144590003263E+03    0.89126E-05   -0.84670E-06  1920   0.293E-02
  12 F= -.14459000E+03 E0= -.14458677E+03  d E =-.703645E-03
       N       E                     dE             d eps       ncg     rms          rms(c)
DAV:   1    -0.144589042651E+03    0.96952E-03   -0.12113E+00  2804   0.470E+00    0.148E-01
DAV:   2    -0.144591403246E+03   -0.23606E-02   -0.27917E-02  3078   0.664E-01    0.829E-02
DAV:   3    -0.144591255485E+03    0.14776E-03   -0.50450E-04  3206   0.103E-01    0.612E-02
DAV:   4    -0.144591156108E+03    0.99377E-04   -0.48765E-04  3210   0.103E-01    0.271E-02
DAV:   5    -0.144591136142E+03    0.19966E-04   -0.11813E-04  3198   0.543E-02    0.299E-02
DAV:   6    -0.144591109553E+03    0.26589E-04   -0.93650E-05  3400   0.638E-02    0.128E-02
DAV:   7    -0.144591106602E+03    0.29512E-05   -0.45561E-05  2678   0.295E-02
  13 F= -.14459111E+03 E0= -.14458778E+03  d E =-.180698E-02
       N       E                     dE             d eps       ncg     rms          rms(c)
DAV:   1    -0.144591849023E+03   -0.73947E-03   -0.12571E-01  2790   0.149E+00    0.487E-02
DAV:   2    -0.144592071260E+03   -0.22224E-03   -0.28639E-03  3110   0.215E-01    0.266E-02
DAV:   3    -0.144592048898E+03    0.22362E-04   -0.78512E-05  3196   0.455E-02    0.198E-02
DAV:   4    -0.144592029428E+03    0.19470E-04   -0.35043E-05  2648   0.339E-02    0.971E-03
DAV:   5    -0.144592012942E+03    0.16486E-04   -0.14975E-05  2088   0.412E-02    0.807E-03
DAV:   6    -0.144591998956E+03    0.13986E-04   -0.15042E-05  2126   0.516E-02    0.578E-03
DAV:   7    -0.144591993253E+03    0.57036E-05   -0.29263E-05  2444   0.392E-02
  14 F= -.14459199E+03 E0= -.14458867E+03  d E =-.886651E-03
       N       E                     dE             d eps       ncg     rms          rms(c)
DAV:   1    -0.144591920436E+03    0.78520E-04   -0.68989E-01  2772   0.350E+00    0.107E-01
DAV:   2    -0.144593068150E+03   -0.11477E-02   -0.15160E-02  3116   0.504E-01    0.636E-02
DAV:   3    -0.144592938065E+03    0.13008E-03   -0.46038E-04  3236   0.115E-01    0.478E-02
DAV:   4    -0.144592832861E+03    0.10520E-03   -0.16373E-04  3134   0.761E-02    0.251E-02
DAV:   5    -0.144592730769E+03    0.10209E-03   -0.10543E-04  3234   0.107E-01    0.162E-02
DAV:   6    -0.144592672243E+03    0.58526E-04   -0.11230E-04  3634   0.116E-01    0.121E-02
DAV:   7    -0.144592651915E+03    0.20328E-04   -0.11493E-04  2950   0.808E-02    0.128E-02
DAV:   8    -0.144592639568E+03    0.12347E-04   -0.34784E-05  2612   0.333E-02    0.854E-03
DAV:   9    -0.144592608495E+03    0.31073E-04   -0.40441E-05  2688   0.687E-02    0.133E-02
DAV:  10    -0.144592583340E+03    0.25154E-04   -0.24211E-05  2448   0.924E-02    0.149E-02
DAV:  11    -0.144592578282E+03    0.50587E-05   -0.59341E-05  2652   0.422E-02
  15 F= -.14459258E+03 E0= -.14458928E+03  d E =-.147168E-02
       N       E                     dE             d eps       ncg     rms          rms(c)
DAV:   1    -0.144592833143E+03   -0.24980E-03   -0.44987E-02  2800   0.897E-01    0.252E-02
DAV:   2    -0.144592914040E+03   -0.80898E-04   -0.96568E-04  2996   0.123E-01    0.151E-02
DAV:   3    -0.144592908277E+03    0.57637E-05   -0.16859E-05  2018   0.180E-02    0.108E-02
DAV:   4    -0.144592901676E+03    0.66004E-05   -0.11456E-05  1748   0.193E-02    0.389E-03
DAV:   5    -0.144592899448E+03    0.22282E-05   -0.63634E-06  1696   0.152E-02    0.558E-03
DAV:   6    -0.144592897080E+03    0.23679E-05   -0.34826E-06  1636   0.168E-02
  16 F= -.14459290E+03 E0= -.14458960E+03  d E =-.318799E-03
       N       E                     dE             d eps       ncg     rms          rms(c)
DAV:   1    -0.144593036194E+03   -0.13675E-03   -0.40735E-01  2804   0.270E+00    0.783E-02
DAV:   2    -0.144593829626E+03   -0.79343E-03   -0.89876E-03  2964   0.372E-01    0.461E-02
DAV:   3    -0.144593786159E+03    0.43467E-04   -0.12776E-04  3250   0.505E-02    0.323E-02
DAV:   4    -0.144593759951E+03    0.26208E-04   -0.14858E-04  3138   0.663E-02    0.124E-02
DAV:   5    -0.144593761317E+03   -0.13657E-05   -0.43936E-05  2646   0.266E-02    0.135E-02
DAV:   6    -0.144593758526E+03    0.27908E-05   -0.14666E-05  1478   0.195E-02
  17 F= -.14459376E+03 E0= -.14459050E+03  d E =-.118024E-02
       N       E                     dE             d eps       ncg     rms          rms(c)
DAV:   1    -0.144592038097E+03    0.17232E-02   -0.16288E+00  2804   0.539E+00    0.156E-01
DAV:   2    -0.144595162228E+03   -0.31241E-02   -0.35388E-02  2970   0.738E-01    0.900E-02
DAV:   3    -0.144594994902E+03    0.16733E-03   -0.48486E-04  3250   0.984E-02    0.628E-02
DAV:   4    -0.144594885704E+03    0.10920E-03   -0.49957E-04  3252   0.133E-01    0.226E-02
DAV:   5    -0.144594894807E+03   -0.91028E-05   -0.21053E-04  3122   0.599E-02    0.257E-02
DAV:   6    -0.144594885388E+03    0.94190E-05   -0.30036E-05  2244   0.249E-02
  18 F= -.14459489E+03 E0= -.14459172E+03  d E =-.230711E-02
       N       E                     dE             d eps       ncg     rms          rms(c)
DAV:   1    -0.144583162651E+03    0.11732E-01   -0.65112E+00  2804   0.108E+01    0.313E-01
DAV:   2    -0.144595751817E+03   -0.12589E-01   -0.14189E-01  2966   0.148E+00    0.182E-01
DAV:   3    -0.144595081367E+03    0.67045E-03   -0.18195E-03  3260   0.195E-01    0.126E-01
DAV:   4    -0.144594613242E+03    0.46813E-03   -0.21588E-03  3254   0.285E-01    0.434E-02
DAV:   5    -0.144594656574E+03   -0.43331E-04   -0.87534E-04  3130   0.121E-01    0.511E-02
DAV:   6    -0.144594615682E+03    0.40891E-04   -0.13198E-04  2936   0.487E-02    0.244E-02
DAV:   7    -0.144594599118E+03    0.16564E-04   -0.11714E-04  3028   0.426E-02    0.167E-02
DAV:   8    -0.144594582872E+03    0.16246E-04   -0.58690E-06  1786   0.388E-02    0.142E-02
DAV:   9    -0.144594563382E+03    0.19490E-04   -0.61214E-05  2840   0.703E-02    0.843E-03
DAV:  10    -0.144594555960E+03    0.74225E-05   -0.43387E-05  2608   0.344E-02
  19 F= -.14459456E+03 E0= -.14459168E+03  d E =-.197768E-02
       N       E                     dE             d eps       ncg     rms          rms(c)
DAV:   1    -0.144591066305E+03    0.34971E-02   -0.22726E+00  2804   0.638E+00    0.190E-01
DAV:   2    -0.144595511809E+03   -0.44455E-02   -0.50580E-02  2990   0.888E-01    0.108E-01
DAV:   3    -0.144595287004E+03    0.22480E-03   -0.82515E-04  3244   0.125E-01    0.770E-02
DAV:   4    -0.144595145819E+03    0.14118E-03   -0.62360E-04  3212   0.135E-01    0.315E-02
DAV:   5    -0.144595145784E+03    0.35117E-07   -0.24264E-04  3186   0.671E-02    0.301E-02
DAV:   6    -0.144595133513E+03    0.12271E-04   -0.81479E-05  2708   0.436E-02    0.116E-02
DAV:   7    -0.144595134316E+03   -0.80333E-06   -0.23658E-05  1898   0.191E-02
  20 F= -.14459513E+03 E0= -.14459208E+03  d E =-.255603E-02
       N       E                     dE             d eps       ncg     rms          rms(c)
DAV:   1    -0.144596226164E+03   -0.10927E-02   -0.31131E-01  2948   0.237E+00    0.725E-02
DAV:   2    -0.144596807295E+03   -0.58113E-03   -0.72672E-03  3146   0.347E-01    0.488E-02
DAV:   3    -0.144596744546E+03    0.62749E-04   -0.17742E-04  3172   0.727E-02    0.378E-02
DAV:   4    -0.144596687557E+03    0.56990E-04   -0.11379E-04  3012   0.693E-02    0.182E-02
DAV:   5    -0.144596650294E+03    0.37263E-04   -0.64423E-05  3032   0.746E-02    0.132E-02
DAV:   6    -0.144596636133E+03    0.14161E-04   -0.70832E-05  3006   0.602E-02    0.784E-03
DAV:   7    -0.144596634342E+03    0.17901E-05   -0.36232E-05  2524   0.272E-02
  21 F= -.14459663E+03 E0= -.14459362E+03  d E =-.150003E-02
       N       E                     dE             d eps       ncg     rms          rms(c)
DAV:   1    -0.144596585663E+03    0.50469E-04   -0.46530E-01  2948   0.289E+00    0.881E-02
DAV:   2    -0.144597425120E+03   -0.83946E-03   -0.10749E-02  3136   0.422E-01    0.594E-02
DAV:   3    -0.144597309800E+03    0.11532E-03   -0.24221E-04  3190   0.961E-02    0.459E-02
DAV:   4    -0.144597191033E+03    0.11877E-03   -0.17929E-04  3258   0.104E-01    0.226E-02
DAV:   5    -0.144597111798E+03    0.79235E-04   -0.14525E-04  3394   0.113E-01    0.177E-02
DAV:   6    -0.144597076046E+03    0.35752E-04   -0.14708E-04  3190   0.909E-02    0.102E-02
DAV:   7    -0.144597057821E+03    0.18225E-04   -0.48934E-05  2820   0.568E-02    0.148E-02
DAV:   8    -0.144597027386E+03    0.30435E-04   -0.16253E-05  2108   0.701E-02    0.955E-03
DAV:   9    -0.144597004489E+03    0.22897E-04   -0.57427E-05  3128   0.892E-02    0.516E-03
DAV:  10    -0.144597006581E+03   -0.20919E-05   -0.56129E-05  2684   0.314E-02
  22 F= -.14459701E+03 E0= -.14459404E+03  d E =-.187226E-02
       N       E                     dE             d eps       ncg     rms          rms(c)
DAV:   1    -0.144597016921E+03   -0.12432E-04   -0.19422E-02  2928   0.592E-01    0.208E-02
DAV:   2    -0.144597051146E+03   -0.34225E-04   -0.45966E-04  3124   0.884E-02    0.113E-02
DAV:   3    -0.144597046529E+03    0.46176E-05   -0.13609E-05  1764   0.203E-02    0.868E-03
DAV:   4    -0.144597041657E+03    0.48718E-05   -0.73640E-06  1848   0.178E-02    0.393E-03
DAV:   5    -0.144597038047E+03    0.36101E-05   -0.61256E-06  1822   0.201E-02    0.390E-03
DAV:   6    -0.144597035069E+03    0.29781E-05   -0.64073E-06  1896   0.244E-02
  23 F= -.14459704E+03 E0= -.14459406E+03  d E =-.190075E-02
       N       E                     dE             d eps       ncg     rms          rms(c)
DAV:   1    -0.144597510075E+03   -0.47203E-03   -0.11505E-01  2908   0.147E+00    0.455E-02
DAV:   2    -0.144597744397E+03   -0.23432E-03   -0.28535E-03  3106   0.216E-01    0.303E-02
DAV:   3    -0.144597724817E+03    0.19581E-04   -0.60828E-05  3102   0.392E-02    0.227E-02
DAV:   4    -0.144597709732E+03    0.15085E-04   -0.44571E-05  2724   0.337E-02    0.101E-02
DAV:   5    -0.144597702867E+03    0.68646E-05   -0.13303E-05  1930   0.245E-02    0.645E-03
DAV:   6    -0.144597698923E+03    0.39435E-05   -0.87856E-06  1882   0.237E-02
  24 F= -.14459770E+03 E0= -.14459474E+03  d E =-.663855E-03
       N       E                     dE             d eps       ncg     rms          rms(c)
DAV:   1    -0.144597523576E+03    0.17929E-03   -0.39248E-01  2908   0.272E+00    0.844E-02
DAV:   2    -0.144598351630E+03   -0.82805E-03   -0.98814E-03  3106   0.400E-01    0.562E-02
DAV:   3    -0.144598279897E+03    0.71733E-04   -0.17662E-04  3198   0.712E-02    0.416E-02
DAV:   4    -0.144598219823E+03    0.60074E-04   -0.20624E-04  3152   0.726E-02    0.173E-02
DAV:   5    -0.144598203961E+03    0.15862E-04   -0.57734E-05  2980   0.484E-02    0.147E-02
DAV:   6    -0.144598193179E+03    0.10782E-04   -0.36100E-05  2564   0.419E-02    0.589E-03
DAV:   7    -0.144598186536E+03    0.66425E-05   -0.15516E-05  2026   0.390E-02
  25 F= -.14459819E+03 E0= -.14459525E+03  d E =-.115147E-02
       N       E                     dE             d eps       ncg     rms          rms(c)
DAV:   1    -0.144598562286E+03   -0.36911E-03   -0.47738E-02  2820   0.948E-01    0.355E-02
DAV:   2    -0.144598672008E+03   -0.10972E-03   -0.14920E-03  3162   0.161E-01    0.271E-02
DAV:   3    -0.144598659893E+03    0.12115E-04   -0.44056E-05  2898   0.328E-02    0.215E-02
DAV:   4    -0.144598649448E+03    0.10445E-04   -0.60728E-05  2760   0.352E-02    0.785E-03
DAV:   5    -0.144598647444E+03    0.20036E-05   -0.11198E-05  1822   0.193E-02    0.943E-03
DAV:   6    -0.144598644740E+03    0.27044E-05   -0.40791E-06  1770   0.181E-02
  26 F= -.14459864E+03 E0= -.14459570E+03  d E =-.458204E-03
       N       E                     dE             d eps       ncg     rms          rms(c)
DAV:   1    -0.144598703942E+03   -0.56497E-04   -0.39008E-02  2820   0.858E-01    0.312E-02
DAV:   2    -0.144598799081E+03   -0.95139E-04   -0.12399E-03  3156   0.144E-01    0.257E-02
DAV:   3    -0.144598787627E+03    0.11454E-04   -0.29190E-05  2558   0.290E-02    0.199E-02
DAV:   4    -0.144598778535E+03    0.90927E-05   -0.86851E-05  2874   0.444E-02    0.986E-03
DAV:   5    -0.144598777351E+03    0.11838E-05   -0.12539E-05  1766   0.181E-02    0.111E-02
DAV:   6    -0.144598774543E+03    0.28082E-05   -0.60419E-06  1622   0.149E-02
  27 F= -.14459877E+03 E0= -.14459581E+03  d E =-.588007E-03
       N       E                     dE             d eps       ncg     rms          rms(c)
DAV:   1    -0.144598989680E+03   -0.21233E-03   -0.48830E-02  2900   0.932E-01    0.290E-02
DAV:   2    -0.144599059012E+03   -0.69332E-04   -0.10628E-03  3176   0.134E-01    0.185E-02
DAV:   3    -0.144599040113E+03    0.18899E-04   -0.35656E-05  2884   0.362E-02    0.129E-02
DAV:   4    -0.144599018460E+03    0.21653E-04   -0.14965E-05  2062   0.340E-02    0.698E-03
DAV:   5    -0.144598999582E+03    0.18878E-04   -0.30019E-05  2610   0.498E-02    0.555E-03
DAV:   6    -0.144598993428E+03    0.61541E-05   -0.36575E-05  2598   0.415E-02
  28 F= -.14459899E+03 E0= -.14459602E+03  d E =-.218885E-03
       N       E                     dE             d eps       ncg     rms          rms(c)
DAV:   1    -0.144598998225E+03    0.13569E-05   -0.43077E-03  3012   0.278E-01    0.996E-03
DAV:   2    -0.144599002772E+03   -0.45472E-05   -0.10297E-04  2998   0.413E-02    0.657E-03
DAV:   3    -0.144598999307E+03    0.34655E-05   -0.31314E-06  1760   0.110E-02    0.390E-03
DAV:   4    -0.144598994918E+03    0.43886E-05   -0.25831E-06  1830   0.162E-02    0.222E-03
DAV:   5    -0.144598989852E+03    0.50667E-05   -0.76041E-06  2086   0.303E-02    0.158E-03
DAV:   6    -0.144598989267E+03    0.58462E-06   -0.11962E-05  1866   0.197E-02
  29 F= -.14459899E+03 E0= -.14459601E+03  d E =-.214724E-03
       N       E                     dE             d eps       ncg     rms          rms(c)
DAV:   1    -0.144599053026E+03   -0.63174E-04   -0.87907E-02  2828   0.129E+00    0.388E-02
DAV:   2    -0.144599243745E+03   -0.19072E-03   -0.20618E-03  3036   0.179E-01    0.213E-02
DAV:   3    -0.144599234560E+03    0.91847E-05   -0.22086E-05  2192   0.218E-02    0.151E-02
DAV:   4    -0.144599228137E+03    0.64230E-05   -0.28375E-05  2282   0.279E-02    0.509E-03
DAV:   5    -0.144599228464E+03   -0.32709E-06   -0.85714E-06  1466   0.127E-02    0.543E-03
DAV:   6    -0.144599228108E+03    0.35608E-06   -0.30250E-06  1456   0.927E-03
  30 F= -.14459923E+03 E0= -.14459626E+03  d E =-.238841E-03
       N       E                     dE             d eps       ncg     rms          rms(c)
DAV:   1    -0.144598016500E+03    0.12120E-02   -0.79193E-01  2820   0.387E+00    0.116E-01
DAV:   2    -0.144599736940E+03   -0.17204E-02   -0.18664E-02  3026   0.540E-01    0.651E-02
DAV:   3    -0.144599652179E+03    0.84761E-04   -0.20523E-04  3270   0.658E-02    0.471E-02
DAV:   4    -0.144599590129E+03    0.62050E-04   -0.25794E-04  3226   0.872E-02    0.178E-02
DAV:   5    -0.144599589392E+03    0.73692E-06   -0.91020E-05  2972   0.432E-02    0.188E-02
DAV:   6    -0.144599584165E+03    0.52273E-05   -0.30994E-05  2324   0.257E-02
  31 F= -.14459958E+03 E0= -.14459664E+03  d E =-.594898E-03
       N       E                     dE             d eps       ncg     rms          rms(c)
DAV:   1    -0.144599720225E+03   -0.13083E-03   -0.41318E-02  2904   0.880E-01    0.268E-02
DAV:   2    -0.144599806937E+03   -0.86712E-04   -0.96484E-04  3068   0.121E-01    0.146E-02
DAV:   3    -0.144599799980E+03    0.69569E-05   -0.86990E-06  1926   0.174E-02    0.998E-03
DAV:   4    -0.144599791802E+03    0.81783E-05   -0.12583E-05  1918   0.264E-02    0.302E-03
DAV:   5    -0.144599789535E+03    0.22665E-05   -0.10566E-05  1806   0.173E-02    0.295E-03
DAV:   6    -0.144599788528E+03    0.10075E-05   -0.22180E-06  1548   0.711E-03
  32 F= -.14459979E+03 E0= -.14459686E+03  d E =-.204363E-03
       N       E                     dE             d eps       ncg     rms          rms(c)
DAV:   1    -0.144599571123E+03    0.21841E-03   -0.37019E-01  2900   0.263E+00    0.768E-02
DAV:   2    -0.144600341638E+03   -0.77052E-03   -0.84969E-03  3058   0.362E-01    0.433E-02
DAV:   3    -0.144600292602E+03    0.49036E-04   -0.10188E-04  3260   0.500E-02    0.305E-02
DAV:   4    -0.144600249631E+03    0.42971E-04   -0.77939E-05  3088   0.557E-02    0.120E-02
DAV:   5    -0.144600237400E+03    0.12231E-04   -0.53091E-05  3036   0.410E-02    0.885E-03
DAV:   6    -0.144600232640E+03    0.47605E-05   -0.19488E-05  2098   0.205E-02
  33 F= -.14460023E+03 E0= -.14459733E+03  d E =-.648475E-03
       N       E                     dE             d eps       ncg     rms          rms(c)
DAV:   1    -0.144597559825E+03    0.26776E-02   -0.14807E+00  2868   0.527E+00    0.154E-01
DAV:   2    -0.144600661573E+03   -0.31017E-02   -0.34203E-02  3052   0.729E-01    0.873E-02
DAV:   3    -0.144600465071E+03    0.19650E-03   -0.41572E-04  3274   0.102E-01    0.613E-02
DAV:   4    -0.144600293777E+03    0.17129E-03   -0.30161E-04  3186   0.109E-01    0.243E-02
DAV:   5    -0.144600245956E+03    0.47821E-04   -0.20694E-04  3200   0.843E-02    0.176E-02
DAV:   6    -0.144600230344E+03    0.15612E-04   -0.94768E-05  3122   0.452E-02    0.109E-02
DAV:   7    -0.144600209320E+03    0.21024E-04   -0.18819E-05  2114   0.264E-02    0.642E-03
DAV:   8    -0.144600189875E+03    0.19445E-04   -0.15960E-05  2176   0.353E-02    0.898E-03
DAV:   9    -0.144600179816E+03    0.10059E-04   -0.30598E-05  2536   0.414E-02    0.683E-03
DAV:  10    -0.144600168540E+03    0.11276E-04   -0.17234E-05  2122   0.496E-02    0.577E-03
DAV:  11    -0.144600165261E+03    0.32787E-05   -0.29231E-05  2468   0.349E-02
  34 F= -.14460017E+03 E0= -.14459733E+03  d E =-.581096E-03
       N       E                     dE             d eps       ncg     rms          rms(c)
DAV:   1    -0.144599593791E+03    0.57475E-03   -0.40400E-01  2856   0.275E+00    0.838E-02
DAV:   2    -0.144600438915E+03   -0.84512E-03   -0.94073E-03  3052   0.383E-01    0.440E-02
DAV:   3    -0.144600390160E+03    0.48755E-04   -0.13563E-04  3268   0.558E-02    0.318E-02
DAV:   4    -0.144600351326E+03    0.38834E-04   -0.73359E-05  3086   0.519E-02    0.137E-02
DAV:   5    -0.144600336893E+03    0.14433E-04   -0.45017E-05  3042   0.491E-02    0.102E-02
DAV:   6    -0.144600332886E+03    0.40069E-05   -0.40395E-05  2710   0.383E-02
  35 F= -.14460033E+03 E0= -.14459747E+03  d E =-.748721E-03
       N       E                     dE             d eps       ncg     rms          rms(c)
DAV:   1    -0.144600434393E+03   -0.97500E-04   -0.70967E-02  2808   0.116E+00    0.340E-02
DAV:   2    -0.144600574878E+03   -0.14048E-03   -0.15922E-03  3092   0.162E-01    0.189E-02
DAV:   3    -0.144600567994E+03    0.68837E-05   -0.31325E-05  2674   0.238E-02    0.140E-02
DAV:   4    -0.144600561736E+03    0.62578E-05   -0.11335E-05  1748   0.177E-02    0.673E-03
DAV:   5    -0.144600558504E+03    0.32329E-05   -0.10235E-05  1892   0.199E-02    0.610E-03
DAV:   6    -0.144600556614E+03    0.18894E-05   -0.64904E-06  1710   0.203E-02
  36 F= -.14460056E+03 E0= -.14459770E+03  d E =-.223728E-03
       N       E                     dE             d eps       ncg     rms          rms(c)
DAV:   1    -0.144599635277E+03    0.92323E-03   -0.63860E-01  2804   0.349E+00    0.104E-01
DAV:   2    -0.144600955481E+03   -0.13202E-02   -0.14470E-02  3072   0.485E-01    0.543E-02
DAV:   3    -0.144600899725E+03    0.55756E-04   -0.21392E-04  3334   0.618E-02    0.393E-02
DAV:   4    -0.144600855355E+03    0.44370E-04   -0.14290E-04  3228   0.525E-02    0.172E-02
DAV:   5    -0.144600842981E+03    0.12374E-04   -0.36125E-05  2730   0.377E-02    0.161E-02
DAV:   6    -0.144600831097E+03    0.11884E-04   -0.37673E-05  2458   0.472E-02    0.833E-03
DAV:   7    -0.144600830106E+03    0.99100E-06   -0.30678E-05  2392   0.233E-02
  37 F= -.14460083E+03 E0= -.14459801E+03  d E =-.497219E-03
       N       E                     dE             d eps       ncg     rms          rms(c)
DAV:   1    -0.144601086742E+03   -0.25565E-03   -0.80675E-02  2808   0.121E+00    0.389E-02
DAV:   2    -0.144601217556E+03   -0.13081E-03   -0.17786E-03  3192   0.171E-01    0.208E-02
DAV:   3    -0.144601196698E+03    0.20858E-04   -0.40373E-05  2956   0.293E-02    0.157E-02
DAV:   4    -0.144601167344E+03    0.29354E-04   -0.50846E-05  3004   0.368E-02    0.893E-03
DAV:   5    -0.144601153925E+03    0.13419E-04   -0.17947E-05  2164   0.289E-02    0.108E-02
DAV:   6    -0.144601139995E+03    0.13929E-04   -0.31671E-05  2516   0.424E-02    0.527E-03
DAV:   7    -0.144601128912E+03    0.11083E-04   -0.15671E-05  2082   0.398E-02    0.717E-03
DAV:   8    -0.144601116987E+03    0.11925E-04   -0.10297E-05  2116   0.444E-02    0.380E-03
DAV:   9    -0.144601108324E+03    0.86634E-05   -0.20999E-05  2370   0.555E-02
  38 F= -.14460111E+03 E0= -.14459830E+03  d E =-.278218E-03
       N       E                     dE             d eps       ncg     rms          rms(c)
DAV:   1    -0.144601132844E+03   -0.15856E-04   -0.17898E-02  2872   0.571E-01    0.203E-02
DAV:   2    -0.144601166988E+03   -0.34145E-04   -0.45948E-04  3184   0.884E-02    0.126E-02
DAV:   3    -0.144601163163E+03    0.38256E-05   -0.14192E-05  1818   0.182E-02    0.912E-03
DAV:   4    -0.144601159698E+03    0.34649E-05   -0.93089E-06  1712   0.143E-02    0.372E-03
DAV:   5    -0.144601157753E+03    0.19446E-05   -0.30098E-06  1736   0.107E-02    0.333E-03
DAV:   6    -0.144601155093E+03    0.26598E-05   -0.21669E-06  1826   0.176E-02
  39 F= -.14460116E+03 E0= -.14459835E+03  d E =-.324988E-03
       N       E                     dE             d eps       ncg     rms          rms(c)
DAV:   1    -0.144600998892E+03    0.15886E-03   -0.70836E-02  2816   0.114E+00    0.344E-02
DAV:   2    -0.144601122877E+03   -0.12398E-03   -0.15440E-03  3192   0.158E-01    0.198E-02
DAV:   3    -0.144601108116E+03    0.14761E-04   -0.26363E-05  2426   0.252E-02    0.144E-02
DAV:   4    -0.144601088606E+03    0.19510E-04   -0.55946E-05  2958   0.376E-02    0.860E-03
DAV:   5    -0.144601085369E+03    0.32369E-05   -0.13410E-05  2044   0.190E-02    0.933E-03
DAV:   6    -0.144601081381E+03    0.39883E-05   -0.11061E-05  1752   0.199E-02
  40 F= -.14460108E+03 E0= -.14459829E+03  d E =-.251275E-03
       N       E                     dE             d eps       ncg     rms          rms(c)
DAV:   1    -0.144601102243E+03   -0.16873E-04   -0.40236E-02  2816   0.855E-01    0.261E-02
DAV:   2    -0.144601167157E+03   -0.64914E-04   -0.83101E-04  3142   0.119E-01    0.149E-02
DAV:   3    -0.144601160347E+03    0.68099E-05   -0.21971E-05  2270   0.239E-02    0.111E-02
DAV:   4    -0.144601154118E+03    0.62295E-05   -0.82467E-06  1842   0.198E-02    0.542E-03
DAV:   5    -0.144601150789E+03    0.33287E-05   -0.10159E-05  1914   0.252E-02    0.431E-03
DAV:   6    -0.144601150507E+03    0.28209E-06   -0.14556E-05  2002   0.238E-02
  41 F= -.14460115E+03 E0= -.14459835E+03  d E =-.320401E-03
       N       E                     dE             d eps       ncg     rms          rms(c)
DAV:   1    -0.144601180111E+03   -0.29322E-04   -0.12903E-01  2940   0.155E+00    0.454E-02
DAV:   2    -0.144601440622E+03   -0.26051E-03   -0.29271E-03  3064   0.217E-01    0.265E-02
DAV:   3    -0.144601423146E+03    0.17476E-04   -0.43615E-05  3012   0.312E-02    0.189E-02
DAV:   4    -0.144601407834E+03    0.15312E-04   -0.25873E-05  2396   0.307E-02    0.820E-03
DAV:   5    -0.144601402474E+03    0.53601E-05   -0.16237E-05  1826   0.287E-02    0.609E-03
DAV:   6    -0.144601400261E+03    0.22125E-05   -0.14918E-05  1854   0.224E-02
  42 F= -.14460140E+03 E0= -.14459862E+03  d E =-.249755E-03
       N       E                     dE             d eps       ncg     rms          rms(c)
DAV:   1    -0.144601101299E+03    0.30117E-03   -0.22047E-01  2940   0.202E+00    0.588E-02
DAV:   2    -0.144601542459E+03   -0.44116E-03   -0.49595E-03  3070   0.282E-01    0.343E-02
DAV:   3    -0.144601505904E+03    0.36555E-04   -0.58522E-05  3126   0.420E-02    0.241E-02
DAV:   4    -0.144601462638E+03    0.43266E-04   -0.51712E-05  2794   0.595E-02    0.913E-03
DAV:   5    -0.144601449883E+03    0.12755E-04   -0.48714E-05  2826   0.465E-02    0.823E-03
DAV:   6    -0.144601445442E+03    0.44409E-05   -0.28178E-05  2324   0.243E-02
  43 F= -.14460145E+03 E0= -.14459871E+03  d E =-.294935E-03
       N       E                     dE             d eps       ncg     rms          rms(c)
DAV:   1    -0.144601414384E+03    0.35499E-04   -0.16105E-01  2942   0.175E+00    0.518E-02
DAV:   2    -0.144601739165E+03   -0.32478E-03   -0.38035E-03  3074   0.244E-01    0.295E-02
DAV:   3    -0.144601703639E+03    0.35526E-04   -0.39552E-05  2862   0.353E-02    0.207E-02
DAV:   4    -0.144601652514E+03    0.51125E-04   -0.46979E-05  2826   0.633E-02    0.738E-03
DAV:   5    -0.144601629808E+03    0.22706E-04   -0.44527E-05  2926   0.492E-02    0.623E-03
DAV:   6    -0.144601614228E+03    0.15580E-04   -0.16551E-05  1960   0.306E-02    0.474E-03
DAV:   7    -0.144601582033E+03    0.32195E-04   -0.73641E-06  1998   0.564E-02    0.398E-03
DAV:   8    -0.144601516201E+03    0.65832E-04   -0.72711E-05  3164   0.150E-01    0.736E-03
DAV:   9    -0.144601504495E+03    0.11706E-04   -0.62417E-05  3054   0.679E-02    0.793E-03
DAV:  10    -0.144601499900E+03    0.45952E-05   -0.44540E-05  2692   0.625E-02
  44 F= -.14460150E+03 E0= -.14459881E+03  d E =-.544580E-04
       N       E                     dE             d eps       ncg     rms          rms(c)
DAV:   1    -0.144601468777E+03    0.35719E-04   -0.56101E-03  2988   0.344E-01    0.102E-02
DAV:   2    -0.144601494209E+03   -0.25433E-04   -0.27824E-04  3026   0.643E-02    0.160E-02
DAV:   3    -0.144601491371E+03    0.28380E-05   -0.41071E-06  1678   0.102E-02    0.123E-02
DAV:   4    -0.144601488239E+03    0.31318E-05   -0.14225E-05  1642   0.151E-02    0.347E-03
DAV:   5    -0.144601487884E+03    0.35493E-06   -0.19327E-06  1508   0.656E-03    0.217E-03
DAV:   6    -0.144601487103E+03    0.78116E-06   -0.66719E-07  1666   0.908E-03
  45 F= -.14460149E+03 E0= -.14459881E+03  d E =-.416614E-04
       N       E                     dE             d eps       ncg     rms          rms(c)
DAV:   1    -0.144601732231E+03   -0.24435E-03   -0.71502E-02  2912   0.116E+00    0.373E-02
DAV:   2    -0.144601847980E+03   -0.11575E-03   -0.17501E-03  3120   0.179E-01    0.233E-02
DAV:   3    -0.144601833592E+03    0.14388E-04   -0.86296E-05  3186   0.446E-02    0.194E-02
DAV:   4    -0.144601823760E+03    0.98321E-05   -0.14931E-05  1776   0.180E-02    0.116E-02
DAV:   5    -0.144601810618E+03    0.13141E-04   -0.28242E-05  2628   0.320E-02    0.778E-03
DAV:   6    -0.144601807526E+03    0.30919E-05   -0.12367E-05  1876   0.248E-02
  46 F= -.14460181E+03 E0= -.14459918E+03  d E =-.320423E-03
       N       E                     dE             d eps       ncg     rms          rms(c)
DAV:   1    -0.144601819002E+03   -0.83836E-05   -0.89179E-03  2924   0.411E-01    0.143E-02
DAV:   2    -0.144601832749E+03   -0.13747E-04   -0.24927E-04  3122   0.692E-02    0.962E-03
DAV:   3    -0.144601828983E+03    0.37664E-05   -0.10213E-05  1752   0.174E-02    0.808E-03
DAV:   4    -0.144601824314E+03    0.46689E-05   -0.37955E-06  1796   0.136E-02    0.416E-03
DAV:   5    -0.144601818914E+03    0.54003E-05   -0.68764E-06  1832   0.257E-02    0.459E-03
DAV:   6    -0.144601815423E+03    0.34905E-05   -0.94920E-06  1976   0.318E-02
  47 F= -.14460182E+03 E0= -.14459920E+03  d E =-.328320E-03
       N       E                     dE             d eps       ncg     rms          rms(c)
DAV:   1    -0.144602055792E+03   -0.23688E-03   -0.10516E-02  2812   0.442E-01    0.185E-02
DAV:   2    -0.144602067425E+03   -0.11633E-04   -0.36134E-04  3130   0.824E-02    0.132E-02
DAV:   3    -0.144602056781E+03    0.10644E-04   -0.15260E-05  2014   0.200E-02    0.104E-02
DAV:   4    -0.144602037727E+03    0.19054E-04   -0.82627E-06  1874   0.280E-02    0.536E-03
DAV:   5    -0.144602016997E+03    0.20730E-04   -0.10431E-05  2018   0.401E-02    0.570E-03
DAV:   6    -0.144601974633E+03    0.42364E-04   -0.50177E-05  3038   0.113E-01    0.768E-03
DAV:   7    -0.144601952135E+03    0.22498E-04   -0.50705E-05  2954   0.832E-02    0.626E-03
DAV:   8    -0.144601939628E+03    0.12507E-04   -0.45127E-05  2904   0.790E-02    0.976E-03
DAV:   9    -0.144601931919E+03    0.77096E-05   -0.15009E-05  2142   0.729E-02
  48 F= -.14460193E+03 E0= -.14459933E+03  d E =-.116495E-03
       N       E                     dE             d eps       ncg     rms          rms(c)
DAV:   1    -0.144601928466E+03    0.11162E-04   -0.57128E-05  2784   0.718E-02    0.391E-03
DAV:   2    -0.144601931711E+03   -0.32447E-05   -0.39291E-05  2382   0.225E-02    0.791E-03
DAV:   3    -0.144601932778E+03   -0.10670E-05   -0.17289E-06  1582   0.593E-03    0.977E-03
DAV:   4    -0.144601932002E+03    0.77576E-06   -0.29153E-07  1498   0.348E-03    0.888E-03
DAV:   5    -0.144601930647E+03    0.13553E-05   -0.17581E-05  1702   0.192E-02    0.414E-03
DAV:   6    -0.144601930529E+03    0.11766E-06   -0.22236E-06  1452   0.731E-03
  49 F= -.14460193E+03 E0= -.14459933E+03  d E =-.115106E-03
       N       E                     dE             d eps       ncg     rms          rms(c)
DAV:   1    -0.144601991684E+03   -0.61037E-04   -0.15288E-02  2992   0.527E-01    0.183E-02
DAV:   2    -0.144602016300E+03   -0.24616E-04   -0.38593E-04  3152   0.848E-02    0.115E-02
DAV:   3    -0.144602012125E+03    0.41749E-05   -0.14977E-05  1842   0.203E-02    0.921E-03
DAV:   4    -0.144602008250E+03    0.38746E-05   -0.60721E-06  1740   0.144E-02    0.464E-03
DAV:   5    -0.144602005694E+03    0.25566E-05   -0.64530E-06  1866   0.187E-02    0.353E-03
DAV:   6    -0.144602005274E+03    0.41991E-06   -0.65842E-06  1554   0.164E-02
  50 F= -.14460201E+03 E0= -.14459941E+03  d E =-.747447E-04
