 vasp.5.3.5 31Mar14 (build Apr 08 2024 10:12:10) complex                        
  
 executed on             LinuxIFC date 2024.07.29  20:09:32
 running on    8 total cores
 distrk:  each k-point on    8 cores,    1 groups
 distr:  one band on NCORES_PER_BAND=   4 cores,    2 groups


--------------------------------------------------------------------------------------------------------


 INCAR:
 POTCAR:    PAW_PBE O 08Apr2002                   
 POTCAR:    PAW_PBE Mg 13Apr2007                  
 POTCAR:    PAW_PBE Al 04Jan2001                  
 POTCAR:    PAW_PBE O 08Apr2002                   
   VRHFIN =O: s2p4                                                              
   LEXCH  = PE                                                                  
   EATOM  =   432.3788 eV,   31.7789 Ry                                         
                                                                                
   TITEL  = PAW_PBE O 08Apr2002                                                 
   LULTRA =        F    use ultrasoft PP ?                                      
   IUNSCR =        1    unscreen: 0-lin 1-nonlin 2-no                           
   RPACOR =    1.200    partial core radius                                     
   POMASS =   16.000; ZVAL   =    6.000    mass and valenz                      
   RCORE  =    1.520    outmost cutoff radius                                   
   RWIGS  =    1.550; RWIGS  =    0.820    wigner-seitz radius (au A)           
   ENMAX  =  400.000; ENMIN  =  300.000 eV                                      
   ICORE  =        2    local potential                                         
   LCOR   =        T    correct aug charges                                     
   LPAW   =        T    paw PP                                                  
   EAUG   =  605.392                                                            
   DEXC   =    0.000                                                            
   RMAX   =    1.553    core radius for proj-oper                               
   RAUG   =    1.300    factor for augmentation sphere                          
   RDEP   =    1.550    radius for radial grids                                 
   RDEPT  =    1.329    core radius for aug-charge                              
                                                                                
   Atomic configuration                                                         
    4 entries                                                                   
     n  l   j            E        occ.                                          
     1  0  0.50      -514.6923   2.0000                                         
     2  0  0.50       -23.9615   2.0000                                         
     2  1  0.50        -9.0305   4.0000                                         
     3  2  1.50        -9.5241   0.0000                                         
   Description                                                                  
     l       E           TYP  RCUT    TYP  RCUT                                 
     0    -23.9615318     23  1.200                                             
     0     -9.5240782     23  1.200                                             
     1     -9.0304911     23  1.520                                             
     1      8.1634956     23  1.520                                             
     2     -9.5240782      7  1.500                                             
  local pseudopotential read in
  partial core-charges read in
  partial kinetic energy density read in
  kinetic energy density of atom read in
  atomic valenz-charges read in
  non local Contribution for L=           0  read in
    real space projection operators read in
  non local Contribution for L=           0  read in
    real space projection operators read in
  non local Contribution for L=           1  read in
    real space projection operators read in
  non local Contribution for L=           1  read in
    real space projection operators read in
    PAW grid and wavefunctions read in
 
   number of l-projection  operators is LMAX  =           4
   number of lm-projection operators is LMMAX =           8
 
 POTCAR:    PAW_PBE Mg 13Apr2007                  
   VRHFIN =Mg: s2p0                                                             
   LEXCH  = PE                                                                  
   EATOM  =    23.0369 eV,    1.6932 Ry                                         
                                                                                
   TITEL  = PAW_PBE Mg 13Apr2007                                                
   LULTRA =        F    use ultrasoft PP ?                                      
   IUNSCR =        1    unscreen: 0-lin 1-nonlin 2-no                           
   RPACOR =    1.500    partial core radius                                     
   POMASS =   24.305; ZVAL   =    2.000    mass and valenz                      
   RCORE  =    2.000    outmost cutoff radius                                   
   RWIGS  =    2.880; RWIGS  =    1.524    wigner-seitz radius (au A)           
   ENMAX  =  200.000; ENMIN  =  100.000 eV                                      
   RCLOC  =    1.506    cutoff for local pot                                    
   LCOR   =        T    correct aug charges                                     
   LPAW   =        T    paw PP                                                  
   EAUG   =  454.734                                                            
   DEXC   =    0.000                                                            
   RMAX   =    2.045    core radius for proj-oper                               
   RAUG   =    1.300    factor for augmentation sphere                          
   RDEP   =    2.025    radius for radial grids                                 
   RDEPT  =    1.942    core radius for aug-charge                              
                                                                                
   Atomic configuration                                                         
    6 entries                                                                   
     n  l   j            E        occ.                                          
     1  0  0.50     -1259.6230   2.0000                                         
     2  0  0.50       -79.8442   2.0000                                         
     2  1  1.50       -46.6121   6.0000                                         
     3  0  0.50        -4.7055   2.0000                                         
     3  1  0.50        -1.3660   0.0000                                         
     3  2  1.50        -1.3606   0.0000                                         
   Description                                                                  
     l       E           TYP  RCUT    TYP  RCUT                                 
     0     -4.7054661     23  2.000                                             
     0     27.2116520     23  2.000                                             
     1      1.3605826     23  2.000                                             
     1     27.2116520     23  2.000                                             
     2     -1.3605826     23  2.000                                             
  local pseudopotential read in
  partial core-charges read in
  partial kinetic energy density read in
  atomic valenz-charges read in
  non local Contribution for L=           0  read in
    real space projection operators read in
  non local Contribution for L=           0  read in
    real space projection operators read in
  non local Contribution for L=           1  read in
    real space projection operators read in
  non local Contribution for L=           1  read in
    real space projection operators read in
  non local Contribution for L=           2  read in
    real space projection operators read in
    PAW grid and wavefunctions read in
 
   number of l-projection  operators is LMAX  =           5
   number of lm-projection operators is LMMAX =          13
 
 POTCAR:    PAW_PBE Al 04Jan2001                  
   VRHFIN =Al: s2p1                                                             
   LEXCH  = PE                                                                  
   EATOM  =    53.5387 eV,    3.9350 Ry                                         
                                                                                
   TITEL  = PAW_PBE Al 04Jan2001                                                
   LULTRA =        F    use ultrasoft PP ?                                      
   IUNSCR =        1    unscreen: 0-lin 1-nonlin 2-no                           
   RPACOR =    1.500    partial core radius                                     
   POMASS =   26.981; ZVAL   =    3.000    mass and valenz                      
   RCORE  =    1.900    outmost cutoff radius                                   
   RWIGS  =    2.650; RWIGS  =    1.402    wigner-seitz radius (au A)           
   ENMAX  =  240.300; ENMIN  =  180.225 eV                                      
   ICORE  =        2    local potential                                         
   LCOR   =        T    correct aug charges                                     
   LPAW   =        T    paw PP                                                  
   EAUG   =  291.052                                                            
   DEXC   =    0.000                                                            
   RMAX   =    1.939    core radius for proj-oper                               
   RAUG   =    1.300    factor for augmentation sphere                          
   RDEP   =    1.966    radius for radial grids                                 
   RDEPT  =    1.856    core radius for aug-charge                              
                                                                                
   Atomic configuration                                                         
    6 entries                                                                   
     n  l   j            E        occ.                                          
     1  0  0.50     -1511.1048   2.0000                                         
     2  0  0.50      -108.1629   2.0000                                         
     2  1  1.50       -69.6402   6.0000                                         
     3  0  0.50        -7.7528   2.0000                                         
     3  1  1.50        -2.7121   1.0000                                         
     3  2  2.50        -2.7212   0.0000                                         
   Description                                                                  
     l       E           TYP  RCUT    TYP  RCUT                                 
     0     -7.7528455     23  1.900                                             
     0     -3.3096929     23  1.900                                             
     1     -2.7120682     23  1.900                                             
     1     13.6058260     23  1.900                                             
     2     -2.7211652      7  1.900                                             
  local pseudopotential read in
  partial core-charges read in
  partial kinetic energy density read in
  atomic valenz-charges read in
  non local Contribution for L=           0  read in
    real space projection operators read in
  non local Contribution for L=           0  read in
    real space projection operators read in
  non local Contribution for L=           1  read in
    real space projection operators read in
  non local Contribution for L=           1  read in
    real space projection operators read in
    PAW grid and wavefunctions read in
 
   number of l-projection  operators is LMAX  =           4
   number of lm-projection operators is LMMAX =           8
 

 ----------------------------------------------------------------------------- 
|                                                                             |
|  ADVICE TO THIS USER RUNNING 'VASP/VAMP'   (HEAR YOUR MASTER'S VOICE ...):  |
|                                                                             |
|      You have a (more or less) 'large supercell' and for larger cells       |
|      it might be more efficient to use real space projection opertators     |
|      So try LREAL= Auto  in the INCAR   file.                               |
|      Mind: At the moment your POTCAR file does not contain real space       |
|       projectors, and has to be modified,  BUT if you                       |
|      want to do an extremely  accurate calculation you might also keep the  |
|      reciprocal projection scheme          (i.e. LREAL=.FALSE.)             |
|                                                                             |
 ----------------------------------------------------------------------------- 

  PAW_PBE O 08Apr2002                   :
 energy of atom  1       EATOM= -432.3788
 kinetic energy error for atom=    0.0208 (will be added to EATOM!!)
  PAW_PBE Mg 13Apr2007                  :
 energy of atom  2       EATOM=  -23.0369
 kinetic energy error for atom=    0.0000 (will be added to EATOM!!)
  PAW_PBE Al 04Jan2001                  :
 energy of atom  3       EATOM=  -53.5387
 kinetic energy error for atom=    0.0002 (will be added to EATOM!!)
 
 
 POSCAR: Layer                                   
  positions in direct lattice
  velocities in cartesian coordinates
 exchange correlation table for  LEXCH =        8
   RHO(1)=    0.500       N(1)  =     2000
   RHO(2)=  100.500       N(2)  =     4000
 


--------------------------------------------------------------------------------------------------------


 ion  position               nearest neighbor table
   1  0.000  0.000  0.278-  14 2.15  14 2.15  14 2.15  18 2.18  18 2.18  18 2.18
   2  0.333  0.667  0.333-  14 2.15  14 2.15  14 2.15  11 2.15  11 2.15  11 2.15
   3  0.000  0.000  0.442-  15 2.15  15 2.15  15 2.15  19 2.15  19 2.15  19 2.15
   4  0.333  0.667  0.497-  12 2.15  12 2.15  12 2.15  15 2.15  15 2.15  15 2.15
   5  0.000  0.000  0.606-  20 2.15  20 2.15  20 2.15  16 2.15  16 2.15  16 2.15
   6  0.333  0.667  0.661-  16 2.15  16 2.15  16 2.15  13 2.15  13 2.15  13 2.15
   7  0.000  0.000  0.771-  21 2.15  21 2.15  21 2.15  17 2.18  17 2.18  17 2.18
   8  0.667  0.333  0.388-  19 2.15  19 2.15  19 2.15  11 2.15  11 2.15  11 2.15
   9  0.667  0.333  0.552-  12 2.15  12 2.15  12 2.15  20 2.15  20 2.15  20 2.15
  10  0.667  0.333  0.716-  21 2.15  21 2.15  21 2.15  13 2.15  13 2.15  13 2.15
  11  0.000  0.000  0.360-   8 2.15   8 2.15   8 2.15   2 2.15   2 2.15   2 2.15  14 3.09  14 3.09
                            14 3.09  19 3.09  19 3.09  19 3.09
  12  0.000  0.000  0.524-   9 2.15   9 2.15   9 2.15   4 2.15   4 2.15   4 2.15  15 3.08  15 3.08
                            15 3.08  20 3.08  20 3.08  20 3.08
  13  0.000  0.000  0.688-   6 2.15   6 2.15   6 2.15  10 2.15  10 2.15  10 2.15  21 3.09  21 3.09
                            21 3.09  16 3.09  16 3.09  16 3.09
  14  0.667  0.333  0.305-   2 2.15   2 2.15   2 2.15   1 2.15   1 2.15   1 2.15  11 3.09  11 3.09
                            11 3.09  18 3.12  18 3.12  18 3.12
  15  0.667  0.333  0.470-   4 2.15   4 2.15   4 2.15   3 2.15   3 2.15   3 2.15  12 3.08  12 3.08
                            12 3.08  19 3.08  19 3.08  19 3.08
  16  0.667  0.333  0.634-   6 2.15   6 2.15   6 2.15   5 2.15   5 2.15   5 2.15  20 3.08  20 3.08
                            20 3.08  13 3.09  13 3.09  13 3.09
  17  0.667  0.333  0.799-   7 2.18   7 2.18   7 2.18  21 3.12  21 3.12  21 3.12  26 3.25  26 3.25
                            26 3.25
  18  0.333  0.667  0.250-   1 2.18   1 2.18   1 2.18  14 3.12  14 3.12  14 3.12  23 3.25  23 3.25
                            23 3.25
  19  0.333  0.667  0.415-   3 2.15   3 2.15   3 2.15   8 2.15   8 2.15   8 2.15  15 3.08  15 3.08
                            15 3.08  11 3.09  11 3.09  11 3.09
  20  0.333  0.667  0.579-   9 2.15   9 2.15   9 2.15   5 2.15   5 2.15   5 2.15  12 3.08  12 3.08
                            12 3.08  16 3.08  16 3.08  16 3.08
  21  0.333  0.667  0.743-  10 2.15  10 2.15  10 2.15   7 2.15   7 2.15   7 2.15  13 3.09  13 3.09
                            13 3.09  17 3.12  17 3.12  17 3.12
  22  0.000  0.000  0.024-  25 3.09  25 3.09  25 3.09  27 3.09  27 3.09  27 3.09
  23  0.000  0.000  0.191-  24 3.16  24 3.16  24 3.16  18 3.25  18 3.25  18 3.25
  24  0.667  0.333  0.134-  25 3.09  25 3.09  25 3.09  23 3.16  23 3.16  23 3.16
  25  0.333  0.667  0.079-  22 3.09  22 3.09  22 3.09  24 3.09  24 3.09  24 3.09
  26  0.000  0.000  0.858-  28 3.16  28 3.16  28 3.16  17 3.25  17 3.25  17 3.25
  27  0.667  0.333  0.970-  22 3.09  22 3.09  22 3.09  28 3.09  28 3.09  28 3.09
  28  0.333  0.667  0.915-  27 3.09  27 3.09  27 3.09  26 3.16  26 3.16  26 3.16
 
  LATTYP: Found a hexagonal cell.
 ALAT       =     2.9932160299
 C/A-ratio  =    15.6018709825
  
  Lattice vectors:
  
 A1 = (   2.5922013181,  -1.4966076735,   0.0000000000)
 A2 = (   0.0000000000,   2.9932153469,   0.0000000000)
 A3 = (  -0.0000000000,   0.0000000000,  46.6997703221)


Analysis of symmetry for initial positions (statically):
=====================================================================
 Subroutine PRICEL returns:
 Original cell was already a primitive cell.
 

 Routine SETGRP: Setting up the symmetry group for a 
 hexagonal supercell.


 Subroutine GETGRP returns: Found 12 space group operations
 (whereof  6 operations were pure point group operations)
 out of a pool of 24 trial point group operations.


The static configuration has the point symmetry C_3v.
 The point group associated with its full space group is D_3d.


Analysis of symmetry for dynamics (positions and initial velocities):
=====================================================================
 Subroutine PRICEL returns:
 Original cell was already a primitive cell.
 

 Routine SETGRP: Setting up the symmetry group for a 
 hexagonal supercell.


 Subroutine GETGRP returns: Found 12 space group operations
 (whereof  6 operations were pure point group operations)
 out of a pool of 24 trial point group operations.


The dynamic configuration has the point symmetry C_3v.
 The point group associated with its full space group is D_3d.


Analysis of constrained symmetry for selective dynamics:
=====================================================================
 Subroutine PRICEL returns:
 Original cell was already a primitive cell.
 

 Routine SETGRP: Setting up the symmetry group for a 
 hexagonal supercell.


 Subroutine GETGRP returns: Found 12 space group operations
 (whereof  6 operations were pure point group operations)
 out of a pool of 24 trial point group operations.


The constrained configuration has the point symmetry C_3v.
 The point group associated with its full space group is D_3d.
 
 
 KPOINTS: K-Spacing Value to Generate K-Mesh: 0.02

Automatic generation of k-mesh.
Space group operators:
 irot       det(A)        alpha          n_x          n_y          n_z        tau_x        tau_y        tau_z
    1     1.000000     0.000001     1.000000     0.000000     0.000000     0.000000     0.000000     0.000000
    2     1.000000   120.000000     0.000000     0.000000    -1.000000     0.000000     0.000000     0.000000
    3     1.000000   120.000000    -0.000000     0.000000     1.000000     0.000000     0.000000     0.000000
    4    -1.000000   180.000000    -0.866025     0.500000    -0.000000     0.000000     0.000000     0.000000
    5    -1.000000   179.999999     0.000000     1.000000     0.000000     0.000000     0.000000     0.000000
    6    -1.000000   180.000000    -0.866025    -0.500000    -0.000000     0.000000     0.000000     0.000000
    7    -1.000000     0.000001     1.000000     0.000000     0.000000     0.000000     0.000000     0.048638
    8    -1.000000   120.000000     0.000000     0.000000    -1.000000     0.000000     0.000000     0.048638
    9    -1.000000   120.000000    -0.000000     0.000000     1.000000     0.000001     0.000000     0.048638
   10     1.000000   180.000000    -0.866025     0.500000    -0.000000     0.000001     0.000000     0.048638
   11     1.000000   179.999999     0.000000     1.000000     0.000000     0.000000     0.000000     0.048638
   12     1.000000   180.000000    -0.866025    -0.500000    -0.000000     0.000000     0.000000     0.048638
 
 Subroutine IBZKPT returns following result:
 ===========================================
 
 Found     21 irreducible k-points:
 
 Following reciprocal coordinates:
            Coordinates               Weight
  0.000000  0.000000  0.000000      1.000000
  0.076923  0.000000  0.000000      6.000000
  0.153846  0.000000  0.000000      6.000000
  0.230769  0.000000  0.000000      6.000000
  0.307692  0.000000  0.000000      6.000000
  0.384615  0.000000 -0.000000      6.000000
  0.461538  0.000000  0.000000      6.000000
  0.076923  0.076923 -0.000000      6.000000
  0.153846  0.076923  0.000000     12.000000
  0.230769  0.076923  0.000000     12.000000
  0.307692  0.076923  0.000000     12.000000
  0.384615  0.076923 -0.000000     12.000000
  0.461538  0.076923  0.000000      6.000000
  0.153846  0.153846  0.000000      6.000000
  0.230769  0.153846 -0.000000     12.000000
  0.307692  0.153846  0.000000     12.000000
  0.384615  0.153846 -0.000000     12.000000
  0.230769  0.230769  0.000000      6.000000
  0.307692  0.230769  0.000000     12.000000
  0.384615  0.230769 -0.000000      6.000000
  0.307692  0.307692 -0.000000      6.000000
 
 Following cartesian coordinates:
            Coordinates               Weight
  0.000000  0.000000  0.000000      1.000000
  0.029675  0.000000  0.000000      6.000000
  0.059350  0.000000  0.000000      6.000000
  0.089024  0.000000  0.000000      6.000000
  0.118699  0.000000  0.000000      6.000000
  0.148374  0.000000  0.000000      6.000000
  0.178049  0.000000  0.000000      6.000000
  0.044512  0.025699  0.000000      6.000000
  0.074187  0.025699  0.000000     12.000000
  0.103862  0.025699  0.000000     12.000000
  0.133537  0.025699  0.000000     12.000000
  0.163211  0.025699  0.000000     12.000000
  0.192886  0.025699  0.000000      6.000000
  0.089024  0.051398  0.000000      6.000000
  0.118699  0.051398  0.000000     12.000000
  0.148374  0.051398  0.000000     12.000000
  0.178049  0.051398  0.000000     12.000000
  0.133537  0.077097  0.000000      6.000000
  0.163211  0.077097  0.000000     12.000000
  0.192886  0.077097  0.000000      6.000000
  0.178049  0.102797  0.000000      6.000000
 


--------------------------------------------------------------------------------------------------------




 Dimension of arrays:
   k-points           NKPTS =     21   k-points in BZ     NKDIM =     21   number of bands    NBANDS=     66
   number of dos      NEDOS =    301   number of ions     NIONS =     28
   non local maximal  LDIM  =      5   non local SUM 2l+1 LMDIM =     13
   total plane-waves  NPLWV = 201600
   max r-space proj   IRMAX =      1   max aug-charges    IRDMAX= 189256
   dimension x,y,z NGX =    24 NGY =   24 NGZ =  350
   dimension x,y,z NGXF=    48 NGYF=   48 NGZF=  700
   support grid    NGXF=    96 NGYF=   96 NGZF= 1400
   ions per type =              10  11   7
 NGX,Y,Z   is equivalent  to a cutoff of  13.33, 13.33, 12.46 a.u.
 NGXF,Y,Z  is equivalent  to a cutoff of  26.66, 26.66, 24.92 a.u.


 I would recommend the setting:
   dimension x,y,z NGX =    22 NGY =   22 NGZ =  347
 SYSTEM =  unknown system                          
 POSCAR =  Layer                                   

 Startparameter for this run:
   NWRITE =      2    write-flag & timer
   PREC   = accura    normal or accurate (medium, high low for compatibility)
   ISTART =      0    job   : 0-new  1-cont  2-samecut
   ICHARG =      2    charge: 1-file 2-atom 10-const
   ISPIN  =      1    spin polarized calculation?
   LNONCOLLINEAR =      F non collinear calculations
   LSORBIT =      F    spin-orbit coupling
   INIWAV =      1    electr: 0-lowe 1-rand  2-diag
   LASPH  =      F    aspherical Exc in radial PAW
   METAGGA=      F    non-selfconsistent MetaGGA calc.

 Electronic Relaxation 1
   ENCUT  =  520.0 eV  38.22 Ry    6.18 a.u.   5.57  5.57 86.83*2*pi/ulx,y,z
   ENINI  =  520.0     initial cutoff
   ENAUG  =  605.4 eV  augmentation charge cutoff
   NELM   =    100;   NELMIN=  6; NELMDL=  0     # of ELM steps 
   EDIFF  = 0.1E-04   stopping-criterion for ELM
   LREAL  =      F    real-space projection
   NLSPLINE    = F    spline interpolate recip. space projectors
   LCOMPAT=      F    compatible to vasp.4.4
   GGA_COMPAT  = T    GGA compatible to vasp.4.4-vasp.4.6
   LMAXPAW     = -100 max onsite density
   LMAXMIX     =    2 max onsite mixed and CHGCAR
   VOSKOWN=      0    Vosko Wilk Nusair interpolation
   ROPT   =    0.00000   0.00000   0.00000
 Ionic relaxation
   EDIFFG = -.2E-01   stopping-criterion for IOM
   NSW    =    500    number of steps for IOM
   NBLOCK =      1;   KBLOCK =    500    inner block; outer block 
   IBRION =      2    ionic relax: 0-MD 1-quasi-New 2-CG
   NFREE  =      1    steps in history (QN), initial steepest desc. (CG)
   ISIF   =      2    stress and relaxation
   IWAVPR =     11    prediction:  0-non 1-charg 2-wave 3-comb
   ISYM   =      2    0-nonsym 1-usesym 2-fastsym
   LCORR  =      T    Harris-Foulkes like correction to forces

   POTIM  = 0.5000    time-step for ionic-motion
   TEIN   =    0.0    initial temperature
   TEBEG  =    0.0;   TEEND  =   0.0 temperature during run
   SMASS  =  -3.00    Nose mass-parameter (am)
   estimated Nose-frequenzy (Omega)   =  0.10E-29 period in steps =****** mass=  -0.205E-27a.u.
   SCALEE = 1.0000    scale energy and forces
   NPACO  =    256;   APACO  = 16.0  distance and # of slots for P.C.
   PSTRESS=    0.0 pullay stress

  Mass of Ions in am
   POMASS =  16.00 24.30 26.98
  Ionic Valenz
   ZVAL   =   6.00  2.00  3.00
  Atomic Wigner-Seitz radii
   RWIGS  =  -1.00 -1.00 -1.00
  virtual crystal weights 
   VCA    =   1.00  1.00  1.00
   NELECT =     103.0000    total number of electrons
   NUPDOWN=      -1.0000    fix difference up-down

 DOS related values:
   EMIN   =  10.00;   EMAX   =-10.00  energy-range for DOS
   EFERMI =   0.00
   ISMEAR =     0;   SIGMA  =   0.05  broadening in eV -4-tet -1-fermi 0-gaus

 Electronic relaxation 2 (details)
   IALGO  =     38    algorithm
   LDIAG  =      T    sub-space diagonalisation (order eigenvalues)
   LSUBROT=      F    optimize rotation matrix (better conditioning)
   TURBO    =      0    0=normal 1=particle mesh
   IRESTART =      0    0=no restart 2=restart with 2 vectors
   NREBOOT  =      0    no. of reboots
   NMIN     =      0    reboot dimension
   EREF     =   0.00    reference energy to select bands
   IMIX   =      4    mixing-type and parameters
     AMIX     =   0.40;   BMIX     =  1.00
     AMIX_MAG =   1.60;   BMIX_MAG =  1.00
     AMIN     =   0.01
     WC   =   100.;   INIMIX=   1;  MIXPRE=   1;  MAXMIX= -45

 Intra band minimization:
   WEIMIN = 0.0010     energy-eigenvalue tresh-hold
   EBREAK =  0.38E-07  absolut break condition
   DEPER  =   0.30     relativ break condition  

   TIME   =   0.40     timestep for ELM

  volume/ion in A,a.u.               =      12.94        87.33
  Fermi-wavevector in a.u.,A,eV,Ry     =   1.076416  2.034131 15.764678  1.158671
  Thomas-Fermi vector in A             =   2.212300
 
 Write flags
   LWAVE  =      F    write WAVECAR
   LCHARG =      T    write CHGCAR
   LVTOT  =      F    write LOCPOT, total local potential
   LVHAR  =      F    write LOCPOT, Hartree potential only
   LELF   =      F    write electronic localiz. function (ELF)
   LORBIT =      0    0 simple, 1 ext, 2 COOP (PROOUT)


 Dipole corrections
   LMONO  =      F    monopole corrections only (constant potential shift)
   LDIPOL =      F    correct potential (dipole corrections)
   IDIPOL =      0    1-x, 2-y, 3-z, 4-all directions 
   EPSILON=  1.0000000 bulk dielectric constant

 Exchange correlation treatment:
   GGA     =    --    GGA type
   LEXCH   =     8    internal setting for exchange type
   VOSKOWN=      0    Vosko Wilk Nusair interpolation
   LHFCALC =     F    Hartree Fock is set to
   LHFONE  =     F    Hartree Fock one center treatment
   AEXX    =    0.0000 exact exchange contribution

 Linear response parameters
   LEPSILON=     F    determine dielectric tensor
   LRPA    =     F    only Hartree local field effects (RPA)
   LNABLA  =     F    use nabla operator in PAW spheres
   LVEL    =     F    velocity operator in full k-point grid
   LINTERFAST=   F  fast interpolation
   KINTER  =     0    interpolate to denser k-point grid
   CSHIFT  =0.1000    complex shift for real part using Kramers Kronig
   OMEGAMAX=  -1.0    maximum frequency
   DEG_THRESHOLD= 0.2000000E-02 threshold for treating states as degnerate
   RTIME   =    0.100 relaxation time in fs

 Orbital magnetization related:
   ORBITALMAG=     F  switch on orbital magnetization
   LCHIMAG   =     F  perturbation theory with respect to B field
   DQ        =  0.001000  dq finite difference perturbation B field



--------------------------------------------------------------------------------------------------------


 conjugate gradient relaxation of ions
   using selective dynamics as specified on POSCAR
 charge density and potential will be updated during run
 non-spin polarized calculation
 Variant of blocked Davidson
 Davidson routine will perform the subspace rotation
 perform sub-space diagonalisation
    after iterative eigenvector-optimisation
 modified Broyden-mixing scheme, WC =      100.0
 initial mixing is a Kerker type mixing with AMIX =  0.4000 and BMIX =      1.0000
 Hartree-type preconditioning will be used
 using additional bands           14
 reciprocal scheme for non local part
 use partial core corrections
 calculate Harris-corrections to forces 
   (improved forces if not selfconsistent)
 use gradient corrections 
 use of overlap-Matrix (Vanderbilt PP)
 Gauss-broadening in eV      SIGMA  =   0.05


--------------------------------------------------------------------------------------------------------


  energy-cutoff  :      520.00
  volume of cell :      362.34
      direct lattice vectors                 reciprocal lattice vectors
     2.592201318 -1.496607673  0.000000000     0.385772507  0.000000000  0.000000000
     0.000000000  2.993215347  0.000000000     0.192886253  0.334088892  0.000000000
    -0.000000000  0.000000000 46.699770322     0.000000000  0.000000000  0.021413382

  length of vectors
     2.993216030  2.993215347 46.699770322     0.385772507  0.385772595  0.021413382


 
 k-points in units of 2pi/SCALE and weight: K-Spacing Value to Generate K-Mesh: 0.02
   0.00000000  0.00000000  0.00000000       0.006
   0.02967481  0.00000000  0.00000000       0.036
   0.05934962  0.00000000  0.00000000       0.036
   0.08902442  0.00000000  0.00000000       0.036
   0.11869923  0.00000000  0.00000000       0.036
   0.14837404  0.00000000  0.00000000       0.036
   0.17804885  0.00000000  0.00000000       0.036
   0.04451221  0.02569915  0.00000000       0.036
   0.07418702  0.02569915  0.00000000       0.071
   0.10386183  0.02569915  0.00000000       0.071
   0.13353664  0.02569915  0.00000000       0.071
   0.16321145  0.02569915  0.00000000       0.071
   0.19288625  0.02569915  0.00000000       0.036
   0.08902442  0.05139829  0.00000000       0.036
   0.11869923  0.05139829  0.00000000       0.071
   0.14837404  0.05139829  0.00000000       0.071
   0.17804885  0.05139829  0.00000000       0.071
   0.13353664  0.07709744  0.00000000       0.036
   0.16321145  0.07709744  0.00000000       0.071
   0.19288625  0.07709744  0.00000000       0.036
   0.17804885  0.10279658  0.00000000       0.036
 
 k-points in reciprocal lattice and weights: K-Spacing Value to Generate K-Mesh: 0.02
   0.00000000  0.00000000  0.00000000       0.006
   0.07692308  0.00000000  0.00000000       0.036
   0.15384615  0.00000000  0.00000000       0.036
   0.23076923  0.00000000  0.00000000       0.036
   0.30769231  0.00000000  0.00000000       0.036
   0.38461538  0.00000000 -0.00000000       0.036
   0.46153846  0.00000000  0.00000000       0.036
   0.07692308  0.07692308 -0.00000000       0.036
   0.15384615  0.07692308  0.00000000       0.071
   0.23076923  0.07692308  0.00000000       0.071
   0.30769231  0.07692308  0.00000000       0.071
   0.38461538  0.07692308 -0.00000000       0.071
   0.46153846  0.07692308  0.00000000       0.036
   0.15384615  0.15384615  0.00000000       0.036
   0.23076923  0.15384615 -0.00000000       0.071
   0.30769231  0.15384615  0.00000000       0.071
   0.38461538  0.15384615 -0.00000000       0.071
   0.23076923  0.23076923  0.00000000       0.036
   0.30769231  0.23076923  0.00000000       0.071
   0.38461538  0.23076923 -0.00000000       0.036
   0.30769231  0.30769231 -0.00000000       0.036
 
 position of ions in fractional coordinates (direct lattice) 
   0.00000000  0.00000000  0.27812677
   0.33333300  0.66666700  0.33284575
   0.00000000  0.00000000  0.44233134
   0.33333300  0.66666700  0.49702198
   0.00000000  0.00000000  0.60630585
   0.33333300  0.66666700  0.66104057
   0.00000000  0.00000000  0.77051842
   0.66666700  0.33333300  0.38759966
   0.66666700  0.33333300  0.55161357
   0.66666700  0.33333300  0.71579747
   0.00000000  0.00000000  0.36022404
   0.00000000  0.00000000  0.52431823
   0.00000000  0.00000000  0.68841723
   0.66666700  0.33333300  0.30548700
   0.66666700  0.33333300  0.46968327
   0.66666700  0.33333300  0.63367363
   0.66666700  0.33333300  0.79881419
   0.33333300  0.66666700  0.24983115
   0.33333300  0.66666700  0.41496574
   0.33333300  0.66666700  0.57895387
   0.33333300  0.66666700  0.74315627
   0.00000000  0.00000000  0.02431958
   0.00000000  0.00000000  0.19081591
   0.66666700  0.33333300  0.13408064
   0.33333300  0.66666700  0.07910990
   0.00000000  0.00000000  0.85783035
   0.66666700  0.33333300  0.96952837
   0.33333300  0.66666700  0.91456025
 
 position of ions in cartesian coordinates  (Angst):
  -0.00000000  0.00000000 12.98845639
   0.86406624  1.49660917 15.54381998
  -0.00000000  0.00000000 20.65677211
   0.86406624  1.49660917 23.21081227
  -0.00000000  0.00000000 28.31434386
   0.86406624  1.49660917 30.87044301
  -0.00000000  0.00000000 35.98303324
   1.72813508 -0.00000150 18.10081517
   1.72813508 -0.00000150 25.76022696
   1.72813508 -0.00000150 33.42757754
  -0.00000000  0.00000000 16.82237985
  -0.00000000  0.00000000 24.48554110
  -0.00000000  0.00000000 32.14892663
   1.72813508 -0.00000150 14.26617257
   1.72813508 -0.00000150 21.93410094
   1.72813508 -0.00000150 29.59241312
   1.72813508 -0.00000150 37.30443901
   0.86406624  1.49660917 11.66705724
   0.86406624  1.49660917 19.37880490
   0.86406624  1.49660917 27.03701255
   0.86406624  1.49660917 34.70522725
  -0.00000000  0.00000000  1.13571886
  -0.00000000  0.00000000  8.91105898
   1.72813508 -0.00000150  6.26153490
   0.86406624  1.49660917  3.69441421
  -0.00000000  0.00000000 40.06048039
   1.72813508 -0.00000150 45.27675210
   0.86406624  1.49660917 42.70975355
 


--------------------------------------------------------------------------------------------------------


 k-point  1 :   0.0000 0.0000 0.0000  plane waves:    9893
 k-point  2 :   0.0769 0.0000 0.0000  plane waves:    9895
 k-point  3 :   0.1538 0.0000 0.0000  plane waves:    9855
 k-point  4 :   0.2308 0.0000 0.0000  plane waves:    9802
 k-point  5 :   0.3077 0.0000 0.0000  plane waves:    9752
 k-point  6 :   0.3846 0.0000-0.0000  plane waves:    9700
 k-point  7 :   0.4615 0.0000 0.0000  plane waves:    9710
 k-point  8 :   0.0769 0.0769-0.0000  plane waves:    9861
 k-point  9 :   0.1538 0.0769 0.0000  plane waves:    9842
 k-point 10 :   0.2308 0.0769 0.0000  plane waves:    9779
 k-point 11 :   0.3077 0.0769 0.0000  plane waves:    9742
 k-point 12 :   0.3846 0.0769-0.0000  plane waves:    9702
 k-point 13 :   0.4615 0.0769 0.0000  plane waves:    9676
 k-point 14 :   0.1538 0.1538 0.0000  plane waves:    9791
 k-point 15 :   0.2308 0.1538-0.0000  plane waves:    9758
 k-point 16 :   0.3077 0.1538 0.0000  plane waves:    9726
 k-point 17 :   0.3846 0.1538-0.0000  plane waves:    9692
 k-point 18 :   0.2308 0.2308 0.0000  plane waves:    9752
 k-point 19 :   0.3077 0.2308 0.0000  plane waves:    9695
 k-point 20 :   0.3846 0.2308-0.0000  plane waves:    9722
 k-point 21 :   0.3077 0.3077-0.0000  plane waves:    9750

 maximum and minimum number of plane-waves per node :      2495     2399

 maximum number of plane-waves:      9895
 maximum index in each direction: 
   IXMAX=    5   IYMAX=    5   IZMAX=   86
   IXMIN=   -6   IYMIN=   -5   IZMIN=  -86

 NGX is ok and might be reduce to  24
 NGY is ok and might be reduce to  22
 NGZ is ok and might be reduce to 346

 parallel 3D FFT for wavefunctions:
    minimum data exchange during FFTs selected (reduces bandwidth)
 parallel 3D FFT for charge:
    minimum data exchange during FFTs selected (reduces bandwidth)


 total amount of memory used by VASP on root node   160435. kBytes
========================================================================

   base      :      30000. kBytes
   nonl-proj :      17430. kBytes
   fftplans  :      60350. kBytes
   grid      :      24192. kBytes
   one-center:         56. kBytes
   wavefun   :      28407. kBytes
 
     INWAV:  cpu time    0.00: real time    0.00
 Broyden mixing: mesh for mixing (old mesh)
   NGX = 11   NGY = 11   NGZ =173
  (NGX  = 48   NGY  = 48   NGZ  =700)
  gives a total of  20933 points

 initial charge density was supplied:
 charge density of overlapping atoms calculated
 number of electron     103.0000000 magnetization 
 keeping initial charge density in first step


--------------------------------------------------------------------------------------------------------


 Maximum index for augmentation-charges        22788 (set IRDMAX)


--------------------------------------------------------------------------------------------------------


 First call to EWALD:  gamma=   0.249
 Maximum number of real-space cells 7x 7x 1
 Maximum number of reciprocal cells 1x 1x15

 FEWALD executed in parallel
    FEWALD:  cpu time    0.00: real time    0.00


----------------------------------------- Iteration    1(   1)  ---------------------------------------


    POTLOK:  cpu time    0.12: real time    0.12
    SETDIJ:  cpu time    0.12: real time    0.12
     EDDAV:  cpu time    5.02: real time    5.06
       DOS:  cpu time    0.00: real time    0.00
    --------------------------------------------
      LOOP:  cpu time    5.26: real time    5.29

 eigenvalue-minimisations  :  2804
 total energy-change (2. order) : 0.5273681E+03  (-0.4506386E+04)
 number of electron     103.0000000 magnetization 
 augmentation part      103.0000000 magnetization 

 Free energy of the ion-electron system (eV)
  ---------------------------------------------------
  alpha Z        PSCENC =       133.96746930
  Ewald energy   TEWEN  =     20515.15946489
  -Hartree energ DENC   =    -25707.58817806
  -exchange      EXHF   =         0.00000000
  -V(xc)+E(xc)   XCENC  =      -441.29859599
  PAW double counting   =      4647.26951674    -3871.08436696
  entropy T*S    EENTRO =        -0.00615178
  eigenvalues    EBANDS =       299.19441433
  atomic energy  EATOM  =      4951.75456612
  ---------------------------------------------------
  free energy    TOTEN  =       527.36813857 eV

  energy without entropy =      527.37429035  energy(sigma->0) =      527.37121446


--------------------------------------------------------------------------------------------------------




----------------------------------------- Iteration    1(   2)  ---------------------------------------


     EDDAV:  cpu time    6.09: real time    6.10
       DOS:  cpu time    0.00: real time    0.00
    --------------------------------------------
      LOOP:  cpu time    6.09: real time    6.10

 eigenvalue-minimisations  :  3620
 total energy-change (2. order) :-0.6252041E+03  (-0.5943303E+03)
 number of electron     103.0000000 magnetization 
 augmentation part      103.0000000 magnetization 

 Free energy of the ion-electron system (eV)
  ---------------------------------------------------
  alpha Z        PSCENC =       133.96746930
  Ewald energy   TEWEN  =     20515.15946489
  -Hartree energ DENC   =    -25707.58817806
  -exchange      EXHF   =         0.00000000
  -V(xc)+E(xc)   XCENC  =      -441.29859599
  PAW double counting   =      4647.26951674    -3871.08436696
  entropy T*S    EENTRO =        -0.00417499
  eigenvalues    EBANDS =      -326.01171200
  atomic energy  EATOM  =      4951.75456612
  ---------------------------------------------------
  free energy    TOTEN  =       -97.83601096 eV

  energy without entropy =      -97.83183597  energy(sigma->0) =      -97.83392347


--------------------------------------------------------------------------------------------------------




----------------------------------------- Iteration    1(   3)  ---------------------------------------


     EDDAV:  cpu time    5.59: real time    5.59
       DOS:  cpu time    0.00: real time    0.00
    --------------------------------------------
      LOOP:  cpu time    5.59: real time    5.60

 eigenvalue-minimisations  :  3256
 total energy-change (2. order) :-0.6223522E+02  (-0.6189761E+02)
 number of electron     103.0000000 magnetization 
 augmentation part      103.0000000 magnetization 

 Free energy of the ion-electron system (eV)
  ---------------------------------------------------
  alpha Z        PSCENC =       133.96746930
  Ewald energy   TEWEN  =     20515.15946489
  -Hartree energ DENC   =    -25707.58817806
  -exchange      EXHF   =         0.00000000
  -V(xc)+E(xc)   XCENC  =      -441.29859599
  PAW double counting   =      4647.26951674    -3871.08436696
  entropy T*S    EENTRO =        -0.00494911
  eigenvalues    EBANDS =      -388.24615931
  atomic energy  EATOM  =      4951.75456612
  ---------------------------------------------------
  free energy    TOTEN  =      -160.07123239 eV

  energy without entropy =     -160.06628328  energy(sigma->0) =     -160.06875784


--------------------------------------------------------------------------------------------------------




----------------------------------------- Iteration    1(   4)  ---------------------------------------


     EDDAV:  cpu time    5.53: real time    5.54
       DOS:  cpu time    0.00: real time    0.00
    --------------------------------------------
      LOOP:  cpu time    5.54: real time    5.55

 eigenvalue-minimisations  :  3192
 total energy-change (2. order) :-0.8387731E+00  (-0.8372915E+00)
 number of electron     103.0000000 magnetization 
 augmentation part      103.0000000 magnetization 

 Free energy of the ion-electron system (eV)
  ---------------------------------------------------
  alpha Z        PSCENC =       133.96746930
  Ewald energy   TEWEN  =     20515.15946489
  -Hartree energ DENC   =    -25707.58817806
  -exchange      EXHF   =         0.00000000
  -V(xc)+E(xc)   XCENC  =      -441.29859599
  PAW double counting   =      4647.26951674    -3871.08436696
  entropy T*S    EENTRO =        -0.00415891
  eigenvalues    EBANDS =      -389.08572263
  atomic energy  EATOM  =      4951.75456612
  ---------------------------------------------------
  free energy    TOTEN  =      -160.91000552 eV

  energy without entropy =     -160.90584661  energy(sigma->0) =     -160.90792606


--------------------------------------------------------------------------------------------------------




----------------------------------------- Iteration    1(   5)  ---------------------------------------


     EDDAV:  cpu time    5.62: real time    5.63
       DOS:  cpu time    0.00: real time    0.00
    CHARGE:  cpu time    0.44: real time    0.44
    MIXING:  cpu time    0.00: real time    0.00
    --------------------------------------------
      LOOP:  cpu time    6.07: real time    6.08

 eigenvalue-minimisations  :  3366
 total energy-change (2. order) :-0.1329678E-01  (-0.1329045E-01)
 number of electron     103.0000001 magnetization 
 augmentation part        7.6959700 magnetization 

 Broyden mixing:
  rms(total) = 0.23082E+01    rms(broyden)= 0.23077E+01
  rms(prec ) = 0.23564E+01
  weight for this iteration     100.00

 Free energy of the ion-electron system (eV)
  ---------------------------------------------------
  alpha Z        PSCENC =       133.96746930
  Ewald energy   TEWEN  =     20515.15946489
  -Hartree energ DENC   =    -25707.58817806
  -exchange      EXHF   =         0.00000000
  -V(xc)+E(xc)   XCENC  =      -441.29859599
  PAW double counting   =      4647.26951674    -3871.08436696
  entropy T*S    EENTRO =        -0.00413511
  eigenvalues    EBANDS =      -389.09904321
  atomic energy  EATOM  =      4951.75456612
  ---------------------------------------------------
  free energy    TOTEN  =      -160.92330229 eV

  energy without entropy =     -160.91916718  energy(sigma->0) =     -160.92123474


--------------------------------------------------------------------------------------------------------




----------------------------------------- Iteration    1(   6)  ---------------------------------------


    POTLOK:  cpu time    0.11: real time    0.11
    SETDIJ:  cpu time    0.11: real time    0.11
     EDDAV:  cpu time    5.47: real time    5.48
       DOS:  cpu time    0.00: real time    0.00
    CHARGE:  cpu time    0.45: real time    0.45
    MIXING:  cpu time    0.00: real time    0.00
    --------------------------------------------
      LOOP:  cpu time    6.14: real time    6.15

 eigenvalue-minimisations  :  3118
 total energy-change (2. order) : 0.1608847E+02  (-0.9430845E+01)
 number of electron     103.0000001 magnetization 
 augmentation part        6.2034717 magnetization 

 Broyden mixing:
  rms(total) = 0.78865E+00    rms(broyden)= 0.78771E+00
  rms(prec ) = 0.79454E+00
  weight for this iteration     100.00

 eigenvalues of (default mixing * dielectric matrix)
  average eigenvalue GAMMA=   0.8334
  0.8334

 Free energy of the ion-electron system (eV)
  ---------------------------------------------------
  alpha Z        PSCENC =       133.96746930
  Ewald energy   TEWEN  =     20515.15946489
  -Hartree energ DENC   =    -25901.89384469
  -exchange      EXHF   =         0.00000000
  -V(xc)+E(xc)   XCENC  =      -427.79454919
  PAW double counting   =      5465.49970458    -4692.72631351
  entropy T*S    EENTRO =        -0.00436451
  eigenvalues    EBANDS =      -188.79696098
  atomic energy  EATOM  =      4951.75456612
  ---------------------------------------------------
  free energy    TOTEN  =      -144.83482799 eV

  energy without entropy =     -144.83046349  energy(sigma->0) =     -144.83264574


--------------------------------------------------------------------------------------------------------




----------------------------------------- Iteration    1(   7)  ---------------------------------------


    POTLOK:  cpu time    0.11: real time    0.11
    SETDIJ:  cpu time    0.11: real time    0.11
     EDDAV:  cpu time    5.34: real time    5.35
       DOS:  cpu time    0.00: real time    0.00
    CHARGE:  cpu time    0.44: real time    0.44
    MIXING:  cpu time    0.00: real time    0.00
    --------------------------------------------
      LOOP:  cpu time    6.00: real time    6.01

 eigenvalue-minimisations  :  3060
 total energy-change (2. order) : 0.1223115E+00  (-0.2138891E+00)
 number of electron     103.0000001 magnetization 
 augmentation part        6.2521766 magnetization 

 Broyden mixing:
  rms(total) = 0.47981E+00    rms(broyden)= 0.47980E+00
  rms(prec ) = 0.48405E+00
  weight for this iteration     100.00

 eigenvalues of (default mixing * dielectric matrix)
  average eigenvalue GAMMA=   1.6439
  0.9717  2.3161

 Free energy of the ion-electron system (eV)
  ---------------------------------------------------
  alpha Z        PSCENC =       133.96746930
  Ewald energy   TEWEN  =     20515.15946489
  -Hartree energ DENC   =    -25898.99843555
  -exchange      EXHF   =         0.00000000
  -V(xc)+E(xc)   XCENC  =      -427.51639920
  PAW double counting   =      5729.23954691    -4955.95792191
  entropy T*S    EENTRO =        -0.00505532
  eigenvalues    EBANDS =      -192.35575173
  atomic energy  EATOM  =      4951.75456612
  ---------------------------------------------------
  free energy    TOTEN  =      -144.71251649 eV

  energy without entropy =     -144.70746116  energy(sigma->0) =     -144.70998882


--------------------------------------------------------------------------------------------------------




----------------------------------------- Iteration    1(   8)  ---------------------------------------


    POTLOK:  cpu time    0.11: real time    0.11
    SETDIJ:  cpu time    0.11: real time    0.11
     EDDAV:  cpu time    5.47: real time    5.48
       DOS:  cpu time    0.00: real time    0.00
    CHARGE:  cpu time    0.45: real time    0.45
    MIXING:  cpu time    0.01: real time    0.01
    --------------------------------------------
      LOOP:  cpu time    6.15: real time    6.16

 eigenvalue-minimisations  :  3174
 total energy-change (2. order) : 0.1132614E+00  (-0.5855714E-01)
 number of electron     103.0000001 magnetization 
 augmentation part        6.3127720 magnetization 

 Broyden mixing:
  rms(total) = 0.84711E-01    rms(broyden)= 0.84654E-01
  rms(prec ) = 0.92378E-01
  weight for this iteration     100.00

 eigenvalues of (default mixing * dielectric matrix)
  average eigenvalue GAMMA=   1.3804
  2.4363  0.8886  0.8164

 Free energy of the ion-electron system (eV)
  ---------------------------------------------------
  alpha Z        PSCENC =       133.96746930
  Ewald energy   TEWEN  =     20515.15946489
  -Hartree energ DENC   =    -25904.14596935
  -exchange      EXHF   =         0.00000000
  -V(xc)+E(xc)   XCENC  =      -426.06590262
  PAW double counting   =      6195.97893723    -5422.30630921
  entropy T*S    EENTRO =        -0.00561579
  eigenvalues    EBANDS =      -188.93589565
  atomic energy  EATOM  =      4951.75456612
  ---------------------------------------------------
  free energy    TOTEN  =      -144.59925509 eV

  energy without entropy =     -144.59363930  energy(sigma->0) =     -144.59644720


--------------------------------------------------------------------------------------------------------




----------------------------------------- Iteration    1(   9)  ---------------------------------------


    POTLOK:  cpu time    0.11: real time    0.11
    SETDIJ:  cpu time    0.12: real time    0.12
     EDDAV:  cpu time    5.45: real time    5.45
       DOS:  cpu time    0.00: real time    0.00
    CHARGE:  cpu time    0.44: real time    0.44
    MIXING:  cpu time    0.00: real time    0.00
    --------------------------------------------
      LOOP:  cpu time    6.13: real time    6.13

 eigenvalue-minimisations  :  3142
 total energy-change (2. order) : 0.1606089E-01  (-0.9645022E-02)
 number of electron     103.0000001 magnetization 
 augmentation part        6.2873717 magnetization 

 Broyden mixing:
  rms(total) = 0.49095E-01    rms(broyden)= 0.49093E-01
  rms(prec ) = 0.49815E-01
  weight for this iteration     100.00

 eigenvalues of (default mixing * dielectric matrix)
  average eigenvalue GAMMA=   1.4393
  2.4588  1.0348  1.0348  1.2288

 Free energy of the ion-electron system (eV)
  ---------------------------------------------------
  alpha Z        PSCENC =       133.96746930
  Ewald energy   TEWEN  =     20515.15946489
  -Hartree energ DENC   =    -25908.90289438
  -exchange      EXHF   =         0.00000000
  -V(xc)+E(xc)   XCENC  =      -425.66349964
  PAW double counting   =      6213.16975018    -5439.55509294
  entropy T*S    EENTRO =        -0.00568138
  eigenvalues    EBANDS =      -184.50727634
  atomic energy  EATOM  =      4951.75456612
  ---------------------------------------------------
  free energy    TOTEN  =      -144.58319420 eV

  energy without entropy =     -144.57751282  energy(sigma->0) =     -144.58035351


--------------------------------------------------------------------------------------------------------




----------------------------------------- Iteration    1(  10)  ---------------------------------------


    POTLOK:  cpu time    0.11: real time    0.11
    SETDIJ:  cpu time    0.11: real time    0.11
     EDDAV:  cpu time    5.36: real time    5.36
       DOS:  cpu time    0.00: real time    0.00
    CHARGE:  cpu time    0.44: real time    0.45
    MIXING:  cpu time    0.00: real time    0.00
    --------------------------------------------
      LOOP:  cpu time    6.03: real time    6.04

 eigenvalue-minimisations  :  3070
 total energy-change (2. order) : 0.2344235E-03  (-0.4281489E-02)
 number of electron     103.0000001 magnetization 
 augmentation part        6.2671923 magnetization 

 Broyden mixing:
  rms(total) = 0.24773E-01    rms(broyden)= 0.24750E-01
  rms(prec ) = 0.25297E-01
  weight for this iteration     100.00

 eigenvalues of (default mixing * dielectric matrix)
  average eigenvalue GAMMA=   1.3025
  2.5168  1.7125  0.9237  0.9237  0.4360

 Free energy of the ion-electron system (eV)
  ---------------------------------------------------
  alpha Z        PSCENC =       133.96746930
  Ewald energy   TEWEN  =     20515.15946489
  -Hartree energ DENC   =    -25910.94210231
  -exchange      EXHF   =         0.00000000
  -V(xc)+E(xc)   XCENC  =      -425.47841247
  PAW double counting   =      6198.43323828    -5424.85233974
  entropy T*S    EENTRO =        -0.00551523
  eigenvalues    EBANDS =      -182.61932861
  atomic energy  EATOM  =      4951.75456612
  ---------------------------------------------------
  free energy    TOTEN  =      -144.58295978 eV

  energy without entropy =     -144.57744455  energy(sigma->0) =     -144.58020216


--------------------------------------------------------------------------------------------------------




----------------------------------------- Iteration    1(  11)  ---------------------------------------


    POTLOK:  cpu time    0.11: real time    0.11
    SETDIJ:  cpu time    0.11: real time    0.11
     EDDAV:  cpu time    5.31: real time    5.32
       DOS:  cpu time    0.00: real time    0.00
    CHARGE:  cpu time    0.43: real time    0.43
    MIXING:  cpu time    0.00: real time    0.00
    --------------------------------------------
      LOOP:  cpu time    5.98: real time    5.98

 eigenvalue-minimisations  :  3126
 total energy-change (2. order) :-0.6809073E-03  (-0.3691996E-03)
 number of electron     103.0000001 magnetization 
 augmentation part        6.2686740 magnetization 

 Broyden mixing:
  rms(total) = 0.17905E-01    rms(broyden)= 0.17904E-01
  rms(prec ) = 0.18143E-01
  weight for this iteration     100.00

 eigenvalues of (default mixing * dielectric matrix)
  average eigenvalue GAMMA=   1.4043
  2.7743  2.2081  0.9648  0.7896  0.8445  0.8445

 Free energy of the ion-electron system (eV)
  ---------------------------------------------------
  alpha Z        PSCENC =       133.96746930
  Ewald energy   TEWEN  =     20515.15946489
  -Hartree energ DENC   =    -25911.14148904
  -exchange      EXHF   =         0.00000000
  -V(xc)+E(xc)   XCENC  =      -425.43194598
  PAW double counting   =      6179.69517282    -5406.11800513
  entropy T*S    EENTRO =        -0.00551381
  eigenvalues    EBANDS =      -182.46335984
  atomic energy  EATOM  =      4951.75456612
  ---------------------------------------------------
  free energy    TOTEN  =      -144.58364068 eV

  energy without entropy =     -144.57812688  energy(sigma->0) =     -144.58088378


--------------------------------------------------------------------------------------------------------




----------------------------------------- Iteration    1(  12)  ---------------------------------------


    POTLOK:  cpu time    0.11: real time    0.11
    SETDIJ:  cpu time    0.11: real time    0.11
     EDDAV:  cpu time    6.62: real time    6.63
       DOS:  cpu time    0.00: real time    0.00
    CHARGE:  cpu time    0.44: real time    0.44
    MIXING:  cpu time    0.01: real time    0.01
    --------------------------------------------
      LOOP:  cpu time    7.28: real time    7.29

 eigenvalue-minimisations  :  4024
 total energy-change (2. order) :-0.1213553E-04  (-0.2378119E-03)
 number of electron     103.0000001 magnetization 
 augmentation part        6.2664577 magnetization 

 Broyden mixing:
  rms(total) = 0.86049E-02    rms(broyden)= 0.86027E-02
  rms(prec ) = 0.87866E-02
  weight for this iteration     100.00

 eigenvalues of (default mixing * dielectric matrix)
  average eigenvalue GAMMA=   1.3915
  2.8479  2.4940  0.9596  0.9596  0.9010  0.9010  0.6774

 Free energy of the ion-electron system (eV)
  ---------------------------------------------------
  alpha Z        PSCENC =       133.96746930
  Ewald energy   TEWEN  =     20515.15946489
  -Hartree energ DENC   =    -25911.53759915
  -exchange      EXHF   =         0.00000000
  -V(xc)+E(xc)   XCENC  =      -425.37824859
  PAW double counting   =      6161.68865479    -5388.12731955
  entropy T*S    EENTRO =        -0.00551752
  eigenvalues    EBANDS =      -182.10512309
  atomic energy  EATOM  =      4951.75456612
  ---------------------------------------------------
  free energy    TOTEN  =      -144.58365282 eV

  energy without entropy =     -144.57813530  energy(sigma->0) =     -144.58089406


--------------------------------------------------------------------------------------------------------




----------------------------------------- Iteration    1(  13)  ---------------------------------------


    POTLOK:  cpu time    0.11: real time    0.11
    SETDIJ:  cpu time    0.11: real time    0.11
     EDDAV:  cpu time    5.34: real time    5.35
       DOS:  cpu time    0.00: real time    0.00
    CHARGE:  cpu time    0.44: real time    0.44
    MIXING:  cpu time    0.00: real time    0.00
    --------------------------------------------
      LOOP:  cpu time    6.01: real time    6.02

 eigenvalue-minimisations  :  3052
 total energy-change (2. order) : 0.5512358E-04  (-0.1557341E-03)
 number of electron     103.0000001 magnetization 
 augmentation part        6.2710429 magnetization 

 Broyden mixing:
  rms(total) = 0.35426E-02    rms(broyden)= 0.35372E-02
  rms(prec ) = 0.36688E-02
  weight for this iteration     100.00

 eigenvalues of (default mixing * dielectric matrix)
  average eigenvalue GAMMA=   1.3620
  2.8730  2.4828  0.9902  0.9902  1.0394  0.8895  0.8895  0.7414

 Free energy of the ion-electron system (eV)
  ---------------------------------------------------
  alpha Z        PSCENC =       133.96746930
  Ewald energy   TEWEN  =     20515.15946489
  -Hartree energ DENC   =    -25911.02738345
  -exchange      EXHF   =         0.00000000
  -V(xc)+E(xc)   XCENC  =      -425.41268699
  PAW double counting   =      6152.43429840    -5378.86724866
  entropy T*S    EENTRO =        -0.00553558
  eigenvalues    EBANDS =      -182.58654171
  atomic energy  EATOM  =      4951.75456612
  ---------------------------------------------------
  free energy    TOTEN  =      -144.58359770 eV

  energy without entropy =     -144.57806211  energy(sigma->0) =     -144.58082990


--------------------------------------------------------------------------------------------------------




----------------------------------------- Iteration    1(  14)  ---------------------------------------


    POTLOK:  cpu time    0.11: real time    0.11
    SETDIJ:  cpu time    0.11: real time    0.11
     EDDAV:  cpu time    5.49: real time    5.50
       DOS:  cpu time    0.00: real time    0.00
    CHARGE:  cpu time    0.45: real time    0.45
    MIXING:  cpu time    0.01: real time    0.01
    --------------------------------------------
      LOOP:  cpu time    6.17: real time    6.18

 eigenvalue-minimisations  :  3168
 total energy-change (2. order) : 0.2503536E-04  (-0.1343405E-04)
 number of electron     103.0000001 magnetization 
 augmentation part        6.2714387 magnetization 

 Broyden mixing:
  rms(total) = 0.16154E-02    rms(broyden)= 0.16146E-02
  rms(prec ) = 0.18019E-02
  weight for this iteration     100.00

 eigenvalues of (default mixing * dielectric matrix)
  average eigenvalue GAMMA=   1.3761
  2.9057  2.5843  1.3467  1.0581  1.0581  1.0343  0.8563  0.8563  0.6849

 Free energy of the ion-electron system (eV)
  ---------------------------------------------------
  alpha Z        PSCENC =       133.96746930
  Ewald energy   TEWEN  =     20515.15946489
  -Hartree energ DENC   =    -25911.01458724
  -exchange      EXHF   =         0.00000000
  -V(xc)+E(xc)   XCENC  =      -425.41529545
  PAW double counting   =      6152.05831910    -5378.49080103
  entropy T*S    EENTRO =        -0.00554143
  eigenvalues    EBANDS =      -182.59716690
  atomic energy  EATOM  =      4951.75456612
  ---------------------------------------------------
  free energy    TOTEN  =      -144.58357266 eV

  energy without entropy =     -144.57803123  energy(sigma->0) =     -144.58080194


--------------------------------------------------------------------------------------------------------




----------------------------------------- Iteration    1(  15)  ---------------------------------------


    POTLOK:  cpu time    0.11: real time    0.11
    SETDIJ:  cpu time    0.11: real time    0.11
     EDDAV:  cpu time    4.88: real time    4.89
       DOS:  cpu time    0.00: real time    0.00
    --------------------------------------------
      LOOP:  cpu time    5.11: real time    5.12

 eigenvalue-minimisations  :  2702
 total energy-change (2. order) : 0.2772869E-05  (-0.3300826E-05)
 number of electron     103.0000001 magnetization 
 augmentation part        6.2714387 magnetization 

 Free energy of the ion-electron system (eV)
  ---------------------------------------------------
  alpha Z        PSCENC =       133.96746930
  Ewald energy   TEWEN  =     20515.15946489
  -Hartree energ DENC   =    -25911.04613771
  -exchange      EXHF   =         0.00000000
  -V(xc)+E(xc)   XCENC  =      -425.41577143
  PAW double counting   =      6151.52464941    -5377.95716989
  entropy T*S    EENTRO =        -0.00554249
  eigenvalues    EBANDS =      -182.56509807
  atomic energy  EATOM  =      4951.75456612
  ---------------------------------------------------
  free energy    TOTEN  =      -144.58356989 eV

  energy without entropy =     -144.57802739  energy(sigma->0) =     -144.58079864


--------------------------------------------------------------------------------------------------------




 average (electrostatic) potential at core
  the test charge radii are     0.7215  1.0714  1.0406
  (the norm of the test charge is              1.0000)
       1 -70.3853       2 -70.2976       3 -70.3140       4 -70.3207       5 -70.3020
       6 -70.2904       7 -70.3875       8 -70.3047       9 -70.3163      10 -70.2872
      11 -35.9938      12 -36.0004      13 -35.9795      14 -35.9971      15 -36.0095
      16 -35.9882      17 -36.2865      18 -36.2752      19 -36.0032      20 -36.0004
      21 -35.9911      22 -74.8723      23 -74.8078      24 -74.8722      25 -74.8287
      26 -74.8141      27 -74.8315      28 -74.8790
 
 
 
 E-fermi :   6.0255     XC(G=0): -10.1479     alpha+bet :-11.9993


 k-point     1 :       0.0000    0.0000    0.0000
  band No.  band energies     occupation 
      1     -14.5132      2.00000
      2     -14.4474      2.00000
      3     -14.3686      2.00000
      4     -14.2559      2.00000
      5     -14.1223      2.00000
      6     -13.9741      2.00000
      7     -13.8247      2.00000
      8     -13.6878      2.00000
      9     -13.5728      2.00000
     10     -13.5085      2.00000
     11      -3.7750      2.00000
     12      -3.4471      2.00000
     13      -3.0039      2.00000
     14      -2.4689      2.00000
     15      -2.0596      2.00000
     16      -1.8654      2.00000
     17      -1.8629      2.00000
     18      -1.4813      2.00000
     19      -1.3227      2.00000
     20      -0.7691      2.00000
     21      -0.7547      2.00000
     22      -0.1328      2.00000
     23       0.1466      2.00000
     24       0.6448      2.00000
     25       0.9441      2.00000
     26       1.5779      2.00000
     27       1.8985      2.00000
     28       2.0437      2.00000
     29       2.0437      2.00000
     30       2.0864      2.00000
     31       2.0864      2.00000
     32       2.1263      2.00000
     33       2.1263      2.00000
     34       2.1793      2.00000
     35       2.1841      2.00000
     36       2.1841      2.00000
     37       2.2519      2.00000
     38       2.2519      2.00000
     39       2.3259      2.00000
     40       2.3259      2.00000
     41       2.3996      2.00000
     42       2.3996      2.00000
     43       2.4641      2.00000
     44       2.4641      2.00000
     45       2.5215      2.00000
     46       2.5215      2.00000
     47       2.5471      2.00000
     48       2.5471      2.00000
     49       2.9067      2.00000
     50       4.0177      2.00000
     51       5.2535      2.00000
     52       6.4391      0.00000
     53       6.7390      0.00000
     54       7.3260      0.00000
     55       7.4715      0.00000
     56       8.2478      0.00000
     57       8.3781      0.00000
     58       9.1920      0.00000
     59       9.2182      0.00000
     60       9.8495      0.00000
     61       9.9350      0.00000
     62      10.2111      0.00000
     63      10.2305      0.00000
     64      11.0067      0.00000
     65      12.3666      0.00000
     66      13.8319      0.00000

 k-point     2 :       0.0769    0.0000    0.0000
  band No.  band energies     occupation 
      1     -14.4609      2.00000
      2     -14.3963      2.00000
      3     -14.3196      2.00000
      4     -14.2097      2.00000
      5     -14.0794      2.00000
      6     -13.9350      2.00000
      7     -13.7897      2.00000
      8     -13.6567      2.00000
      9     -13.5450      2.00000
     10     -13.4832      2.00000
     11      -3.6448      2.00000
     12      -3.3171      2.00000
     13      -2.8746      2.00000
     14      -2.3424      2.00000
     15      -1.9734      2.00000
     16      -1.7851      2.00000
     17      -1.7603      2.00000
     18      -1.3983      2.00000
     19      -1.2536      2.00000
     20      -0.7249      2.00000
     21      -0.6654      2.00000
     22      -0.1055      2.00000
     23       0.1799      2.00000
     24       0.6947      2.00000
     25       0.8926      2.00000
     26       1.4777      2.00000
     27       1.8100      2.00000
     28       1.8138      2.00000
     29       1.8592      2.00000
     30       1.9062      2.00000
     31       1.9748      2.00000
     32       1.9998      2.00000
     33       2.0427      2.00000
     34       2.0492      2.00000
     35       2.0830      2.00000
     36       2.1313      2.00000
     37       2.1414      2.00000
     38       2.1699      2.00000
     39       2.2098      2.00000
     40       2.2279      2.00000
     41       2.2344      2.00000
     42       2.2765      2.00000
     43       2.2844      2.00000
     44       2.3187      2.00000
     45       2.3588      2.00000
     46       2.4239      2.00000
     47       2.4819      2.00000
     48       2.5078      2.00000
     49       3.0342      2.00000
     50       4.1530      2.00000
     51       5.4056      2.00000
     52       6.6362      0.00000
     53       7.0738      0.00000
     54       7.5808      0.00000
     55       7.7054      0.00000
     56       8.4393      0.00000
     57       8.5931      0.00000
     58       9.3993      0.00000
     59       9.4192      0.00000
     60      10.0861      0.00000
     61      10.1649      0.00000
     62      10.4829      0.00000
     63      10.4924      0.00000
     64      11.1546      0.00000
     65      12.4360      0.00000
     66      13.7887      0.00000

 k-point     3 :       0.1538    0.0000    0.0000
  band No.  band energies     occupation 
      1     -14.3111      2.00000
      2     -14.2503      2.00000
      3     -14.1796      2.00000
      4     -14.0780      2.00000
      5     -13.9578      2.00000
      6     -13.8249      2.00000
      7     -13.6916      2.00000
      8     -13.5701      2.00000
      9     -13.4679      2.00000
     10     -13.4125      2.00000
     11      -3.2547      2.00000
     12      -2.9279      2.00000
     13      -2.4878      2.00000
     14      -1.9672      2.00000
     15      -1.7290      2.00000
     16      -1.5574      2.00000
     17      -1.4762      2.00000
     18      -1.1450      2.00000
     19      -1.0745      2.00000
     20      -0.6181      2.00000
     21      -0.4534      2.00000
     22      -0.0167      2.00000
     23       0.1501      2.00000
     24       0.6443      2.00000
     25       0.8114      2.00000
     26       1.1189      2.00000
     27       1.2221      2.00000
     28       1.2338      2.00000
     29       1.3030      2.00000
     30       1.3416      2.00000
     31       1.4165      2.00000
     32       1.5032      2.00000
     33       1.6521      2.00000
     34       1.7832      2.00000
     35       1.8814      2.00000
     36       1.9124      2.00000
     37       1.9249      2.00000
     38       1.9661      2.00000
     39       2.0070      2.00000
     40       2.0257      2.00000
     41       2.0876      2.00000
     42       2.0956      2.00000
     43       2.1719      2.00000
     44       2.2479      2.00000
     45       2.3145      2.00000
     46       2.3737      2.00000
     47       2.4003      2.00000
     48       2.4970      2.00000
     49       3.3581      2.00000
     50       4.5101      2.00000
     51       5.7929      2.00000
     52       7.0938      0.00000
     53       7.8459      0.00000
     54       8.2069      0.00000
     55       8.2861      0.00000
     56       8.9122      0.00000
     57       9.1341      0.00000
     58       9.8843      0.00000
     59       9.9175      0.00000
     60      10.6342      0.00000
     61      10.7254      0.00000
     62      11.1218      0.00000
     63      11.1853      0.00000
     64      11.3751      0.00000
     65      11.5401      0.00000
     66      11.7189      0.00000

 k-point     4 :       0.2308    0.0000    0.0000
  band No.  band energies     occupation 
      1     -14.0856      2.00000
      2     -14.0309      2.00000
      3     -13.9701      2.00000
      4     -13.8823      2.00000
      5     -13.7786      2.00000
      6     -13.6643      2.00000
      7     -13.5501      2.00000
      8     -13.4470      2.00000
      9     -13.3597      2.00000
     10     -13.3142      2.00000
     11      -2.6067      2.00000
     12      -2.2817      2.00000
     13      -1.8479      2.00000
     14      -1.3872      2.00000
     15      -1.3565      2.00000
     16      -1.2198      2.00000
     17      -1.1235      2.00000
     18      -0.8838      2.00000
     19      -0.7914      2.00000
     20      -0.4977      2.00000
     21      -0.4366      2.00000
     22      -0.1573      2.00000
     23       0.0251      2.00000
     24       0.1969      2.00000
     25       0.3866      2.00000
     26       0.4485      2.00000
     27       0.5015      2.00000
     28       0.5502      2.00000
     29       0.6928      2.00000
     30       0.8215      2.00000
     31       1.0739      2.00000
     32       1.2739      2.00000
     33       1.4760      2.00000
     34       1.6445      2.00000
     35       1.6884      2.00000
     36       1.7220      2.00000
     37       1.7661      2.00000
     38       1.8082      2.00000
     39       1.8420      2.00000
     40       1.8692      2.00000
     41       1.9406      2.00000
     42       1.9651      2.00000
     43       2.0187      2.00000
     44       2.0965      2.00000
     45       2.1649      2.00000
     46       2.2255      2.00000
     47       2.2529      2.00000
     48       3.0193      2.00000
     49       3.8944      2.00000
     50       5.0669      2.00000
     51       6.3588      0.00000
     52       7.6679      0.00000
     53       8.6760      0.00000
     54       8.7898      0.00000
     55       8.9518      0.00000
     56       9.0632      0.00000
     57       9.2426      0.00000
     58       9.4714      0.00000
     59       9.5511      0.00000
     60       9.8557      0.00000
     61      10.0701      0.00000
     62      10.3750      0.00000
     63      10.6086      0.00000
     64      10.7069      0.00000
     65      11.1417      0.00000
     66      11.4319      0.00000

 k-point     5 :       0.3077    0.0000    0.0000
  band No.  band energies     occupation 
      1     -13.8204      2.00000
      2     -13.7743      2.00000
      3     -13.7269      2.00000
      4     -13.6579      2.00000
      5     -13.5764      2.00000
      6     -13.4869      2.00000
      7     -13.3978      2.00000
      8     -13.3183      2.00000
      9     -13.2499      2.00000
     10     -13.2168      2.00000
     11      -1.7040      2.00000
     12      -1.3840      2.00000
     13      -1.0970      2.00000
     14      -1.0162      2.00000
     15      -0.9962      2.00000
     16      -0.9827      2.00000
     17      -0.9301      2.00000
     18      -0.8750      2.00000
     19      -0.7988      2.00000
     20      -0.7167      2.00000
     21      -0.5692      2.00000
     22      -0.4932      2.00000
     23      -0.3707      2.00000
     24      -0.3045      2.00000
     25      -0.2018      2.00000
     26      -0.0896      2.00000
     27       0.2357      2.00000
     28       0.3626      2.00000
     29       0.6275      2.00000
     30       0.8672      2.00000
     31       1.1340      2.00000
     32       1.3726      2.00000
     33       1.3833      2.00000
     34       1.5199      2.00000
     35       1.5612      2.00000
     36       1.6057      2.00000
     37       1.6486      2.00000
     38       1.6882      2.00000
     39       1.7105      2.00000
     40       1.7832      2.00000
     41       1.8200      2.00000
     42       1.8627      2.00000
     43       1.9419      2.00000
     44       2.0116      2.00000
     45       2.0733      2.00000
     46       2.1014      2.00000
     47       2.4161      2.00000
     48       3.7883      2.00000
     49       4.6499      2.00000
     50       5.7784      2.00000
     51       6.4228      0.00000
     52       6.8053      0.00000
     53       7.2054      0.00000
     54       7.2985      0.00000
     55       7.8075      0.00000
     56       8.3763      0.00000
     57       8.5955      0.00000
     58       9.2527      0.00000
     59       9.4646      0.00000
     60       9.6481      0.00000
     61       9.7957      0.00000
     62      10.0675      0.00000
     63      10.2186      0.00000
     64      10.5131      0.00000
     65      10.7464      0.00000
     66      11.0199      0.00000

 k-point     6 :       0.3846    0.0000   -0.0000
  band No.  band energies     occupation 
      1     -13.5652      2.00000
      2     -13.5295      2.00000
      3     -13.4984      2.00000
      4     -13.4522      2.00000
      5     -13.3967      2.00000
      6     -13.3358      2.00000
      7     -13.2749      2.00000
      8     -13.2219      2.00000
      9     -13.1744      2.00000
     10     -13.1536      2.00000
     11      -1.4950      2.00000
     12      -1.3958      2.00000
     13      -1.2681      2.00000
     14      -1.2132      2.00000
     15      -1.1265      2.00000
     16      -1.0938      2.00000
     17      -1.0054      2.00000
     18      -0.9334      2.00000
     19      -0.8709      2.00000
     20      -0.8344      2.00000
     21      -0.5495      2.00000
     22      -0.2732      2.00000
     23      -0.1913      2.00000
     24      -0.0341      2.00000
     25       0.2307      2.00000
     26       0.3051      2.00000
     27       0.6135      2.00000
     28       0.8190      2.00000
     29       0.9393      2.00000
     30       1.1254      2.00000
     31       1.1761      2.00000
     32       1.3020      2.00000
     33       1.4337      2.00000
     34       1.4785      2.00000
     35       1.4883      2.00000
     36       1.5218      2.00000
     37       1.5843      2.00000
     38       1.6023      2.00000
     39       1.6577      2.00000
     40       1.6932      2.00000
     41       1.7380      2.00000
     42       1.8181      2.00000
     43       1.8886      2.00000
     44       1.9510      2.00000
     45       1.9795      2.00000
     46       2.4371      2.00000
     47       3.4728      2.00000
     48       4.3354      2.00000
     49       4.5830      2.00000
     50       4.8293      2.00000
     51       5.1768      2.00000
     52       5.6607      2.00000
     53       5.7829      2.00000
     54       6.3753      0.00000
     55       6.8898      0.00000
     56       7.2334      0.00000
     57       8.1191      0.00000
     58       8.2393      0.00000
     59       9.1675      0.00000
     60       9.5011      0.00000
     61       9.8470      0.00000
     62       9.9550      0.00000
     63      10.1629      0.00000
     64      10.4160      0.00000
     65      10.8449      0.00000
     66      10.9734      0.00000

 k-point     7 :       0.4615    0.0000    0.0000
  band No.  band energies     occupation 
      1     -13.3838      2.00000
      2     -13.3586      2.00000
      3     -13.3429      2.00000
      4     -13.3194      2.00000
      5     -13.2881      2.00000
      6     -13.2531      2.00000
      7     -13.2169      2.00000
      8     -13.1865      2.00000
      9     -13.1564      2.00000
     10     -13.1432      2.00000
     11      -1.7985      2.00000
     12      -1.6974      2.00000
     13      -1.5679      2.00000
     14      -1.4024      2.00000
     15      -1.3587      2.00000
     16      -1.2857      2.00000
     17      -1.2305      2.00000
     18      -1.1937      2.00000
     19      -1.1236      2.00000
     20      -1.1120      2.00000
     21       0.2729      2.00000
     22       0.3902      2.00000
     23       0.5688      2.00000
     24       0.7446      2.00000
     25       0.8401      2.00000
     26       0.8547      2.00000
     27       0.9066      2.00000
     28       0.9792      2.00000
     29       1.1541      2.00000
     30       1.1877      2.00000
     31       1.3639      2.00000
     32       1.4088      2.00000
     33       1.4302      2.00000
     34       1.4522      2.00000
     35       1.5150      2.00000
     36       1.5887      2.00000
     37       1.6075      2.00000
     38       1.6477      2.00000
     39       1.6694      2.00000
     40       1.7499      2.00000
     41       1.8207      2.00000
     42       1.8834      2.00000
     43       1.9121      2.00000
     44       2.1977      2.00000
     45       2.4881      2.00000
     46       2.8096      2.00000
     47       2.8903      2.00000
     48       3.2425      2.00000
     49       3.6733      2.00000
     50       3.9088      2.00000
     51       4.5013      2.00000
     52       4.8941      2.00000
     53       5.4081      2.00000
     54       6.0764      0.14988
     55       6.4765      0.00000
     56       6.8735      0.00000
     57       7.6937      0.00000
     58       7.9551      0.00000
     59       8.4793      0.00000
     60       9.1542      0.00000
     61       9.5555      0.00000
     62       9.9303      0.00000
     63      10.2384      0.00000
[...]
     17      -0.9628      2.00000
     18      -0.8770      2.00000
     19      -0.7446      2.00000
     20      -0.6126      2.00000
     21      -0.2175      2.00000
     22      -0.0740      2.00000
     23       0.0636      2.00000
     24       0.2107      2.00000
     25       0.3751      2.00000
     26       0.3848      2.00000
     27       0.4714      2.00000
     28       0.5290      2.00000
     29       0.5946      2.00000
     30       0.7136      2.00000
     31       0.7729      2.00000
     32       0.8400      2.00000
     33       0.9356      2.00000
     34       1.0313      2.00000
     35       1.0834      2.00000
     36       1.1986      2.00000
     37       1.2514      2.00000
     38       1.3479      2.00000
     39       1.4180      2.00000
     40       1.4419      2.00000
     41       1.5125      2.00000
     42       1.6058      2.00000
     43       1.8347      2.00000
     44       2.3775      2.00000
     45       3.0626      2.00000
     46       3.8241      2.00000
     47       4.2791      2.00000
     48       4.6525      2.00000
     49       4.8481      2.00000
     50       5.1236      2.00000
     51       5.6026      2.00000
     52       5.8592      2.00000
     53       6.1128      0.09778
     54       6.3008      0.00000
     55       6.3870      0.00000
     56       6.6703      0.00000
     57       6.8721      0.00000
     58       7.1931      0.00000
     59       7.3064      0.00000
     60       7.8407      0.00000
     61       8.0630      0.00000
     62       8.3449      0.00000
     63       8.6635      0.00000
     64       9.1463      0.00000
     65       9.5232      0.00000
     66       9.7211      0.00000

 k-point    20 :       0.3846    0.2308   -0.0000
  band No.  band energies     occupation 
      1     -13.3023      2.00000
      2     -13.2857      2.00000
      3     -13.2700      2.00000
      4     -13.2650      2.00000
      5     -13.2457      2.00000
      6     -13.2280      2.00000
      7     -13.2103      2.00000
      8     -13.1960      2.00000
      9     -13.1819      2.00000
     10     -13.1522      2.00000
     11      -1.3940      2.00000
     12      -1.2993      2.00000
     13      -1.1727      2.00000
     14      -1.0169      2.00000
     15      -0.9720      2.00000
     16      -0.9328      2.00000
     17      -0.8972      2.00000
     18      -0.8781      2.00000
     19      -0.8459      2.00000
     20      -0.8190      2.00000
     21      -0.0223      2.00000
     22       0.0103      2.00000
     23       0.0558      2.00000
     24       0.0691      2.00000
     25       0.1200      2.00000
     26       0.1502      2.00000
     27       0.1984      2.00000
     28       0.3448      2.00000
     29       0.4955      2.00000
     30       0.6431      2.00000
     31       0.8712      2.00000
     32       0.8915      2.00000
     33       1.0436      2.00000
     34       1.0566      2.00000
     35       1.1493      2.00000
     36       1.1935      2.00000
     37       1.3300      2.00000
     38       1.4193      2.00000
     39       1.4608      2.00000
     40       1.4844      2.00000
     41       2.5319      2.00000
     42       2.5464      2.00000
     43       2.9277      2.00000
     44       2.9510      2.00000
     45       3.3077      2.00000
     46       3.3459      2.00000
     47       3.8252      2.00000
     48       3.8700      2.00000
     49       4.4203      2.00000
     50       4.6380      2.00000
     51       5.2076      2.00000
     52       5.4584      2.00000
     53       5.7506      2.00000
     54       6.0995      0.20140
     55       6.2846      0.00000
     56       6.4513      0.00000
     57       6.6176      0.00000
     58       7.1163      0.00000
     59       7.6218      0.00000
     60       7.6634      0.00000
     61       7.8668      0.00000
     62       8.2580      0.00000
     63       8.4902      0.00000
     64       8.7256      0.00000
     65       9.2305      0.00000
     66       9.7025      0.00000

 k-point    21 :       0.3077    0.3077   -0.0000
  band No.  band energies     occupation 
      1     -13.2699      2.00000
      2     -13.2572      2.00000
      3     -13.2435      2.00000
      4     -13.2408      2.00000
      5     -13.2246      2.00000
      6     -13.2112      2.00000
      7     -13.1995      2.00000
      8     -13.1933      2.00000
      9     -13.1766      2.00000
     10     -13.1523      2.00000
     11      -1.0436      2.00000
     12      -1.0415      2.00000
     13      -0.9600      2.00000
     14      -0.9538      2.00000
     15      -0.8614      2.00000
     16      -0.8506      2.00000
     17      -0.7379      2.00000
     18      -0.6494      2.00000
     19      -0.6009      2.00000
     20      -0.5354      2.00000
     21      -0.4336      2.00000
     22      -0.3860      2.00000
     23      -0.2463      2.00000
     24      -0.2457      2.00000
     25      -0.1085      2.00000
     26      -0.0590      2.00000
     27       0.0325      2.00000
     28       0.1069      2.00000
     29       0.1812      2.00000
     30       0.2186      2.00000
     31       0.8698      2.00000
     32       0.8958      2.00000
     33       1.0476      2.00000
     34       1.1760      2.00000
     35       1.2318      2.00000
     36       1.2520      2.00000
     37       1.2925      2.00000
     38       1.3031      2.00000
     39       1.3489      2.00000
     40       1.4385      2.00000
     41       2.4150      2.00000
     42       2.8180      2.00000
     43       3.1996      2.00000
     44       3.7261      2.00000
     45       4.0276      2.00000
     46       4.0448      2.00000
     47       4.3780      2.00000
     48       4.4331      2.00000
     49       4.4387      2.00000
     50       4.7815      2.00000
     51       4.7881      2.00000
     52       5.0826      2.00000
     53       5.3272      2.00000
     54       5.3973      2.00000
     55       5.9464      1.99772
     56       6.0245      1.60072
     57       6.4840      0.00000
     58       6.7264      0.00000
     59       6.9868      0.00000
     60       7.5213      0.00000
     61       7.8572      0.00000
     62       8.0365      0.00000
     63       8.1809      0.00000
     64       8.9368      0.00000
     65       9.2242      0.00000
     66       9.2953      0.00000


--------------------------------------------------------------------------------------------------------


 soft charge-density along one line, spin component           1
         0         1         2         3         4         5         6         7         8         9
 total charge-density along one line
 
 pseudopotential strength for first ion, spin component:           1
 12.223   0.000 -14.876   0.000   0.000   0.000  -0.004   0.000  -0.000   0.000  -0.000   0.000   0.004   0.000   0.000   0.000
-14.876   0.000  18.124   0.000  -0.000   0.000   0.004   0.000   0.000   0.000   0.000   0.000  -0.006   0.000  -0.000   0.000
  0.000   0.000  -0.000   0.000  -8.379   0.000  -0.000   0.000   0.000   0.000  10.045   0.000   0.000   0.000  -0.000   0.000
 -0.004   0.000   0.004   0.000  -0.000   0.000  -8.388   0.000   0.000   0.000   0.000   0.000  10.058   0.000  -0.000   0.000
 -0.000   0.000   0.000   0.000   0.000   0.000   0.000   0.000  -8.379   0.000  -0.000   0.000  -0.000   0.000  10.045   0.000
 -0.000   0.000   0.000   0.000  10.045   0.000   0.000   0.000  -0.000   0.000 -11.884   0.000  -0.000   0.000   0.000   0.000
  0.004   0.000  -0.006   0.000   0.000   0.000  10.058   0.000  -0.000   0.000  -0.000   0.000 -11.902   0.000   0.000   0.000
  0.000   0.000  -0.000   0.000  -0.000   0.000  -0.000   0.000  10.045   0.000   0.000   0.000   0.000   0.000 -11.884   0.000
 total augmentation occupancy for first ion, spin component:           1
  2.572   0.348   0.000   0.012  -0.000   0.000   0.001  -0.000
  0.348   0.074  -0.000   0.009  -0.000  -0.000  -0.003   0.000
  0.000  -0.000   2.129  -0.000  -0.000   0.248  -0.000  -0.000
  0.012   0.009   0.000   2.109  -0.000  -0.000   0.253  -0.000
 -0.000  -0.000  -0.000  -0.000   2.129  -0.000  -0.000   0.248
  0.000  -0.000   0.248  -0.000  -0.000   0.032   0.000  -0.000
  0.001  -0.003  -0.000   0.253  -0.000   0.000   0.034  -0.000
 -0.000   0.000  -0.000  -0.000   0.248  -0.000  -0.000   0.032


------------------------ aborting loop because EDIFF is reached ----------------------------------------


    CHARGE:  cpu time    0.44: real time    0.44
    FORLOC:  cpu time    0.04: real time    0.04
    FORNL :  cpu time    3.69: real time    3.69
    STRESS:  cpu time    4.71: real time    4.72
    FORCOR:  cpu time    0.15: real time    0.15
    FORHAR:  cpu time    0.06: real time    0.06
    MIXING:  cpu time    0.00: real time    0.00
    OFIELD:  cpu time    0.00: real time    0.00

  FORCE on cell =-STRESS in cart. coord.  units (eV):
  Direction    XX          YY          ZZ          XY          YZ          ZX
  --------------------------------------------------------------------------------------
  Alpha Z   133.96747   133.96747   133.96747
  Ewald   24240.28435 24240.28474-26927.85638    -0.00009     0.00006    -0.00021
  Hartree 25994.77238 25994.77230-25043.72343    -0.00000     0.00000     0.00004
  E(xc)    -422.88301  -422.88303  -422.56992    -0.00000     0.00000     0.00000
  Local  -51475.83982-51475.83935 50730.71880    -0.00013    -0.00005     0.00010
  n-local   -44.21802   -58.27859   -52.61394     2.96386    -1.44986     5.23370
  augment    59.89296    59.89271    59.14100     0.00018    -0.00000     0.00000
  Kinetic  1535.54142  1492.42399  1499.39302     1.12862    -0.37975     1.77441
  Fock        0.00000     0.00000     0.00000     0.00000     0.00000     0.00000
  -------------------------------------------------------------------------------------
  Total      -7.07102    -7.07102   -23.54337     0.00000     0.00000     0.00000
  in kB     -31.26592   -31.26590  -104.10171     0.00000     0.00000     0.00000
  external pressure =      -55.54 kB  Pullay stress =        0.00 kB


 VOLUME and BASIS-vectors are now :
 -----------------------------------------------------------------------------
  energy-cutoff  :      520.00
  volume of cell :      362.34
      direct lattice vectors                 reciprocal lattice vectors
     2.592201318 -1.496607673  0.000000000     0.385772507  0.000000000  0.000000000
     0.000000000  2.993215347  0.000000000     0.192886253  0.334088892  0.000000000
    -0.000000000  0.000000000 46.699770322     0.000000000  0.000000000  0.021413382

  length of vectors
     2.993216030  2.993215347 46.699770322     0.385772507  0.385772595  0.021413382


 FORCES acting on ions
    electron-ion (+dipol)            ewald-force                    non-local-force                 convergence-correction
 -----------------------------------------------------------------------------------------------
   -.473E-03 0.823E-03 0.151E+04   -.329E-05 0.254E-05 -.152E+04   -.522E-17 -.434E-18 0.120E+01   0.164E-08 -.285E-08 -.134E-01
   0.588E-03 -.102E-02 0.118E+04   0.541E-04 -.936E-04 -.118E+04   -.217E-18 0.217E-18 0.627E-01   0.408E-09 -.680E-09 -.165E-01
   -.474E-03 0.820E-03 0.506E+03   -.368E-07 0.415E-07 -.506E+03   -.796E-19 -.136E-19 0.181E-01   -.477E-08 0.823E-08 -.172E-01
   0.588E-03 -.102E-02 0.169E+03   0.540E-04 -.935E-04 -.169E+03   -.314E-19 -.678E-20 0.745E-02   0.348E-09 -.651E-09 -.664E-02
   -.474E-03 0.820E-03 -.506E+03   0.330E-07 -.371E-07 0.506E+03   0.773E-19 0.119E-19 -.181E-01   -.433E-08 0.753E-08 0.173E-01
   0.588E-03 -.102E-02 -.844E+03   0.540E-04 -.935E-04 0.844E+03   0.709E-19 0.813E-19 -.274E-01   -.214E-08 0.386E-08 0.232E-01
   -.478E-03 0.824E-03 -.151E+04   0.330E-05 -.254E-05 0.152E+04   0.519E-17 0.434E-18 -.120E+01   0.269E-08 -.466E-08 0.134E-01
   -.154E-02 0.266E-02 0.844E+03   -.540E-04 0.935E-04 -.844E+03   -.622E-19 -.813E-19 0.274E-01   0.394E-08 -.698E-08 -.232E-01
   -.154E-02 0.266E-02 -.169E+03   -.540E-04 0.935E-04 0.169E+03   0.383E-19 0.678E-20 -.745E-02   -.880E-09 0.157E-08 0.668E-02
   -.154E-02 0.266E-02 -.118E+04   -.541E-04 0.936E-04 0.118E+04   0.316E-18 -.217E-18 -.627E-01   0.569E-09 -.101E-08 0.165E-01
   0.214E-04 -.371E-04 0.338E+03   0.421E-07 -.469E-07 -.338E+03   0.157E-19 -.542E-19 -.295E-02   -.949E-09 0.164E-08 -.808E-02
   0.215E-04 -.372E-04 -.104E-02   0.202E-08 -.225E-08 0.115E-01   -.231E-20 0.000E+00 0.000E+00   0.599E-12 -.104E-11 0.652E-05
   0.215E-04 -.372E-04 -.338E+03   -.441E-07 0.491E-07 0.338E+03   -.237E-19 0.813E-19 0.295E-02   0.941E-09 -.162E-08 0.809E-02
   0.633E-04 -.110E-03 0.450E+03   -.467E-04 0.809E-04 -.450E+03   0.234E-19 0.867E-18 -.591E-01   0.217E-09 -.400E-09 -.483E-02
   0.631E-04 -.109E-03 0.113E+03   -.466E-04 0.808E-04 -.113E+03   0.494E-21 -.136E-19 -.183E-02   -.945E-10 0.231E-09 -.424E-02
   0.632E-04 -.109E-03 -.225E+03   -.466E-04 0.808E-04 0.225E+03   -.150E-19 0.271E-19 0.235E-02   -.617E-09 0.114E-08 0.704E-02
   0.420E-04 -.587E-04 -.544E+03   -.239E-04 0.257E-04 0.544E+03   -.181E-17 0.000E+00 0.204E+00   -.146E-09 0.223E-09 0.221E-02
   -.188E-04 0.185E-04 0.544E+03   0.239E-04 -.257E-04 -.544E+03   0.267E-17 0.000E+00 -.204E+00   0.148E-09 -.227E-09 -.221E-02
   -.203E-04 0.351E-04 0.225E+03   0.466E-04 -.808E-04 -.225E+03   0.138E-19 -.271E-19 -.235E-02   0.631E-09 -.116E-08 -.703E-02
   -.202E-04 0.350E-04 -.113E+03   0.466E-04 -.808E-04 0.113E+03   -.250E-20 0.271E-19 0.183E-02   0.118E-09 -.272E-09 0.425E-02
   -.202E-04 0.351E-04 -.450E+03   0.467E-04 -.809E-04 0.450E+03   -.127E-18 -.130E-17 0.591E-01   -.238E-09 0.436E-09 0.483E-02
   0.492E-05 -.851E-05 0.131E-02   -.122E-09 0.116E-09 0.536E-02   0.267E-20 0.000E+00 0.217E-18   -.152E-11 0.263E-11 -.119E-04
   0.434E-05 -.764E-05 0.590E+03   0.332E-06 -.294E-06 -.589E+03   0.719E-17 -.694E-17 -.720E+00   -.309E-11 0.627E-11 -.109E-02
   0.194E-04 -.336E-04 0.380E+03   -.143E-05 0.259E-05 -.380E+03   0.834E-18 0.000E+00 0.962E-01   0.138E-11 -.700E-11 -.113E-02
   -.969E-05 0.167E-04 0.181E+03   0.186E-05 -.300E-05 -.182E+03   -.948E-19 -.139E-16 0.278E+00   0.793E-12 -.363E-11 -.116E-02
   0.447E-05 -.762E-05 -.590E+03   -.333E-06 0.294E-06 0.589E+03   -.720E-17 0.139E-16 0.720E+00   -.367E-11 0.543E-11 0.108E-02
   0.194E-04 -.335E-04 -.181E+03   -.186E-05 0.300E-05 0.182E+03   -.163E-17 0.694E-17 -.278E+00   -.168E-11 0.516E-11 0.114E-02
   -.979E-05 0.170E-04 -.380E+03   0.143E-05 -.259E-05 0.380E+03   -.127E-17 0.000E+00 -.962E-01   0.175E-11 0.156E-11 0.111E-02
 -----------------------------------------------------------------------------------------------
   -.449E-02 0.778E-02 -.573E+00   -.111E-12 0.202E-13 0.131E-11   -.134E-17 -.395E-18 0.278E-16   -.251E-08 0.435E-08 0.107E-03
 
 
 POSITION                                       TOTAL-FORCE (eV/Angst)
 -----------------------------------------------------------------------------------
     -0.00000     -0.00000     13.08886        -0.000000      0.000000      0.008038
      0.86407      1.49661     15.61957         0.000000     -0.000000      0.010969
     -0.00000     -0.00000     20.68538        -0.000000      0.000000      0.007470
      0.86407      1.49661     23.21877         0.000000      0.000000      0.003380
     -0.00000      0.00000     28.28574         0.000000     -0.000000     -0.007470
      0.86407      1.49661     30.81905         0.000000      0.000000     -0.010058
     -0.00000      0.00000     35.88263         0.000000     -0.000000     -0.008038
      1.72814     -0.00000     18.15221        -0.000000     -0.000000      0.010058
      1.72814     -0.00000     25.75227        -0.000000     -0.000000     -0.003380
      1.72814     -0.00000     33.35183        -0.000000      0.000000     -0.010969
     -0.00000     -0.00000     16.88633         0.000000     -0.000000     -0.001687
     -0.00000     -0.00000     24.48554        -0.000000     -0.000000     -0.000000
     -0.00000     -0.00000     32.08497        -0.000000     -0.000000      0.001687
      1.72814     -0.00000     14.35443         0.000000     -0.000000     -0.010783
      1.72814     -0.00000     21.95239         0.000000     -0.000000     -0.005763
      1.72814     -0.00000     29.55200        -0.000000     -0.000000      0.006620
      1.72814     -0.00000     37.19318        -0.000000     -0.000000      0.000679
      0.86407      1.49661     11.77831         0.000000     -0.000000     -0.000679
      0.86407      1.49661     19.41921         0.000000     -0.000000     -0.006620
      0.86407      1.49661     27.01872        -0.000000     -0.000000      0.005763
      0.86407      1.49661     34.61697        -0.000000     -0.000000      0.010783
     -0.00000     -0.00000      1.13572        -0.000000     -0.000000     -0.000000
     -0.00000     -0.00000      9.03397        -0.000000     -0.000000      0.009100
      1.72814     -0.00000      6.32016        -0.000000     -0.000000     -0.000189
      0.86407      1.49661      3.67195         0.000000     -0.000000     -0.002356
     -0.00000     -0.00000     39.93757         0.000000     -0.000000     -0.009100
      1.72814     -0.00000     45.29921        -0.000000     -0.000000      0.002356
      0.86407      1.49661     42.65112        -0.000000     -0.000000      0.000189
 -----------------------------------------------------------------------------------
    total drift:                               -0.004492      0.007780     -0.573060


--------------------------------------------------------------------------------------------------------



  FREE ENERGIE OF THE ION-ELECTRON SYSTEM (eV)
  ---------------------------------------------------
  free  energy   TOTEN  =      -144.60200527 eV

  energy  without entropy=     -144.59681278  energy(sigma->0) =     -144.59940903
 
 d Force = 0.7459922E-04[ 0.277E-04, 0.122E-03]  d Energy = 0.7474465E-04-0.145E-06
 d Force =-0.3189674E+01[-0.319E+01,-0.319E+01]  d Ewald  =-0.3189674E+01 0.174E-07


--------------------------------------------------------------------------------------------------------


    POTLOK:  cpu time    0.22: real time    0.22


--------------------------------------------------------------------------------------------------------


 Conjugate gradient step on ions:
 trial-energy change:   -0.000075  1 .order   -0.000075   -0.000122   -0.000028
  (g-gl).g = 0.148E-03      g.g   = 0.176E-03  gl.gl    = 0.455E-03
 g(Force)  = 0.176E-03   g(Stress)= 0.000E+00 ortho     =-0.302E-04
 gamma     =   0.32576
 trial     =   0.73178
 opt step  =   0.94775  (harmonic =   0.94775) maximal distance =0.00110116
 next E    =  -144.602009   (d E  =  -0.00008)


--------------------------------------------------------------------------------------------------------


  
 reached required accuracy - stopping structural energy minimisation
     LOOP+:  cpu time   38.65: real time   38.69
    4ORBIT:  cpu time    0.00: real time    0.00

 total amount of memory used by VASP on root node   160435. kBytes
========================================================================

   base      :      30000. kBytes
   nonl-proj :      17430. kBytes
   fftplans  :      60350. kBytes
   grid      :      24192. kBytes
   one-center:         56. kBytes
   wavefun   :      28407. kBytes
 
  
  
 General timing and accounting informations for this job:
 ========================================================
  
                  Total CPU time used (sec):     2543.750
                            User time (sec):     2513.142
                          System time (sec):       30.608
                         Elapsed time (sec):     2546.672
  
                   Maximum memory used (kb):      270524.
                   Average memory used (kb):           0.
  
                          Minor page faults:       603060
                          Major page faults:            0
                 Voluntary context switches:          408
