       N       E                     dE             d eps       ncg     rms          rms(c)
DAV:   1     0.938705912028E+02    0.93871E+02   -0.56552E+03  1530   0.807E+02
DAV:   2    -0.216043821523E+02   -0.11547E+03   -0.98594E+02  2210   0.139E+02
DAV:   3    -0.257613585380E+02   -0.41570E+01   -0.40868E+01  1885   0.310E+01
DAV:   4    -0.259169187138E+02   -0.15556E+00   -0.15380E+00  2255   0.724E+00
DAV:   5    -0.259254317283E+02   -0.85130E-02   -0.85078E-02  2460   0.156E+00    0.286E+00
DAV:   6    -0.253613646578E+02    0.56407E+00   -0.17284E+00  1685   0.486E+00    0.159E+00
DAV:   7    -0.252494309585E+02    0.11193E+00   -0.26397E-01  1920   0.271E+00    0.727E-01
DAV:   8    -0.252135172929E+02    0.35914E-01   -0.12130E-01  2030   0.164E+00    0.271E-01
DAV:   9    -0.252067292372E+02    0.67881E-02   -0.30378E-02  1965   0.876E-01    0.172E-01
DAV:  10    -0.252010255294E+02    0.57037E-02   -0.81599E-03  1990   0.458E-01    0.102E-01
DAV:  11    -0.251960468959E+02    0.49786E-02   -0.21809E-03  1880   0.239E-01    0.791E-02
DAV:  12    -0.251882483245E+02    0.77986E-02   -0.52241E-03  1660   0.260E-01    0.562E-02
DAV:  13    -0.251844010745E+02    0.38472E-02   -0.18718E-03  1865   0.176E-01    0.451E-02
DAV:  14    -0.251804577432E+02    0.39433E-02   -0.18899E-03  1585   0.140E-01    0.360E-02
DAV:  15    -0.251775004798E+02    0.29573E-02   -0.86029E-04  1875   0.104E-01    0.302E-02
DAV:  16    -0.251777330521E+02   -0.23257E-03   -0.11052E-03  1615   0.125E-01    0.248E-02
DAV:  17    -0.251770585732E+02    0.67448E-03   -0.53893E-04  1670   0.840E-02    0.200E-02
DAV:  18    -0.251766501783E+02    0.40839E-03   -0.24111E-04  1765   0.539E-02    0.164E-02
DAV:  19    -0.251764456214E+02    0.20456E-03   -0.18483E-04  1680   0.438E-02    0.141E-02
DAV:  20    -0.251761467501E+02    0.29887E-03   -0.68213E-05  1855   0.290E-02    0.116E-02
DAV:  21    -0.251759797164E+02    0.16703E-03   -0.18873E-05  1790   0.203E-02    0.101E-02
DAV:  22    -0.251757404433E+02    0.23927E-03   -0.87990E-05  1560   0.270E-02    0.799E-03
DAV:  23    -0.251757243337E+02    0.16110E-04   -0.65765E-06  1780   0.125E-02    0.685E-03
DAV:  24    -0.251758830605E+02   -0.15873E-03   -0.41005E-05  1600   0.197E-02    0.549E-03
DAV:  25    -0.251759902080E+02   -0.10715E-03   -0.13917E-05  1620   0.127E-02    0.483E-03
DAV:  26    -0.251761027165E+02   -0.11251E-03   -0.11182E-05  1670   0.116E-02    0.364E-03
DAV:  27    -0.251761738168E+02   -0.71100E-04   -0.62050E-06  1735   0.978E-03    0.278E-03
DAV:  28    -0.251762386842E+02   -0.64867E-04   -0.14358E-06  1250   0.563E-03    0.206E-03
DAV:  29    -0.251762889615E+02   -0.50277E-04   -0.56877E-06  1430   0.729E-03    0.165E-03
DAV:  30    -0.251763355310E+02   -0.46570E-04   -0.27226E-06  1380   0.536E-03    0.125E-03
DAV:  31    -0.251763468911E+02   -0.11360E-04   -0.10214E-06  1125   0.459E-03    0.109E-03
DAV:  32    -0.251763589802E+02   -0.12089E-04   -0.10582E-06  1140   0.348E-03    0.752E-04
DAV:  33    -0.251763602238E+02   -0.12436E-05   -0.38815E-07  1170   0.284E-03    0.768E-04
DAV:  34    -0.251763551413E+02    0.50825E-05   -0.40380E-07  1105   0.215E-03    0.767E-04
DAV:  35    -0.251763551035E+02    0.37857E-07   -0.85739E-07  1080   0.474E-03
   1 F= -.25176355E+02 E0= -.25175501E+02  d E =-.170867E-02
