 vasp.5.4.4.18Apr17-6-g9f103f2a35 (build Nov 15 2019 10:10:58) complex          
  
 executed on             LinuxIFC date 2024.09.28  15:09:24
 running on   20 total cores
 distrk:  each k-point on   20 cores,    1 groups
 distr:  one band on NCORES_PER_BAND=   4 cores,    5 groups


--------------------------------------------------------------------------------------------------------


 INCAR:
 POTCAR:   PAW_PBE Al 04Jan2001                   
 POTCAR:   PAW_PBE Al 04Jan2001                   
   VRHFIN =Al: s2p1                                                             
   LEXCH  = PE                                                                  
   EATOM  =    53.5387 eV,    3.9350 Ry                                         
                                                                                
   TITEL  = PAW_PBE Al 04Jan2001                                                
   LULTRA =        F    use ultrasoft PP ?                                      
   IUNSCR =        1    unscreen: 0-lin 1-nonlin 2-no                           
   RPACOR =    1.500    partial core radius                                     
   POMASS =   26.982; ZVAL   =    3.000    mass and valenz                      
   RCORE  =    1.900    outmost cutoff radius                                   
   RWIGS  =    2.650; RWIGS  =    1.402    wigner-seitz radius (au A)           
   ENMAX  =  240.300; ENMIN  =  180.225 eV                                      
   ICORE  =        2    local potential                                         
   LCOR   =        T    correct aug charges                                     
   LPAW   =        T    paw PP                                                  
   EAUG   =  291.052                                                            
   DEXC   =    -.041                                                            
   RMAX   =    2.974    core radius for proj-oper                               
   RAUG   =    1.300    factor for augmentation sphere                          
   RDEP   =    1.966    radius for radial grids                                 
   QCUT   =   -4.203; QGAM   =    8.405    optimization parameters              
                                                                                
   Description                                                                  
     l     E      TYP  RCUT    TYP  RCUT                                        
     0   .000     23  1.900                                                     
     0   .000     23  1.900                                                     
     1   .000     23  1.900                                                     
     1  1.000     23  1.900                                                     
     2   .000      7  1.900                                                     
  local pseudopotential read in
  partial core-charges read in
  atomic valenz-charges read in
  non local Contribution for L=           0  read in
    real space projection operators read in
  non local Contribution for L=           0  read in
    real space projection operators read in
  non local Contribution for L=           1  read in
    real space projection operators read in
  non local Contribution for L=           1  read in
    real space projection operators read in
    PAW grid and wavefunctions read in
 
   number of l-projection  operators is LMAX  =           4
   number of lm-projection operators is LMMAX =           8
 
 PAW_PBE Al 04Jan2001                   :
 energy of atom  1       EATOM=  -53.5387
 kinetic energy error for atom=    0.0004 (will be added to EATOM!!)
 
 
 POSCAR: Layer(26)                               
  positions in direct lattice
  velocities in cartesian coordinates
 exchange correlation table for  LEXCH =        8
   RHO(1)=    0.500       N(1)  =     2000
   RHO(2)=  100.500       N(2)  =     4000

 VTST: version 3.2, (02/03/18)

 CHAIN: initializing optimizer
 
 OPT: Using VASP Conjugate-Gradient optimizer
 CHAIN: Read ICHAIN            0
 
 POSCAR: Layer(26)                               
  positions in direct lattice
  velocities in cartesian coordinates
 


--------------------------------------------------------------------------------------------------------


 ion  position               nearest neighbor table
   1  0.926  0.074  0.235-   6 2.83   6 2.83   6 2.85
   2  0.947  0.053  0.332-   4 2.80   4 2.80   7 2.81   7 2.81   4 2.82   7 2.85
   3  0.961  0.039  0.428-   5 2.70   5 2.80   5 2.80
   4  0.606  0.394  0.300-   2 2.80   2 2.80   6 2.80   6 2.80   6 2.81   2 2.82
   5  0.645  0.355  0.396-   3 2.70   3 2.80   3 2.80   7 2.80   7 2.80   7 2.87
   6  0.268  0.732  0.268-   4 2.80   4 2.80   4 2.81   1 2.83   1 2.83   1 2.85
   7  0.292  0.708  0.364-   5 2.80   5 2.80   2 2.81   2 2.81   2 2.85   5 2.87
 
  LATTYP: Found a base centered monoclinic cell.
 ALAT       =     5.2328582782
 B/A-ratio  =     0.5683425909
 C/A-ratio  =    13.2634916918
 COS(beta)  =    -0.0797902432
  
  Lattice vectors:
  
 A1 = (  -2.5959741503,   1.5223026026,   0.0216319808)
 A2 = (  -0.0203658138,   3.0093305668,   0.0216319763)
 A3 = (   2.8991083346,  -5.0214023511, -69.1633550357)


Analysis of symmetry for initial positions (statically):
=====================================================================
 Subroutine PRICEL returns:
 Original cell was already a primitive cell.
 

 Routine SETGRP: Setting up the symmetry group for a 
 base centered monoclinic supercell.


 Subroutine GETGRP returns: Found  2 space group operations
 (whereof  2 operations were pure point group operations)
 out of a pool of  4 trial point group operations.


The static configuration has the point symmetry C_1h.


Analysis of symmetry for dynamics (positions and initial velocities):
=====================================================================
 Subroutine PRICEL returns:
 Original cell was already a primitive cell.
 

 Routine SETGRP: Setting up the symmetry group for a 
 base centered monoclinic supercell.


 Subroutine GETGRP returns: Found  2 space group operations
 (whereof  2 operations were pure point group operations)
 out of a pool of  4 trial point group operations.


The dynamic configuration has the point symmetry C_1h.


Analysis of constrained symmetry for selective dynamics:
=====================================================================
 Subroutine PRICEL returns:
 Original cell was already a primitive cell.
 

 Routine SETGRP: Setting up the symmetry group for a 
 base centered monoclinic supercell.


 Subroutine GETGRP returns: Found  2 space group operations
 (whereof  2 operations were pure point group operations)
 out of a pool of  4 trial point group operations.


The constrained configuration has the point symmetry C_1h.


 Subroutine INISYM returns: Found  2 space group operations
 (whereof  2 operations are pure point group operations),
 and found     1 'primitive' translations

 
 
 KPOINTS: K-Spacing Value to Generate K-Mesh: 0.02

Automatic generation of k-mesh.
Space group operators:
 irot       det(A)        alpha          n_x          n_y          n_z        tau_x        tau_y        tau_z
    1     1.000000     0.000000     1.000000     0.000000     0.000000     0.000000     0.000000     0.000000
    2    -1.000000   180.000000     0.866025     0.500000    -0.000000     0.000000     0.000000     0.000000
 
 Subroutine IBZKPT returns following result:
 ===========================================
 
 Found     49 irreducible k-points:
 
 Following reciprocal coordinates:
            Coordinates               Weight
  0.000000  0.000000  0.000000      1.000000
  0.076923 -0.000000  0.000000      4.000000
  0.153846 -0.000000 -0.000000      4.000000
  0.230769 -0.000000 -0.000000      4.000000
  0.307692 -0.000000  0.000000      4.000000
  0.384615 -0.000000 -0.000000      4.000000
  0.461538 -0.000000 -0.000000      4.000000
  0.076923  0.076923 -0.000000      2.000000
  0.153846  0.076923 -0.000000      4.000000
  0.230769  0.076923 -0.000000      4.000000
  0.307692  0.076923  0.000000      4.000000
  0.384615  0.076923 -0.000000      4.000000
  0.461538  0.076923  0.000000      4.000000
 -0.461538  0.076923  0.000000      4.000000
 -0.384615  0.076923  0.000000      4.000000
 -0.307692  0.076923  0.000000      4.000000
 -0.230769  0.076923 -0.000000      4.000000
 -0.153846  0.076923  0.000000      4.000000
 -0.076923  0.076923 -0.000000      2.000000
  0.153846  0.153846 -0.000000      2.000000
  0.230769  0.153846 -0.000000      4.000000
  0.307692  0.153846 -0.000000      4.000000
  0.384615  0.153846 -0.000000      4.000000
  0.461538  0.153846 -0.000000      4.000000
 -0.461538  0.153846 -0.000000      4.000000
 -0.384615  0.153846 -0.000000      4.000000
 -0.307692  0.153846  0.000000      4.000000
 -0.230769  0.153846  0.000000      4.000000
 -0.153846  0.153846 -0.000000      2.000000
  0.230769  0.230769 -0.000000      2.000000
  0.307692  0.230769 -0.000000      4.000000
  0.384615  0.230769 -0.000000      4.000000
  0.461538  0.230769 -0.000000      4.000000
 -0.461538  0.230769  0.000000      4.000000
 -0.384615  0.230769  0.000000      4.000000
 -0.307692  0.230769 -0.000000      4.000000
 -0.230769  0.230769 -0.000000      2.000000
  0.307692  0.307692 -0.000000      2.000000
  0.384615  0.307692 -0.000000      4.000000
  0.461538  0.307692 -0.000000      4.000000
 -0.461538  0.307692 -0.000000      4.000000
 -0.384615  0.307692 -0.000000      4.000000
 -0.307692  0.307692 -0.000000      2.000000
  0.384615  0.384615  0.000000      2.000000
  0.461538  0.384615 -0.000000      4.000000
 -0.461538  0.384615 -0.000000      4.000000
 -0.384615  0.384615 -0.000000      2.000000
  0.461538  0.461538 -0.000000      2.000000
 -0.461538  0.461538 -0.000000      2.000000
 
 Following cartesian coordinates:
            Coordinates               Weight
  0.000000  0.000000  0.000000      1.000000
  0.029750  0.000200  0.000120      4.000000
  0.059500  0.000401  0.000241      4.000000
  0.089251  0.000601  0.000361      4.000000
  0.119001  0.000802  0.000481      4.000000
  0.148751  0.001002  0.000601      4.000000
  0.178501  0.001203  0.000722      4.000000
  0.044799  0.025865 -0.000000      2.000000
  0.074549  0.026065  0.000120      4.000000
  0.104299  0.026266  0.000241      4.000000
  0.134050  0.026466  0.000361      4.000000
  0.163800  0.026667  0.000481      4.000000
  0.193550  0.026867  0.000601      4.000000
 -0.163453  0.024461 -0.000842      4.000000
 -0.133702  0.024662 -0.000722      4.000000
 -0.103952  0.024862 -0.000601      4.000000
 -0.074202  0.025063 -0.000481      4.000000
 -0.044452  0.025263 -0.000361      4.000000
 -0.014702  0.025464 -0.000241      2.000000
  0.089598  0.051729 -0.000000      2.000000
  0.119348  0.051930  0.000120      4.000000
  0.149098  0.052130  0.000241      4.000000
  0.178849  0.052331  0.000361      4.000000
  0.208599  0.052531  0.000481      4.000000
 -0.148404  0.050126 -0.000962      4.000000
 -0.118654  0.050326 -0.000842      4.000000
 -0.088903  0.050527 -0.000722      4.000000
 -0.059153  0.050727 -0.000601      4.000000
 -0.029403  0.050928 -0.000481      2.000000
  0.134397  0.077594 -0.000000      2.000000
  0.164147  0.077795  0.000120      4.000000
  0.193897  0.077995  0.000241      4.000000
  0.223648  0.078196  0.000361      4.000000
 -0.133355  0.075790 -0.001083      4.000000
 -0.103605  0.075990 -0.000962      4.000000
 -0.073855  0.076191 -0.000842      4.000000
 -0.044105  0.076391 -0.000722      2.000000
  0.179196  0.103459 -0.000000      2.000000
  0.208946  0.103659  0.000120      4.000000
  0.238696  0.103860  0.000241      4.000000
 -0.118307  0.101454 -0.001203      4.000000
 -0.088556  0.101655 -0.001083      4.000000
 -0.058806  0.101855 -0.000962      2.000000
  0.223995  0.129324 -0.000000      2.000000
  0.253745  0.129524  0.000120      4.000000
 -0.103258  0.127118 -0.001323      4.000000
 -0.073508  0.127319 -0.001203      2.000000
  0.268794  0.155188 -0.000000      2.000000
 -0.088209  0.152783 -0.001443      2.000000
 


--------------------------------------------------------------------------------------------------------




 Dimension of arrays:
   k-points           NKPTS =     49   k-points in BZ     NKDIM =     49   number of bands    NBANDS=     15
   number of dos      NEDOS =    301   number of ions     NIONS =      7
   non local maximal  LDIM  =      4   non local SUM 2l+1 LMDIM =      8
   total plane-waves  NPLWV = 311040
   max r-space proj   IRMAX =      1   max aug-charges    IRDMAX= 180255
   dimension x,y,z NGX =    24 NGY =   24 NGZ =  540
   dimension x,y,z NGXF=    48 NGYF=   48 NGZF= 1080
   support grid    NGXF=    96 NGYF=   96 NGZF= 2160
   ions per type =               7
   NGX,Y,Z   is equivalent  to a cutoff of  13.26, 13.26, 12.99 a.u.
   NGXF,Y,Z  is equivalent  to a cutoff of  26.52, 26.52, 25.98 a.u.

 Based on PREC, I would recommend the following setting:
   dimension x,y,z NGX =    24 NGY =   24 NGZ =  480

 SYSTEM =  unknown system                          
 POSCAR =  Layer(26)                               

 Startparameter for this run:
   NWRITE =      2    write-flag & timer
   PREC   = accura    normal or accurate (medium, high low for compatibility)
   ISTART =      0    job   : 0-new  1-cont  2-samecut
   ICHARG =      2    charge: 1-file 2-atom 10-const
   ISPIN  =      1    spin polarized calculation?
   LNONCOLLINEAR =      F non collinear calculations
   LSORBIT =      F    spin-orbit coupling
   INIWAV =      1    electr: 0-lowe 1-rand  2-diag
   LASPH  =      F    aspherical Exc in radial PAW
   METAGGA=      F    non-selfconsistent MetaGGA calc.

 Electronic Relaxation 1
   ENCUT  =  450.0 eV  33.07 Ry    5.75 a.u.   5.21  5.21119.56*2*pi/ulx,y,z
   ENINI  =  450.0     initial cutoff
   ENAUG  =  291.1 eV  augmentation charge cutoff
   NELM   =    100;   NELMIN=  6; NELMDL=  0     # of ELM steps 
   EDIFF  = 0.1E-05   stopping-criterion for ELM
   LREAL  =      F    real-space projection
   NLSPLINE    = F    spline interpolate recip. space projectors
   LCOMPAT=      F    compatible to vasp.4.4
   GGA_COMPAT  = T    GGA compatible to vasp.4.4-vasp.4.6
   LMAXPAW     = -100 max onsite density
   LMAXMIX     =    2 max onsite mixed and CHGCAR
   VOSKOWN=      0    Vosko Wilk Nusair interpolation
   ROPT   =    0.00000
 Ionic relaxation
   EDIFFG = -.2E-01   stopping-criterion for IOM
   NSW    =      0    number of steps for IOM
   NBLOCK =      1;   KBLOCK =      1    inner block; outer block 
   IBRION =     -1    ionic relax: 0-MD 1-quasi-New 2-CG
   NFREE  =      1    steps in history (QN), initial steepest desc. (CG)
   ISIF   =      4    stress and relaxation
   IWAVPR =     10    prediction:  0-non 1-charg 2-wave 3-comb
   ISYM   =      2    0-nonsym 1-usesym 2-fastsym
   LCORR  =      T    Harris-Foulkes like correction to forces

   POTIM  = 0.5000    time-step for ionic-motion
   TEIN   =    0.0    initial temperature
   TEBEG  =    0.0;   TEEND  =   0.0 temperature during run
   SMASS  =  -3.00    Nose mass-parameter (am)
   estimated Nose-frequenzy (Omega)   =  0.10E-29 period in steps =****** mass=  -0.207E-27a.u.
   SCALEE = 1.0000    scale energy and forces
   NPACO  =    256;   APACO  = 16.0  distance and # of slots for P.C.
   PSTRESS=    0.0 pullay stress

  Mass of Ions in am
   POMASS =  26.98
  Ionic Valenz
   ZVAL   =   3.00
  Atomic Wigner-Seitz radii
   RWIGS  =  -1.00
  virtual crystal weights 
   VCA    =   1.00
   NELECT =      21.0000    total number of electrons
   NUPDOWN=      -1.0000    fix difference up-down

 DOS related values:
   EMIN   =  10.00;   EMAX   =-10.00  energy-range for DOS
   EFERMI =   0.00
   ISMEAR =     0;   SIGMA  =   0.05  broadening in eV -4-tet -1-fermi 0-gaus

 Electronic relaxation 2 (details)
   IALGO  =     38    algorithm
   LDIAG  =      T    sub-space diagonalisation (order eigenvalues)
   LSUBROT=      F    optimize rotation matrix (better conditioning)
   TURBO    =      0    0=normal 1=particle mesh
   IRESTART =      0    0=no restart 2=restart with 2 vectors
   NREBOOT  =      0    no. of reboots
   NMIN     =      0    reboot dimension
   EREF     =   0.00    reference energy to select bands
   IMIX   =      4    mixing-type and parameters
     AMIX     =   0.40;   BMIX     =  1.00
     AMIX_MAG =   1.60;   BMIX_MAG =  1.00
     AMIN     =   0.01
     WC   =   100.;   INIMIX=   1;  MIXPRE=   1;  MAXMIX= -45

 Intra band minimization:
   WEIMIN = 0.0000     energy-eigenvalue tresh-hold
   EBREAK =  0.17E-07  absolut break condition
   DEPER  =   0.30     relativ break condition  

   TIME   =   0.40     timestep for ELM

  volume/ion in A,a.u.               =      76.83       518.46
  Fermi-wavevector in a.u.,A,eV,Ry     =   0.555403  1.049560  4.197029  0.308473
  Thomas-Fermi vector in A             =   1.589125
 
 Write flags
   LWAVE        =      F    write WAVECAR
   LDOWNSAMPLE  =      F    k-point downsampling of WAVECAR
   LCHARG       =      T    write CHGCAR
   LVTOT        =      F    write LOCPOT, total local potential
   LVHAR        =      F    write LOCPOT, Hartree potential only
   LELF         =      F    write electronic localiz. function (ELF)
   LORBIT       =      0    0 simple, 1 ext, 2 COOP (PROOUT), +10 PAW based schemes


 Dipole corrections
   LMONO  =      F    monopole corrections only (constant potential shift)
   LDIPOL =      F    correct potential (dipole corrections)
   IDIPOL =      0    1-x, 2-y, 3-z, 4-all directions 
   EPSILON=  1.0000000 bulk dielectric constant

 Exchange correlation treatment:
   GGA     =    --    GGA type
   LEXCH   =     8    internal setting for exchange type
   VOSKOWN=      0    Vosko Wilk Nusair interpolation
   LHFCALC =     F    Hartree Fock is set to
   LHFONE  =     F    Hartree Fock one center treatment
   AEXX    =    0.0000 exact exchange contribution

 Linear response parameters
   LEPSILON=     F    determine dielectric tensor
   LRPA    =     F    only Hartree local field effects (RPA)
   LNABLA  =     F    use nabla operator in PAW spheres
   LVEL    =     F    velocity operator in full k-point grid
   LINTERFAST=   F  fast interpolation
   KINTER  =     0    interpolate to denser k-point grid
   CSHIFT  =0.1000    complex shift for real part using Kramers Kronig
   OMEGAMAX=  -1.0    maximum frequency
   DEG_THRESHOLD= 0.2000000E-02 threshold for treating states as degnerate
   RTIME   =   -0.100 relaxation time in fs
  (WPLASMAI=    0.000 imaginary part of plasma frequency in eV, 0.658/RTIME)
   DFIELD  = 0.0000000 0.0000000 0.0000000 field for delta impulse in time
 
 Orbital magnetization related:
   ORBITALMAG=     F  switch on orbital magnetization
   LCHIMAG   =     F  perturbation theory with respect to B field
   DQ        =  0.001000  dq finite difference perturbation B field
   LLRAUG    =     F  two centre corrections for induced B field



--------------------------------------------------------------------------------------------------------


 Static calculation
 charge density and potential will be updated during run
 non-spin polarized calculation
 Variant of blocked Davidson
 Davidson routine will perform the subspace rotation
 perform sub-space diagonalisation
    after iterative eigenvector-optimisation
 modified Broyden-mixing scheme, WC =      100.0
 initial mixing is a Kerker type mixing with AMIX =  0.4000 and BMIX =      1.0000
 Hartree-type preconditioning will be used
 using additional bands            4
 reciprocal scheme for non local part
 use partial core corrections
 calculate Harris-corrections to forces 
   (improved forces if not selfconsistent)
 use gradient corrections 
 use of overlap-Matrix (Vanderbilt PP)
 Gauss-broadening in eV      SIGMA  =   0.05


--------------------------------------------------------------------------------------------------------


  energy-cutoff  :      450.00
  volume of cell :      537.80
      direct lattice vectors                 reciprocal lattice vectors
     2.595974150 -1.522302603 -0.021631981     0.386753138  0.002606133  0.001563730
    -0.020365814  3.009330567  0.021631976     0.195633548  0.333635020 -0.001563730
    -0.282768370  0.489769182 69.120091079     0.000059813 -0.000103600  0.014468552

  length of vectors
     3.009477520  3.009477225 69.122404635     0.386765080  0.386765118  0.014469047


 
 k-points in units of 2pi/SCALE and weight: K-Spacing Value to Generate K-Mesh: 0.02
   0.00000000  0.00000000  0.00000000       0.006
   0.02975024  0.00020047  0.00012029       0.024
   0.05950048  0.00040094  0.00024057       0.024
   0.08925072  0.00060142  0.00036086       0.024
   0.11900097  0.00080189  0.00048115       0.024
   0.14875121  0.00100236  0.00060143       0.024
   0.17850145  0.00120283  0.00072172       0.024
   0.04479898  0.02586470 -0.00000000       0.012
   0.07454922  0.02606518  0.00012029       0.024
   0.10429946  0.02626565  0.00024057       0.024
   0.13404970  0.02646612  0.00036086       0.024
   0.16379994  0.02666659  0.00048115       0.024
   0.19355018  0.02686706  0.00060143       0.024
  -0.16345271  0.02446140 -0.00084201       0.024
  -0.13370247  0.02466187 -0.00072172       0.024
  -0.10395223  0.02486235 -0.00060143       0.024
  -0.07420199  0.02506282 -0.00048115       0.024
  -0.04445175  0.02526329 -0.00036086       0.024
  -0.01470151  0.02546376 -0.00024057       0.012
   0.08959795  0.05172941 -0.00000000       0.012
   0.11934819  0.05192988  0.00012029       0.024
   0.14909843  0.05213035  0.00024057       0.024
   0.17884868  0.05233082  0.00036086       0.024
   0.20859892  0.05253130  0.00048115       0.024
  -0.14840398  0.05012563 -0.00096230       0.024
  -0.11865374  0.05032611 -0.00084201       0.024
  -0.08890350  0.05052658 -0.00072172       0.024
  -0.05915326  0.05072705 -0.00060143       0.024
  -0.02940301  0.05092752 -0.00048115       0.012
   0.13439693  0.07759411 -0.00000000       0.012
   0.16414717  0.07779458  0.00012029       0.024
   0.19389741  0.07799506  0.00024057       0.024
   0.22364765  0.07819553  0.00036086       0.024
  -0.13335525  0.07578987 -0.00108258       0.024
  -0.10360500  0.07599034 -0.00096230       0.024
  -0.07385476  0.07619081 -0.00084201       0.024
  -0.04410452  0.07639128 -0.00072172       0.012
   0.17919590  0.10345882 -0.00000000       0.012
   0.20894614  0.10365929  0.00012029       0.024
   0.23869639  0.10385976  0.00024057       0.024
  -0.11830651  0.10145410 -0.00120287       0.024
  -0.08855627  0.10165457 -0.00108258       0.024
  -0.05880603  0.10185504 -0.00096230       0.012
   0.22399488  0.12932352 -0.00000000       0.012
   0.25374512  0.12952399  0.00012029       0.024
  -0.10325778  0.12711833 -0.00132316       0.024
  -0.07350753  0.12731880 -0.00120287       0.012
   0.26879386  0.15518822 -0.00000000       0.012
  -0.08820904  0.15278256 -0.00144344       0.012
 
 k-points in reciprocal lattice and weights: K-Spacing Value to Generate K-Mesh: 0.02
   0.00000000  0.00000000  0.00000000       0.006
   0.07692308 -0.00000000  0.00000000       0.024
   0.15384615 -0.00000000 -0.00000000       0.024
   0.23076923 -0.00000000 -0.00000000       0.024
   0.30769231 -0.00000000  0.00000000       0.024
   0.38461538 -0.00000000 -0.00000000       0.024
   0.46153846 -0.00000000 -0.00000000       0.024
   0.07692308  0.07692308 -0.00000000       0.012
   0.15384615  0.07692308 -0.00000000       0.024
   0.23076923  0.07692308 -0.00000000       0.024
   0.30769231  0.07692308  0.00000000       0.024
   0.38461538  0.07692308 -0.00000000       0.024
   0.46153846  0.07692308  0.00000000       0.024
  -0.46153846  0.07692308  0.00000000       0.024
  -0.38461538  0.07692308  0.00000000       0.024
  -0.30769231  0.07692308  0.00000000       0.024
  -0.23076923  0.07692308 -0.00000000       0.024
  -0.15384615  0.07692308  0.00000000       0.024
  -0.07692308  0.07692308 -0.00000000       0.012
   0.15384615  0.15384615 -0.00000000       0.012
   0.23076923  0.15384615 -0.00000000       0.024
   0.30769231  0.15384615 -0.00000000       0.024
   0.38461538  0.15384615 -0.00000000       0.024
   0.46153846  0.15384615 -0.00000000       0.024
  -0.46153846  0.15384615 -0.00000000       0.024
  -0.38461538  0.15384615 -0.00000000       0.024
  -0.30769231  0.15384615  0.00000000       0.024
  -0.23076923  0.15384615  0.00000000       0.024
  -0.15384615  0.15384615 -0.00000000       0.012
   0.23076923  0.23076923 -0.00000000       0.012
   0.30769231  0.23076923 -0.00000000       0.024
   0.38461538  0.23076923 -0.00000000       0.024
   0.46153846  0.23076923 -0.00000000       0.024
  -0.46153846  0.23076923  0.00000000       0.024
  -0.38461538  0.23076923  0.00000000       0.024
  -0.30769231  0.23076923 -0.00000000       0.024
  -0.23076923  0.23076923 -0.00000000       0.012
   0.30769231  0.30769231 -0.00000000       0.012
   0.38461538  0.30769231 -0.00000000       0.024
   0.46153846  0.30769231 -0.00000000       0.024
  -0.46153846  0.30769231 -0.00000000       0.024
  -0.38461538  0.30769231 -0.00000000       0.024
  -0.30769231  0.30769231 -0.00000000       0.012
   0.38461538  0.38461538  0.00000000       0.012
   0.46153846  0.38461538 -0.00000000       0.024
  -0.46153846  0.38461538 -0.00000000       0.024
  -0.38461538  0.38461538 -0.00000000       0.012
   0.46153846  0.46153846 -0.00000000       0.012
  -0.46153846  0.46153846 -0.00000000       0.012
 
 position of ions in fractional coordinates (direct lattice) 
   0.92636177  0.07363823  0.23524977
   0.94714862  0.05285138  0.33177673
   0.96109029  0.03890971  0.42756793
   0.60610503  0.39389497  0.29974956
   0.64457279  0.35542721  0.39638573
   0.26780630  0.73219370  0.26779631
   0.29218116  0.70781884  0.36407478
 
 position of ions in cartesian coordinates  (Angst):
   2.33679032 -1.07338308 16.24203945
   2.36388100 -1.12030550 22.91309246
   2.37327044 -1.13656849 29.53358577
   1.48065131  0.40949300 20.71412656
   1.55397039  0.28250065 27.39196323
   0.60458220  1.92688901 18.52015100
   0.64113060  1.86358535 25.17387292
 


--------------------------------------------------------------------------------------------------------


 k-point  1 :   0.0000 0.0000 0.0000  plane waves:   11595
 k-point  2 :   0.0769-0.0000 0.0000  plane waves:   11559
 k-point  3 :   0.1538-0.0000-0.0000  plane waves:   11566
 k-point  4 :   0.2308-0.0000-0.0000  plane waves:   11647
 k-point  5 :   0.3077-0.0000 0.0000  plane waves:   11706
 k-point  6 :   0.3846-0.0000-0.0000  plane waves:   11748
 k-point  7 :   0.4615-0.0000-0.0000  plane waves:   11741
 k-point  8 :   0.0769 0.0769-0.0000  plane waves:   11545
 k-point  9 :   0.1538 0.0769-0.0000  plane waves:   11639
 k-point 10 :   0.2308 0.0769-0.0000  plane waves:   11684
 k-point 11 :   0.3077 0.0769 0.0000  plane waves:   11713
 k-point 12 :   0.3846 0.0769-0.0000  plane waves:   11713
 k-point 13 :   0.4615 0.0769 0.0000  plane waves:   11699
 k-point 14 :  -0.4615 0.0769 0.0000  plane waves:   11726
 k-point 15 :  -0.3846 0.0769 0.0000  plane waves:   11731
 k-point 16 :  -0.3077 0.0769 0.0000  plane waves:   11675
 k-point 17 :  -0.2308 0.0769-0.0000  plane waves:   11617
 k-point 18 :  -0.1538 0.0769 0.0000  plane waves:   11610
 k-point 19 :  -0.0769 0.0769-0.0000  plane waves:   11611
 k-point 20 :   0.1538 0.1538-0.0000  plane waves:   11635
 k-point 21 :   0.2308 0.1538-0.0000  plane waves:   11673
 k-point 22 :   0.3077 0.1538-0.0000  plane waves:   11697
 k-point 23 :   0.3846 0.1538-0.0000  plane waves:   11684
 k-point 24 :   0.4615 0.1538-0.0000  plane waves:   11689
 k-point 25 :  -0.4615 0.1538-0.0000  plane waves:   11686
 k-point 26 :  -0.3846 0.1538-0.0000  plane waves:   11660
 k-point 27 :  -0.3077 0.1538 0.0000  plane waves:   11623
 k-point 28 :  -0.2308 0.1538 0.0000  plane waves:   11590
 k-point 29 :  -0.1538 0.1538-0.0000  plane waves:   11594
 k-point 30 :   0.2308 0.2308-0.0000  plane waves:   11643
 k-point 31 :   0.3077 0.2308-0.0000  plane waves:   11660
 k-point 32 :   0.3846 0.2308-0.0000  plane waves:   11637
 k-point 33 :   0.4615 0.2308-0.0000  plane waves:   11641
 k-point 34 :  -0.4615 0.2308 0.0000  plane waves:   11648
 k-point 35 :  -0.3846 0.2308 0.0000  plane waves:   11618
 k-point 36 :  -0.3077 0.2308-0.0000  plane waves:   11626
 k-point 37 :  -0.2308 0.2308-0.0000  plane waves:   11609
 k-point 38 :   0.3077 0.3077-0.0000  plane waves:   11607
 k-point 39 :   0.3846 0.3077-0.0000  plane waves:   11612
 k-point 40 :   0.4615 0.3077-0.0000  plane waves:   11652
 k-point 41 :  -0.4615 0.3077-0.0000  plane waves:   11662
 k-point 42 :  -0.3846 0.3077-0.0000  plane waves:   11677
 k-point 43 :  -0.3077 0.3077-0.0000  plane waves:   11648
 k-point 44 :   0.3846 0.3846 0.0000  plane waves:   11667
 k-point 45 :   0.4615 0.3846-0.0000  plane waves:   11664
 k-point 46 :  -0.4615 0.3846-0.0000  plane waves:   11687
 k-point 47 :  -0.3846 0.3846-0.0000  plane waves:   11671
 k-point 48 :   0.4615 0.4615-0.0000  plane waves:   11696
 k-point 49 :  -0.4615 0.4615-0.0000  plane waves:   11676

 maximum and minimum number of plane-waves per node :      2958     2877

 maximum number of plane-waves:     11748
 maximum index in each direction: 
   IXMAX=    5   IYMAX=    5   IZMAX=  119
   IXMIN=   -5   IYMIN=   -5   IZMIN= -119


 parallel 3D FFT for wavefunctions:
    minimum data exchange during FFTs selected (reduces bandwidth)
 parallel 3D FFT for charge:
    minimum data exchange during FFTs selected (reduces bandwidth)


 total amount of memory used by VASP MPI-rank0    78567. kBytes
=======================================================================

   base      :      30000. kBytes
   nonl-proj :       9614. kBytes
   fftplans  :      21353. kBytes
   grid      :      10586. kBytes
   one-center:          6. kBytes
   wavefun   :       7008. kBytes
 
     INWAV:  cpu time    0.0000: real time    0.0001
 Broyden mixing: mesh for mixing (old mesh)
   NGX = 11   NGY = 11   NGZ =239
  (NGX  = 48   NGY  = 48   NGZ  =***)
  gives a total of  28919 points

 initial charge density was supplied:
 charge density of overlapping atoms calculated
 number of electron      21.0000000 magnetization 
 keeping initial charge density in first step


--------------------------------------------------------------------------------------------------------


 Maximum index for augmentation-charges         9709 (set IRDMAX)


--------------------------------------------------------------------------------------------------------


 First call to EWALD:  gamma=   0.218
 Maximum number of real-space cells 8x 8x 1
 Maximum number of reciprocal cells 1x 1x20

    FEWALD:  cpu time    0.0013: real time    0.0013


--------------------------------------- Iteration      1(   1)  ---------------------------------------


    POTLOK:  cpu time    0.0892: real time    0.0893
    SETDIJ:  cpu time    0.0989: real time    0.1003
     EDDAV:  cpu time    2.6629: real time    2.6806
       DOS:  cpu time    0.0008: real time    0.0012
    --------------------------------------------
      LOOP:  cpu time    2.8518: real time    2.8714

 eigenvalue-minimisations  :  1530
 total energy-change (2. order) : 0.9387059E+02  (-0.5655179E+03)
 number of electron      21.0000000 magnetization 
 augmentation part       21.0000000 magnetization 

 Free energy of the ion-electron system (eV)
  ---------------------------------------------------
  alpha Z        PSCENC =        -0.30602968
  Ewald energy   TEWEN  =     17354.60802345
  -Hartree energ DENC   =    -17632.86358924
  -exchange      EXHF   =         0.00000000
  -V(xc)+E(xc)   XCENC  =      -185.12567950
  PAW double counting   =       248.87978439      -25.19288129
  entropy T*S    EENTRO =        -0.00320052
  eigenvalues    EBANDS =       -40.89368404
  atomic energy  EATOM  =       374.76784764
  Solvation  Ediel_sol  =         0.00000000
  ---------------------------------------------------
  free energy    TOTEN  =        93.87059120 eV

  energy without entropy =       93.87379172  energy(sigma->0) =       93.87219146


--------------------------------------------------------------------------------------------------------




--------------------------------------- Iteration      1(   2)  ---------------------------------------


     EDDAV:  cpu time    3.3074: real time    3.3339
       DOS:  cpu time    0.0008: real time    0.0012
    --------------------------------------------
      LOOP:  cpu time    3.3082: real time    3.3351

 eigenvalue-minimisations  :  2210
 total energy-change (2. order) :-0.1154750E+03  (-0.9859372E+02)
 number of electron      21.0000000 magnetization 
 augmentation part       21.0000000 magnetization 

 Free energy of the ion-electron system (eV)
  ---------------------------------------------------
  alpha Z        PSCENC =        -0.30602968
  Ewald energy   TEWEN  =     17354.60802345
  -Hartree energ DENC   =    -17632.86358924
  -exchange      EXHF   =         0.00000000
  -V(xc)+E(xc)   XCENC  =      -185.12567950
  PAW double counting   =       248.87978439      -25.19288129
  entropy T*S    EENTRO =        -0.00214072
  eigenvalues    EBANDS =      -156.36971719
  atomic energy  EATOM  =       374.76784764
  Solvation  Ediel_sol  =         0.00000000
  ---------------------------------------------------
  free energy    TOTEN  =       -21.60438215 eV

  energy without entropy =      -21.60224143  energy(sigma->0) =      -21.60331179


--------------------------------------------------------------------------------------------------------




--------------------------------------- Iteration      1(   3)  ---------------------------------------


     EDDAV:  cpu time    3.0294: real time    3.0376
       DOS:  cpu time    0.0011: real time    0.0017
    --------------------------------------------
      LOOP:  cpu time    3.0305: real time    3.0393

 eigenvalue-minimisations  :  1885
 total energy-change (2. order) :-0.4156976E+01  (-0.4086847E+01)
 number of electron      21.0000000 magnetization 
 augmentation part       21.0000000 magnetization 

 Free energy of the ion-electron system (eV)
  ---------------------------------------------------
  alpha Z        PSCENC =        -0.30602968
  Ewald energy   TEWEN  =     17354.60802345
  -Hartree energ DENC   =    -17632.86358924
  -exchange      EXHF   =         0.00000000
  -V(xc)+E(xc)   XCENC  =      -185.12567950
  PAW double counting   =       248.87978439      -25.19288129
  entropy T*S    EENTRO =        -0.00287980
  eigenvalues    EBANDS =      -160.52595450
  atomic energy  EATOM  =       374.76784764
  Solvation  Ediel_sol  =         0.00000000
  ---------------------------------------------------
  free energy    TOTEN  =       -25.76135854 eV

  energy without entropy =      -25.75847874  energy(sigma->0) =      -25.75991864


--------------------------------------------------------------------------------------------------------




--------------------------------------- Iteration      1(   4)  ---------------------------------------


     EDDAV:  cpu time    3.2996: real time    3.3092
       DOS:  cpu time    0.0007: real time    0.0007
    --------------------------------------------
      LOOP:  cpu time    3.3004: real time    3.3100

 eigenvalue-minimisations  :  2255
 total energy-change (2. order) :-0.1555602E+00  (-0.1538029E+00)
 number of electron      21.0000000 magnetization 
 augmentation part       21.0000000 magnetization 

 Free energy of the ion-electron system (eV)
  ---------------------------------------------------
  alpha Z        PSCENC =        -0.30602968
  Ewald energy   TEWEN  =     17354.60802345
  -Hartree energ DENC   =    -17632.86358924
  -exchange      EXHF   =         0.00000000
  -V(xc)+E(xc)   XCENC  =      -185.12567950
  PAW double counting   =       248.87978439      -25.19288129
  entropy T*S    EENTRO =        -0.00316309
  eigenvalues    EBANDS =      -160.68123138
  atomic energy  EATOM  =       374.76784764
  Solvation  Ediel_sol  =         0.00000000
  ---------------------------------------------------
  free energy    TOTEN  =       -25.91691871 eV

  energy without entropy =      -25.91375562  energy(sigma->0) =      -25.91533717


--------------------------------------------------------------------------------------------------------




--------------------------------------- Iteration      1(   5)  ---------------------------------------


     EDDAV:  cpu time    3.3779: real time    3.3898
       DOS:  cpu time    0.0007: real time    0.0007
    CHARGE:  cpu time    0.2819: real time    0.2823
    MIXING:  cpu time    0.0076: real time    0.0077
    --------------------------------------------
      LOOP:  cpu time    3.6681: real time    3.6806

 eigenvalue-minimisations  :  2460
 total energy-change (2. order) :-0.8513014E-02  (-0.8507826E-02)
 number of electron      21.0000000 magnetization 
 augmentation part       -0.2802650 magnetization 

 Broyden mixing:
  rms(total) = 0.28566E+00    rms(broyden)= 0.28566E+00
  rms(prec ) = 0.31135E+00
  weight for this iteration     100.00

 Free energy of the ion-electron system (eV)
  ---------------------------------------------------
  alpha Z        PSCENC =        -0.30602968
  Ewald energy   TEWEN  =     17354.60802345
  -Hartree energ DENC   =    -17632.86358924
  -exchange      EXHF   =         0.00000000
  -V(xc)+E(xc)   XCENC  =      -185.12567950
  PAW double counting   =       248.87978439      -25.19288129
  entropy T*S    EENTRO =        -0.00317034
  eigenvalues    EBANDS =      -160.68973715
  atomic energy  EATOM  =       374.76784764
  Solvation  Ediel_sol  =         0.00000000
  ---------------------------------------------------
  free energy    TOTEN  =       -25.92543173 eV

  energy without entropy =      -25.92226139  energy(sigma->0) =      -25.92384656


--------------------------------------------------------------------------------------------------------




--------------------------------------- Iteration      1(   6)  ---------------------------------------


    POTLOK:  cpu time    0.0834: real time    0.0837
    SETDIJ:  cpu time    0.1060: real time    0.1067
     EDDAV:  cpu time    2.5485: real time    2.5547
       DOS:  cpu time    0.0008: real time    0.0014
    CHARGE:  cpu time    0.2363: real time    0.3106
    MIXING:  cpu time    0.0033: real time    0.0039
    --------------------------------------------
      LOOP:  cpu time    2.9782: real time    3.0610

 eigenvalue-minimisations  :  1685
 total energy-change (2. order) : 0.5640671E+00  (-0.1728401E+00)
 number of electron      21.0000000 magnetization 
 augmentation part       -0.2822508 magnetization 

 Broyden mixing:
  rms(total) = 0.15922E+00    rms(broyden)= 0.15922E+00
  rms(prec ) = 0.16333E+00
  weight for this iteration     100.00

 eigenvalues of (default mixing * dielectric matrix)
  average eigenvalue GAMMA=   1.8142
  1.8142

 Free energy of the ion-electron system (eV)
  ---------------------------------------------------
  alpha Z        PSCENC =        -0.30602968
  Ewald energy   TEWEN  =     17354.60802345
  -Hartree energ DENC   =    -17638.19295795
  -exchange      EXHF   =         0.00000000
  -V(xc)+E(xc)   XCENC  =      -184.94250102
  PAW double counting   =       248.94888704      -25.27566283
  entropy T*S    EENTRO =        -0.00197639
  eigenvalues    EBANDS =      -154.96699492
  atomic energy  EATOM  =       374.76784764
  Solvation  Ediel_sol  =         0.00000000
  ---------------------------------------------------
  free energy    TOTEN  =       -25.36136466 eV

  energy without entropy =      -25.35938827  energy(sigma->0) =      -25.36037646


--------------------------------------------------------------------------------------------------------




--------------------------------------- Iteration      1(   7)  ---------------------------------------


    POTLOK:  cpu time    0.0856: real time    0.0875
    SETDIJ:  cpu time    0.1032: real time    0.1037
     EDDAV:  cpu time    2.8476: real time    2.9110
       DOS:  cpu time    0.0007: real time    0.0007
    CHARGE:  cpu time    0.2987: real time    0.2999
    MIXING:  cpu time    0.0152: real time    0.0153
    --------------------------------------------
      LOOP:  cpu time    3.3509: real time    3.4180

 eigenvalue-minimisations  :  1920
 total energy-change (2. order) : 0.1119337E+00  (-0.2639745E-01)
 number of electron      21.0000000 magnetization 
 augmentation part       -0.2862547 magnetization 

 Broyden mixing:
  rms(total) = 0.72689E-01    rms(broyden)= 0.72689E-01
  rms(prec ) = 0.79884E-01
  weight for this iteration     100.00

 eigenvalues of (default mixing * dielectric matrix)
  average eigenvalue GAMMA=   1.7003
  1.0344  2.3663

 Free energy of the ion-electron system (eV)
  ---------------------------------------------------
  alpha Z        PSCENC =        -0.30602968
  Ewald energy   TEWEN  =     17354.60802345
  -Hartree energ DENC   =    -17640.85182291
  -exchange      EXHF   =         0.00000000
  -V(xc)+E(xc)   XCENC  =      -184.69612578
  PAW double counting   =       248.94642630      -25.28623835
  entropy T*S    EENTRO =        -0.00092122
  eigenvalues    EBANDS =      -152.43059040
  atomic energy  EATOM  =       374.76784764
  Solvation  Ediel_sol  =         0.00000000
  ---------------------------------------------------
  free energy    TOTEN  =       -25.24943096 eV

  energy without entropy =      -25.24850974  energy(sigma->0) =      -25.24897035


--------------------------------------------------------------------------------------------------------




--------------------------------------- Iteration      1(   8)  ---------------------------------------


    POTLOK:  cpu time    0.1044: real time    0.1054
    SETDIJ:  cpu time    0.0998: real time    0.0999
     EDDAV:  cpu time    3.4380: real time    3.4679
       DOS:  cpu time    0.0010: real time    0.0007
    CHARGE:  cpu time    0.2644: real time    0.2661
    MIXING:  cpu time    0.0068: real time    0.0067
    --------------------------------------------
      LOOP:  cpu time    3.9142: real time    3.9467

 eigenvalue-minimisations  :  2030
 total energy-change (2. order) : 0.3591367E-01  (-0.1213000E-01)
 number of electron      21.0000000 magnetization 
 augmentation part       -0.2892180 magnetization 

 Broyden mixing:
  rms(total) = 0.27094E-01    rms(broyden)= 0.27094E-01
  rms(prec ) = 0.33519E-01
  weight for this iteration     100.00

 eigenvalues of (default mixing * dielectric matrix)
  average eigenvalue GAMMA=   1.5673
  2.4314  1.4871  0.7833

 Free energy of the ion-electron system (eV)
  ---------------------------------------------------
  alpha Z        PSCENC =        -0.30602968
  Ewald energy   TEWEN  =     17354.60802345
  -Hartree energ DENC   =    -17643.71845423
  -exchange      EXHF   =         0.00000000
  -V(xc)+E(xc)   XCENC  =      -184.51043106
  PAW double counting   =       248.99250718      -25.34631435
  entropy T*S    EENTRO =        -0.00123586
  eigenvalues    EBANDS =      -149.69943037
  atomic energy  EATOM  =       374.76784764
  Solvation  Ediel_sol  =         0.00000000
  ---------------------------------------------------
  free energy    TOTEN  =       -25.21351729 eV

  energy without entropy =      -25.21228143  energy(sigma->0) =      -25.21289936


--------------------------------------------------------------------------------------------------------




--------------------------------------- Iteration      1(   9)  ---------------------------------------


    POTLOK:  cpu time    0.0819: real time    0.0824
    SETDIJ:  cpu time    0.0970: real time    0.0982
     EDDAV:  cpu time    2.8059: real time    2.8218
       DOS:  cpu time    0.0007: real time    0.0007
    CHARGE:  cpu time    0.2659: real time    0.2663
    MIXING:  cpu time    0.0064: real time    0.0063
    --------------------------------------------
      LOOP:  cpu time    3.2576: real time    3.2758

 eigenvalue-minimisations  :  1965
 total energy-change (2. order) : 0.6788056E-02  (-0.3037832E-02)
 number of electron      21.0000000 magnetization 
 augmentation part       -0.2902349 magnetization 

 Broyden mixing:
  rms(total) = 0.17203E-01    rms(broyden)= 0.17203E-01
  rms(prec ) = 0.23058E-01
  weight for this iteration     100.00

 eigenvalues of (default mixing * dielectric matrix)
  average eigenvalue GAMMA=   1.5261
  2.4389  2.0734  0.8823  0.7098

 Free energy of the ion-electron system (eV)
  ---------------------------------------------------
  alpha Z        PSCENC =        -0.30602968
  Ewald energy   TEWEN  =     17354.60802345
  -Hartree energ DENC   =    -17644.85882631
  -exchange      EXHF   =         0.00000000
  -V(xc)+E(xc)   XCENC  =      -184.46384625
  PAW double counting   =       249.04613773      -25.40617279
  entropy T*S    EENTRO =        -0.00122737
  eigenvalues    EBANDS =      -148.59263566
  atomic energy  EATOM  =       374.76784764
  Solvation  Ediel_sol  =         0.00000000
  ---------------------------------------------------
  free energy    TOTEN  =       -25.20672924 eV

  energy without entropy =      -25.20550187  energy(sigma->0) =      -25.20611555


--------------------------------------------------------------------------------------------------------




--------------------------------------- Iteration      1(  10)  ---------------------------------------


    POTLOK:  cpu time    0.0854: real time    0.0857
    SETDIJ:  cpu time    0.0995: real time    0.0996
     EDDAV:  cpu time    2.8545: real time    2.8705
       DOS:  cpu time    0.0012: real time    0.0015
    CHARGE:  cpu time    0.2631: real time    0.2639
    MIXING:  cpu time    0.0068: real time    0.0068
    --------------------------------------------
      LOOP:  cpu time    3.3105: real time    3.3279

 eigenvalue-minimisations  :  1990
 total energy-change (2. order) : 0.5703708E-02  (-0.8159876E-03)
 number of electron      21.0000000 magnetization 
 augmentation part       -0.2906858 magnetization 

 Broyden mixing:
  rms(total) = 0.10241E-01    rms(broyden)= 0.10241E-01
  rms(prec ) = 0.17111E-01
  weight for this iteration     100.00

 eigenvalues of (default mixing * dielectric matrix)
  average eigenvalue GAMMA=   1.4772
  2.4192  2.4192  1.0483  0.9274  0.5718

 Free energy of the ion-electron system (eV)
  ---------------------------------------------------
  alpha Z        PSCENC =        -0.30602968
  Ewald energy   TEWEN  =     17354.60802345
  -Hartree energ DENC   =    -17646.28100104
  -exchange      EXHF   =         0.00000000
  -V(xc)+E(xc)   XCENC  =      -184.43367597
  PAW double counting   =       249.10884053      -25.47483809
  entropy T*S    EENTRO =        -0.00121103
  eigenvalues    EBANDS =      -147.18898133
  atomic energy  EATOM  =       374.76784764
  Solvation  Ediel_sol  =         0.00000000
  ---------------------------------------------------
  free energy    TOTEN  =       -25.20102553 eV

  energy without entropy =      -25.19981450  energy(sigma->0) =      -25.20042001


--------------------------------------------------------------------------------------------------------




--------------------------------------- Iteration      1(  11)  ---------------------------------------


    POTLOK:  cpu time    0.0856: real time    0.0875
    SETDIJ:  cpu time    0.1015: real time    0.1018
     EDDAV:  cpu time    2.7503: real time    2.7634
       DOS:  cpu time    0.0007: real time    0.0007
    CHARGE:  cpu time    0.2267: real time    0.2286
    MIXING:  cpu time    0.0033: real time    0.0033
    --------------------------------------------
      LOOP:  cpu time    3.1681: real time    3.1852

 eigenvalue-minimisations  :  1880
 total energy-change (2. order) : 0.4978633E-02  (-0.2180856E-03)
 number of electron      21.0000000 magnetization 
 augmentation part       -0.2908259 magnetization 

 Broyden mixing:
  rms(total) = 0.79062E-02    rms(broyden)= 0.79062E-02
  rms(prec ) = 0.13780E-01
  weight for this iteration     100.00

 eigenvalues of (default mixing * dielectric matrix)
  average eigenvalue GAMMA=   1.5800
  2.8273  2.8273  1.4130  1.0986  0.7421  0.5716

 Free energy of the ion-electron system (eV)
  ---------------------------------------------------
  alpha Z        PSCENC =        -0.30602968
  Ewald energy   TEWEN  =     17354.60802345
  -Hartree energ DENC   =    -17647.83523228
  -exchange      EXHF   =         0.00000000
  -V(xc)+E(xc)   XCENC  =      -184.41594867
  PAW double counting   =       249.13234090      -25.50133098
  entropy T*S    EENTRO =        -0.00128627
  eigenvalues    EBANDS =      -145.64443101
  atomic energy  EATOM  =       374.76784764
  Solvation  Ediel_sol  =         0.00000000
  ---------------------------------------------------
  free energy    TOTEN  =       -25.19604690 eV

  energy without entropy =      -25.19476063  energy(sigma->0) =      -25.19540376


--------------------------------------------------------------------------------------------------------




--------------------------------------- Iteration      1(  12)  ---------------------------------------


    POTLOK:  cpu time    0.0700: real time    0.0707
    SETDIJ:  cpu time    0.0838: real time    0.0856
     EDDAV:  cpu time    2.1009: real time    2.1247
       DOS:  cpu time    0.0007: real time    0.0007
    CHARGE:  cpu time    0.2423: real time    0.2438
    MIXING:  cpu time    0.0072: real time    0.0072
    --------------------------------------------
      LOOP:  cpu time    2.5049: real time    2.5327

 eigenvalue-minimisations  :  1660
 total energy-change (2. order) : 0.7798571E-02  (-0.5224130E-03)
 number of electron      21.0000000 magnetization 
 augmentation part       -0.2905979 magnetization 

 Broyden mixing:
  rms(total) = 0.56192E-02    rms(broyden)= 0.56192E-02
  rms(prec ) = 0.10088E-01
  weight for this iteration     100.00

 eigenvalues of (default mixing * dielectric matrix)
  average eigenvalue GAMMA=   1.7362
  3.9336  2.6603  1.6067  1.6067  0.9901  0.7872  0.5691

 Free energy of the ion-electron system (eV)
  ---------------------------------------------------
  alpha Z        PSCENC =        -0.30602968
  Ewald energy   TEWEN  =     17354.60802345
  -Hartree energ DENC   =    -17651.05328392
  -exchange      EXHF   =         0.00000000
  -V(xc)+E(xc)   XCENC  =      -184.39319561
  PAW double counting   =       249.11270543      -25.48259261
  entropy T*S    EENTRO =        -0.00141032
  eigenvalues    EBANDS =      -142.44031270
  atomic energy  EATOM  =       374.76784764
  Solvation  Ediel_sol  =         0.00000000
  ---------------------------------------------------
  free energy    TOTEN  =       -25.18824832 eV

  energy without entropy =      -25.18683800  energy(sigma->0) =      -25.18754316


--------------------------------------------------------------------------------------------------------




--------------------------------------- Iteration      1(  13)  ---------------------------------------


    POTLOK:  cpu time    0.0838: real time    0.0840
    SETDIJ:  cpu time    0.0964: real time    0.0969
     EDDAV:  cpu time    2.7036: real time    2.7166
       DOS:  cpu time    0.0008: real time    0.0008
    CHARGE:  cpu time    0.2586: real time    0.2598
    MIXING:  cpu time    0.0046: real time    0.0046
    --------------------------------------------
      LOOP:  cpu time    3.1477: real time    3.1626

 eigenvalue-minimisations  :  1865
 total energy-change (2. order) : 0.3847250E-02  (-0.1871836E-03)
 number of electron      21.0000000 magnetization 
 augmentation part       -0.2904912 magnetization 

 Broyden mixing:
  rms(total) = 0.45117E-02    rms(broyden)= 0.45117E-02
  rms(prec ) = 0.81864E-02
  weight for this iteration     100.00

 eigenvalues of (default mixing * dielectric matrix)
  average eigenvalue GAMMA=   1.9872
  5.9214  2.7803  2.2806  1.2799  1.2799  1.0150  0.7704  0.5703

 Free energy of the ion-electron system (eV)
  ---------------------------------------------------
  alpha Z        PSCENC =        -0.30602968
  Ewald energy   TEWEN  =     17354.60802345
  -Hartree energ DENC   =    -17653.44470163
  -exchange      EXHF   =         0.00000000
  -V(xc)+E(xc)   XCENC  =      -184.37979074
  PAW double counting   =       249.06826823      -25.43576801
  entropy T*S    EENTRO =        -0.00148704
  eigenvalues    EBANDS =      -140.06076329
  atomic energy  EATOM  =       374.76784764
  Solvation  Ediel_sol  =         0.00000000
  ---------------------------------------------------
  free energy    TOTEN  =       -25.18440107 eV

  energy without entropy =      -25.18291403  energy(sigma->0) =      -25.18365755


--------------------------------------------------------------------------------------------------------




--------------------------------------- Iteration      1(  14)  ---------------------------------------


    POTLOK:  cpu time    0.0811: real time    0.0823
    SETDIJ:  cpu time    0.0964: real time    0.0971
     EDDAV:  cpu time    2.4101: real time    2.4402
       DOS:  cpu time    0.0008: real time    0.0008
    CHARGE:  cpu time    0.2582: real time    0.2590
    MIXING:  cpu time    0.0053: real time    0.0053
    --------------------------------------------
      LOOP:  cpu time    2.8517: real time    2.8845

 eigenvalue-minimisations  :  1585
 total energy-change (2. order) : 0.3943331E-02  (-0.1889906E-03)
 number of electron      21.0000000 magnetization 
 augmentation part       -0.2903840 magnetization 

 Broyden mixing:
  rms(total) = 0.36029E-02    rms(broyden)= 0.36029E-02
  rms(prec ) = 0.66371E-02
  weight for this iteration     100.00

 eigenvalues of (default mixing * dielectric matrix)
  average eigenvalue GAMMA=   2.2389
  7.6589  3.3939  2.4893  1.8600  1.3179  1.0430  1.0430  0.5702  0.7735

 Free energy of the ion-electron system (eV)
  ---------------------------------------------------
  alpha Z        PSCENC =        -0.30602968
  Ewald energy   TEWEN  =     17354.60802345
  -Hartree energ DENC   =    -17656.05583544
  -exchange      EXHF   =         0.00000000
  -V(xc)+E(xc)   XCENC  =      -184.37153811
  PAW double counting   =       249.01133591      -25.37505069
  entropy T*S    EENTRO =        -0.00155645
  eigenvalues    EBANDS =      -137.45765438
  atomic energy  EATOM  =       374.76784764
  Solvation  Ediel_sol  =         0.00000000
  ---------------------------------------------------
  free energy    TOTEN  =       -25.18045774 eV

  energy without entropy =      -25.17890129  energy(sigma->0) =      -25.17967952


--------------------------------------------------------------------------------------------------------




--------------------------------------- Iteration      1(  15)  ---------------------------------------


    POTLOK:  cpu time    0.0841: real time    0.0843
    SETDIJ:  cpu time    0.1004: real time    0.1005
     EDDAV:  cpu time    2.6555: real time    2.8476
       DOS:  cpu time    0.0008: real time    0.0011
    CHARGE:  cpu time    0.2824: real time    0.2909
    MIXING:  cpu time    0.0058: real time    0.0058
    --------------------------------------------
      LOOP:  cpu time    3.1289: real time    3.3302

 eigenvalue-minimisations  :  1875
 total energy-change (2. order) : 0.2957263E-02  (-0.8602941E-04)
 number of electron      21.0000000 magnetization 
 augmentation part       -0.2903256 magnetization 

 Broyden mixing:
  rms(total) = 0.30194E-02    rms(broyden)= 0.30194E-02
  rms(prec ) = 0.53827E-02
  weight for this iteration     100.00

 eigenvalues of (default mixing * dielectric matrix)
  average eigenvalue GAMMA=   2.4513
  7.8973  5.5813  2.5965  2.3292  1.4043  1.4043  0.5703  0.9805  0.9805  0.7694

 Free energy of the ion-electron system (eV)
  ---------------------------------------------------
  alpha Z        PSCENC =        -0.30602968
  Ewald energy   TEWEN  =     17354.60802345
  -Hartree energ DENC   =    -17658.78593824
  -exchange      EXHF   =         0.00000000
  -V(xc)+E(xc)   XCENC  =      -184.36259634
  PAW double counting   =       248.99626397      -25.35873867
  entropy T*S    EENTRO =        -0.00161340
  eigenvalues    EBANDS =      -134.73471920
  atomic energy  EATOM  =       374.76784764
  Solvation  Ediel_sol  =         0.00000000
  ---------------------------------------------------
  free energy    TOTEN  =       -25.17750048 eV

  energy without entropy =      -25.17588708  energy(sigma->0) =      -25.17669378


--------------------------------------------------------------------------------------------------------




--------------------------------------- Iteration      1(  16)  ---------------------------------------


    POTLOK:  cpu time    0.0858: real time    0.0861
    SETDIJ:  cpu time    0.1003: real time    0.1004
     EDDAV:  cpu time    2.5338: real time    2.5399
       DOS:  cpu time    0.0008: real time    0.0008
    CHARGE:  cpu time    0.2552: real time    0.2556
    MIXING:  cpu time    0.0056: real time    0.0056
    --------------------------------------------
      LOOP:  cpu time    2.9824: real time    2.9885

 eigenvalue-minimisations  :  1615
 total energy-change (2. order) :-0.2325723E-03  (-0.1105160E-03)
 number of electron      21.0000000 magnetization 
 augmentation part       -0.2903550 magnetization 

 Broyden mixing:
  rms(total) = 0.24808E-02    rms(broyden)= 0.24808E-02
  rms(prec ) = 0.47795E-02
  weight for this iteration     100.00

 eigenvalues of (default mixing * dielectric matrix)
  average eigenvalue GAMMA=   2.6097
 10.4143  5.8844  2.6641  2.4782  1.4929  1.4929  0.5703  0.7712  0.9915  0.9736
  0.9736

 Free energy of the ion-electron system (eV)
  ---------------------------------------------------
  alpha Z        PSCENC =        -0.30602968
  Ewald energy   TEWEN  =     17354.60802345
  -Hartree energ DENC   =    -17660.96104045
  -exchange      EXHF   =         0.00000000
  -V(xc)+E(xc)   XCENC  =      -184.36084592
  PAW double counting   =       249.03029671      -25.39460953
  entropy T*S    EENTRO =        -0.00158761
  eigenvalues    EBANDS =      -132.55978766
  atomic energy  EATOM  =       374.76784764
  Solvation  Ediel_sol  =         0.00000000
  ---------------------------------------------------
  free energy    TOTEN  =       -25.17773305 eV

  energy without entropy =      -25.17614544  energy(sigma->0) =      -25.17693925


--------------------------------------------------------------------------------------------------------




--------------------------------------- Iteration      1(  17)  ---------------------------------------


    POTLOK:  cpu time    0.0838: real time    0.0990
    SETDIJ:  cpu time    0.0964: real time    0.1035
     EDDAV:  cpu time    2.5131: real time    2.7133
       DOS:  cpu time    0.0009: real time    0.0013
    CHARGE:  cpu time    0.2975: real time    0.2978
    MIXING:  cpu time    0.0105: real time    0.0105
    --------------------------------------------
      LOOP:  cpu time    3.0012: real time    3.2253

 eigenvalue-minimisations  :  1670
 total energy-change (2. order) : 0.6744788E-03  (-0.5389251E-04)
 number of electron      21.0000000 magnetization 
 augmentation part       -0.2903082 magnetization 

 Broyden mixing:
  rms(total) = 0.20002E-02    rms(broyden)= 0.20002E-02
  rms(prec ) = 0.37762E-02
  weight for this iteration     100.00

 eigenvalues of (default mixing * dielectric matrix)
  average eigenvalue GAMMA=   2.7732
 12.7656  5.8994  2.7550  2.7550  1.7418  1.7418  0.5703  0.7691  1.1629  1.1629
  0.9770  0.9770

 Free energy of the ion-electron system (eV)
  ---------------------------------------------------
  alpha Z        PSCENC =        -0.30602968
  Ewald energy   TEWEN  =     17354.60802345
  -Hartree energ DENC   =    -17662.89633319
  -exchange      EXHF   =         0.00000000
  -V(xc)+E(xc)   XCENC  =      -184.35713327
  PAW double counting   =       249.03297456      -25.39795946
  entropy T*S    EENTRO =        -0.00164654
  eigenvalues    EBANDS =      -130.62680209
  atomic energy  EATOM  =       374.76784764
  Solvation  Ediel_sol  =         0.00000000
  ---------------------------------------------------
  free energy    TOTEN  =       -25.17705857 eV

  energy without entropy =      -25.17541203  energy(sigma->0) =      -25.17623530


--------------------------------------------------------------------------------------------------------




--------------------------------------- Iteration      1(  18)  ---------------------------------------


    POTLOK:  cpu time    0.0921: real time    0.1043
    SETDIJ:  cpu time    0.0965: real time    0.1011
     EDDAV:  cpu time    2.9052: real time    2.9858
       DOS:  cpu time    0.0008: real time    0.0008
    CHARGE:  cpu time    0.2699: real time    0.2703
    MIXING:  cpu time    0.0074: real time    0.0074
    --------------------------------------------
      LOOP:  cpu time    3.3719: real time    3.4697

 eigenvalue-minimisations  :  1765
 total energy-change (2. order) : 0.4083949E-03  (-0.2411096E-04)
 number of electron      21.0000000 magnetization 
 augmentation part       -0.2902654 magnetization 

 Broyden mixing:
  rms(total) = 0.16449E-02    rms(broyden)= 0.16449E-02
  rms(prec ) = 0.30956E-02
  weight for this iteration     100.00

 eigenvalues of (default mixing * dielectric matrix)
  average eigenvalue GAMMA=   3.0072
 14.9013  7.1462  3.3576  2.6979  2.3661  1.8101  0.5703  1.2571  1.2571  0.7695
  0.9869  0.9869  0.9860

 Free energy of the ion-electron system (eV)
  ---------------------------------------------------
  alpha Z        PSCENC =        -0.30602968
  Ewald energy   TEWEN  =     17354.60802345
  -Hartree energ DENC   =    -17664.95624016
  -exchange      EXHF   =         0.00000000
  -V(xc)+E(xc)   XCENC  =      -184.35529684
  PAW double counting   =       249.01498794      -25.37925941
  entropy T*S    EENTRO =        -0.00167560
  eigenvalues    EBANDS =      -128.56900752
  atomic energy  EATOM  =       374.76784764
  Solvation  Ediel_sol  =         0.00000000
  ---------------------------------------------------
  free energy    TOTEN  =       -25.17665018 eV

  energy without entropy =      -25.17497458  energy(sigma->0) =      -25.17581238


--------------------------------------------------------------------------------------------------------




--------------------------------------- Iteration      1(  19)  ---------------------------------------


    POTLOK:  cpu time    0.0862: real time    0.0864
    SETDIJ:  cpu time    0.0831: real time    0.1118
     EDDAV:  cpu time    2.5841: real time    2.5949
       DOS:  cpu time    0.0008: real time    0.0008
    CHARGE:  cpu time    0.2663: real time    0.2671
    MIXING:  cpu time    0.0071: real time    0.0071
    --------------------------------------------
      LOOP:  cpu time    3.0276: real time    3.0680

 eigenvalue-minimisations  :  1680
 total energy-change (2. order) : 0.2045568E-03  (-0.1848299E-04)
 number of electron      21.0000000 magnetization 
 augmentation part       -0.2902688 magnetization 

 Broyden mixing:
  rms(total) = 0.14071E-02    rms(broyden)= 0.14071E-02
  rms(prec ) = 0.26629E-02
  weight for this iteration     100.00

 eigenvalues of (default mixing * dielectric matrix)
  average eigenvalue GAMMA=   3.2650
 17.4021  8.3408  3.9823  3.0982  2.5715  2.0624  1.6557  0.5703  1.2422  0.7692
  1.1201  0.9959  0.9959  0.9038

 Free energy of the ion-electron system (eV)
  ---------------------------------------------------
  alpha Z        PSCENC =        -0.30602968
  Ewald energy   TEWEN  =     17354.60802345
  -Hartree energ DENC   =    -17666.44148621
  -exchange      EXHF   =         0.00000000
  -V(xc)+E(xc)   XCENC  =      -184.35540287
  PAW double counting   =       248.99647698      -25.35953033
  entropy T*S    EENTRO =        -0.00167335
  eigenvalues    EBANDS =      -127.08467126
  atomic energy  EATOM  =       374.76784764
  Solvation  Ediel_sol  =         0.00000000
  ---------------------------------------------------
  free energy    TOTEN  =       -25.17644562 eV

  energy without entropy =      -25.17477227  energy(sigma->0) =      -25.17560895


--------------------------------------------------------------------------------------------------------




--------------------------------------- Iteration      1(  20)  ---------------------------------------


    POTLOK:  cpu time    0.0826: real time    0.0831
    SETDIJ:  cpu time    0.0988: real time    0.0991
     EDDAV:  cpu time    2.6389: real time    2.7460
       DOS:  cpu time    0.0008: real time    0.0008
    CHARGE:  cpu time    0.2662: real time    0.2666
    MIXING:  cpu time    0.0047: real time    0.0047
    --------------------------------------------
      LOOP:  cpu time    3.0920: real time    3.2004

 eigenvalue-minimisations  :  1855
 total energy-change (2. order) : 0.2988713E-03  (-0.6821324E-05)
 number of electron      21.0000000 magnetization 
 augmentation part       -0.2902497 magnetization 

 Broyden mixing:
  rms(total) = 0.11581E-02    rms(broyden)= 0.11581E-02
  rms(prec ) = 0.21529E-02
  weight for this iteration     100.00

 eigenvalues of (default mixing * dielectric matrix)
  average eigenvalue GAMMA=   3.4334
 19.8284  9.2208  4.6032  3.5567  2.5885  2.2860  1.5358  0.5703  1.4197  0.7694
  1.1124  1.1124  0.9919  0.9919  0.9130

 Free energy of the ion-electron system (eV)
  ---------------------------------------------------
  alpha Z        PSCENC =        -0.30602968
  Ewald energy   TEWEN  =     17354.60802345
  -Hartree energ DENC   =    -17668.08096512
  -exchange      EXHF   =         0.00000000
  -V(xc)+E(xc)   XCENC  =      -184.35444768
  PAW double counting   =       248.99554573      -25.35827394
  entropy T*S    EENTRO =        -0.00169100
  eigenvalues    EBANDS =      -125.44615615
  atomic energy  EATOM  =       374.76784764
  Solvation  Ediel_sol  =         0.00000000
  ---------------------------------------------------
  free energy    TOTEN  =       -25.17614675 eV

  energy without entropy =      -25.17445575  energy(sigma->0) =      -25.17530125


--------------------------------------------------------------------------------------------------------




--------------------------------------- Iteration      1(  21)  ---------------------------------------


    POTLOK:  cpu time    0.0804: real time    0.0806
    SETDIJ:  cpu time    0.1011: real time    0.1013
     EDDAV:  cpu time    2.6241: real time    2.6558
       DOS:  cpu time    0.0008: real time    0.0008
    CHARGE:  cpu time    0.2653: real time    0.2656
    MIXING:  cpu time    0.0088: real time    0.0089
    --------------------------------------------
      LOOP:  cpu time    3.0805: real time    3.1131

 eigenvalue-minimisations  :  1790
 total energy-change (2. order) : 0.1670338E-03  (-0.1887349E-05)
 number of electron      21.0000000 magnetization 
 augmentation part       -0.2902448 magnetization 

 Broyden mixing:
  rms(total) = 0.10106E-02    rms(broyden)= 0.10106E-02
  rms(prec ) = 0.18407E-02
  weight for this iteration     100.00

 eigenvalues of (default mixing * dielectric matrix)
  average eigenvalue GAMMA=   3.7845
 22.1060 11.9942  5.1170  4.7447  2.6897  2.4870  2.0067  1.7392  0.5703  1.2156
  1.2156  0.7693  0.9967  0.9967  1.0094  0.8938

 Free energy of the ion-electron system (eV)
  ---------------------------------------------------
  alpha Z        PSCENC =        -0.30602968
  Ewald energy   TEWEN  =     17354.60802345
  -Hartree energ DENC   =    -17669.30383774
  -exchange      EXHF   =         0.00000000
  -V(xc)+E(xc)   XCENC  =      -184.35367477
  PAW double counting   =       249.00496509      -25.36810010
  entropy T*S    EENTRO =        -0.00169014
  eigenvalues    EBANDS =      -124.22348346
  atomic energy  EATOM  =       374.76784764
  Solvation  Ediel_sol  =         0.00000000
  ---------------------------------------------------
  free energy    TOTEN  =       -25.17597972 eV

  energy without entropy =      -25.17428958  energy(sigma->0) =      -25.17513465


--------------------------------------------------------------------------------------------------------




--------------------------------------- Iteration      1(  22)  ---------------------------------------


    POTLOK:  cpu time    0.0884: real time    0.0886
    SETDIJ:  cpu time    0.0983: real time    0.0985
     EDDAV:  cpu time    2.4053: real time    2.4110
       DOS:  cpu time    0.0008: real time    0.0008
    CHARGE:  cpu time    0.2599: real time    0.2610
    MIXING:  cpu time    0.0109: real time    0.0112
    --------------------------------------------
      LOOP:  cpu time    2.8636: real time    2.8711

 eigenvalue-minimisations  :  1560
 total energy-change (2. order) : 0.2392731E-03  (-0.8799017E-05)
 number of electron      21.0000000 magnetization 
 augmentation part       -0.2902437 magnetization 

 Broyden mixing:
  rms(total) = 0.79892E-03    rms(broyden)= 0.79892E-03
  rms(prec ) = 0.14291E-02
  weight for this iteration     100.00

 eigenvalues of (default mixing * dielectric matrix)
  average eigenvalue GAMMA=   3.8609
 25.1961 12.0306  6.0702  4.4753  2.7379  2.5507  1.9249  1.8303  0.5703  1.2905
  1.2905  0.7694  1.0004  1.0004  0.9041  0.9967  0.9967

 Free energy of the ion-electron system (eV)
  ---------------------------------------------------
  alpha Z        PSCENC =        -0.30602968
  Ewald energy   TEWEN  =     17354.60802345
  -Hartree energ DENC   =    -17670.73494556
  -exchange      EXHF   =         0.00000000
  -V(xc)+E(xc)   XCENC  =      -184.35230123
  PAW double counting   =       249.00944975      -25.37316517
  entropy T*S    EENTRO =        -0.00169888
  eigenvalues    EBANDS =      -122.79292078
  atomic energy  EATOM  =       374.76784764
  Solvation  Ediel_sol  =         0.00000000
  ---------------------------------------------------
  free energy    TOTEN  =       -25.17574044 eV

  energy without entropy =      -25.17404157  energy(sigma->0) =      -25.17489101


--------------------------------------------------------------------------------------------------------




--------------------------------------- Iteration      1(  23)  ---------------------------------------


    POTLOK:  cpu time    0.1024: real time    0.1026
    SETDIJ:  cpu time    0.1016: real time    0.1017
     EDDAV:  cpu time    2.6224: real time    2.6295
       DOS:  cpu time    0.0007: real time    0.0007
    CHARGE:  cpu time    0.2640: real time    0.2644
    MIXING:  cpu time    0.0052: real time    0.0052
    --------------------------------------------
      LOOP:  cpu time    3.0963: real time    3.1043

 eigenvalue-minimisations  :  1780
 total energy-change (2. order) : 0.1610961E-04  (-0.6576507E-06)
 number of electron      21.0000000 magnetization 
 augmentation part       -0.2902414 magnetization 

 Broyden mixing:
  rms(total) = 0.68489E-03    rms(broyden)= 0.68489E-03
  rms(prec ) = 0.12209E-02
  weight for this iteration     100.00

 eigenvalues of (default mixing * dielectric matrix)
  average eigenvalue GAMMA=   4.2274
 29.6447 13.3651  7.2278  4.9039  3.2647  2.7661  2.3748  2.1143  1.5995  0.5703
  1.3157  0.7694  1.1438  1.1438  0.9957  0.9957  1.0022  0.8957

 Free energy of the ion-electron system (eV)
  ---------------------------------------------------
  alpha Z        PSCENC =        -0.30602968
  Ewald energy   TEWEN  =     17354.60802345
  -Hartree energ DENC   =    -17671.39294224
  -exchange      EXHF   =         0.00000000
  -V(xc)+E(xc)   XCENC  =      -184.35240429
  PAW double counting   =       249.00831267      -25.37197878
  entropy T*S    EENTRO =        -0.00169954
  eigenvalues    EBANDS =      -122.13485355
  atomic energy  EATOM  =       374.76784764
  Solvation  Ediel_sol  =         0.00000000
  ---------------------------------------------------
  free energy    TOTEN  =       -25.17572433 eV

  energy without entropy =      -25.17402479  energy(sigma->0) =      -25.17487456


--------------------------------------------------------------------------------------------------------




--------------------------------------- Iteration      1(  24)  ---------------------------------------


    POTLOK:  cpu time    0.0849: real time    0.0851
    SETDIJ:  cpu time    0.1001: real time    0.1012
     EDDAV:  cpu time    2.4107: real time    2.4183
       DOS:  cpu time    0.0008: real time    0.0008
    CHARGE:  cpu time    0.2518: real time    0.2523
    MIXING:  cpu time    0.0069: real time    0.0069
    --------------------------------------------
      LOOP:  cpu time    2.8552: real time    2.8648

 eigenvalue-minimisations  :  1600
 total energy-change (2. order) :-0.1587268E-03  (-0.4100540E-05)
 number of electron      21.0000000 magnetization 
 augmentation part       -0.2902267 magnetization 

 Broyden mixing:
  rms(total) = 0.54889E-03    rms(broyden)= 0.54889E-03
  rms(prec ) = 0.91829E-03
  weight for this iteration     100.00

 eigenvalues of (default mixing * dielectric matrix)
  average eigenvalue GAMMA=   4.3781
 31.9069 15.0648  7.5721  5.7192  3.2936  2.9235  2.6468  1.9107  1.9107  1.5900
  0.5703  1.1994  1.1994  0.7694  1.0768  0.9949  0.9949  0.9089  0.9310

 Free energy of the ion-electron system (eV)
  ---------------------------------------------------
  alpha Z        PSCENC =        -0.30602968
  Ewald energy   TEWEN  =     17354.60802345
  -Hartree energ DENC   =    -17672.44764229
  -exchange      EXHF   =         0.00000000
  -V(xc)+E(xc)   XCENC  =      -184.35230029
  PAW double counting   =       248.99436932      -25.35720587
  entropy T*S    EENTRO =        -0.00171011
  eigenvalues    EBANDS =      -121.08123523
  atomic energy  EATOM  =       374.76784764
  Solvation  Ediel_sol  =         0.00000000
  ---------------------------------------------------
  free energy    TOTEN  =       -25.17588306 eV

  energy without entropy =      -25.17417295  energy(sigma->0) =      -25.17502801


--------------------------------------------------------------------------------------------------------




--------------------------------------- Iteration      1(  25)  ---------------------------------------


    POTLOK:  cpu time    0.0824: real time    0.0826
    SETDIJ:  cpu time    0.0860: real time    0.0862
     EDDAV:  cpu time    2.7437: real time    2.7520
       DOS:  cpu time    0.0008: real time    0.0008
    CHARGE:  cpu time    0.2806: real time    0.2809
    MIXING:  cpu time    0.0081: real time    0.0081
    --------------------------------------------
      LOOP:  cpu time    3.2015: real time    3.2105

 eigenvalue-minimisations  :  1620
 total energy-change (2. order) :-0.1071475E-03  (-0.1391661E-05)
 number of electron      21.0000000 magnetization 
 augmentation part       -0.2902364 magnetization 

 Broyden mixing:
  rms(total) = 0.48318E-03    rms(broyden)= 0.48318E-03
  rms(prec ) = 0.77405E-03
  weight for this iteration     100.00

 eigenvalues of (default mixing * dielectric matrix)
  average eigenvalue GAMMA=   4.6160
 36.0149 16.1445  8.5383  6.1377  3.5314  3.5314  2.6321  2.4289  1.9654  1.6855
  0.5703  1.2325  1.2325  0.7694  0.9982  0.9982  1.0301  1.0301  0.8987  0.9494

 Free energy of the ion-electron system (eV)
  ---------------------------------------------------
  alpha Z        PSCENC =        -0.30602968
  Ewald energy   TEWEN  =     17354.60802345
  -Hartree energ DENC   =    -17672.78326690
  -exchange      EXHF   =         0.00000000
  -V(xc)+E(xc)   XCENC  =      -184.35275264
  PAW double counting   =       248.99666406      -25.35951403
  entropy T*S    EENTRO =        -0.00170803
  eigenvalues    EBANDS =      -120.74525408
  atomic energy  EATOM  =       374.76784764
  Solvation  Ediel_sol  =         0.00000000
  ---------------------------------------------------
  free energy    TOTEN  =       -25.17599021 eV

  energy without entropy =      -25.17428218  energy(sigma->0) =      -25.17513619


--------------------------------------------------------------------------------------------------------




--------------------------------------- Iteration      1(  26)  ---------------------------------------


    POTLOK:  cpu time    0.0911: real time    0.0914
    SETDIJ:  cpu time    0.0964: real time    0.0965
     EDDAV:  cpu time    2.6534: real time    2.6587
       DOS:  cpu time    0.0008: real time    0.0008
    CHARGE:  cpu time    0.2336: real time    0.2341
    MIXING:  cpu time    0.0104: real time    0.0104
    --------------------------------------------
      LOOP:  cpu time    3.0858: real time    3.0920

 eigenvalue-minimisations  :  1670
 total energy-change (2. order) :-0.1125084E-03  (-0.1118195E-05)
 number of electron      21.0000000 magnetization 
 augmentation part       -0.2902326 magnetization 

 Broyden mixing:
  rms(total) = 0.36397E-03    rms(broyden)= 0.36397E-03
  rms(prec ) = 0.60871E-03
  weight for this iteration     100.00

 eigenvalues of (default mixing * dielectric matrix)
  average eigenvalue GAMMA=   4.8246
 38.0572 18.8999  8.9445  7.2134  3.9580  3.9580  2.6835  2.4596  2.0602  1.7949
  1.5334  0.5703  1.2929  0.7694  1.1406  1.1406  0.9936  0.9936  0.8987  1.0045
  0.9488

 Free energy of the ion-electron system (eV)
  ---------------------------------------------------
  alpha Z        PSCENC =        -0.30602968
  Ewald energy   TEWEN  =     17354.60802345
  -Hartree energ DENC   =    -17673.21959482
  -exchange      EXHF   =         0.00000000
  -V(xc)+E(xc)   XCENC  =      -184.35259273
  PAW double counting   =       249.00557503      -25.36893200
  entropy T*S    EENTRO =        -0.00170353
  eigenvalues    EBANDS =      -120.30869608
  atomic energy  EATOM  =       374.76784764
  Solvation  Ediel_sol  =         0.00000000
  ---------------------------------------------------
  free energy    TOTEN  =       -25.17610272 eV

  energy without entropy =      -25.17439918  energy(sigma->0) =      -25.17525095


--------------------------------------------------------------------------------------------------------




--------------------------------------- Iteration      1(  27)  ---------------------------------------


    POTLOK:  cpu time    0.0754: real time    0.0756
    SETDIJ:  cpu time    0.0981: real time    0.0982
     EDDAV:  cpu time    2.6191: real time    2.6247
       DOS:  cpu time    0.0009: real time    0.0016
    CHARGE:  cpu time    0.2702: real time    0.2706
    MIXING:  cpu time    0.0100: real time    0.0100
    --------------------------------------------
      LOOP:  cpu time    3.0738: real time    3.0807

 eigenvalue-minimisations  :  1735
 total energy-change (2. order) :-0.7110032E-04  (-0.6204962E-06)
 number of electron      21.0000000 magnetization 
 augmentation part       -0.2902296 magnetization 

 Broyden mixing:
  rms(total) = 0.27838E-03    rms(broyden)= 0.27838E-03
  rms(prec ) = 0.46511E-03
  weight for this iteration     100.00

 eigenvalues of (default mixing * dielectric matrix)
  average eigenvalue GAMMA=   4.9996
 42.3266 19.8109  9.9753  7.4880  4.5023  3.9186  2.6705  2.5569  2.0428  2.0428
  0.5703  1.5265  1.5265  0.7694  1.1964  1.1964  0.8966  0.9950  0.9950  0.9994
  0.9919  0.9919

 Free energy of the ion-electron system (eV)
  ---------------------------------------------------
  alpha Z        PSCENC =        -0.30602968
  Ewald energy   TEWEN  =     17354.60802345
  -Hartree energ DENC   =    -17673.61536716
  -exchange      EXHF   =         0.00000000
  -V(xc)+E(xc)   XCENC  =      -184.35219438
  PAW double counting   =       249.00418325      -25.36753404
  entropy T*S    EENTRO =        -0.00170965
  eigenvalues    EBANDS =      -119.91339326
  atomic energy  EATOM  =       374.76784764
  Solvation  Ediel_sol  =         0.00000000
[...]
      7      -2.6617      2.00000
      8      -2.3332      2.00000
      9      -2.3046      2.00000
     10      -2.0352      2.00000
     11      -1.8569      2.00000
     12      -1.3991      0.00010
     13      -1.1956      0.00000
     14      -0.8604      0.00000
     15      -0.4085      0.00000

 k-point    31 :       0.3077    0.2308   -0.0000
  band No.  band energies     occupation 
      1      -7.3961      2.00000
      2      -7.0122      2.00000
      3      -6.3574      2.00000
      4      -5.4579      2.00000
      5      -4.3464      2.00000
      6      -4.2530      2.00000
      7      -3.8844      2.00000
      8      -3.3620      2.00000
      9      -2.9446      2.00000
     10      -2.6901      2.00000
     11      -2.3899      2.00000
     12      -2.1967      2.00000
     13      -1.7400      2.00000
     14      -1.3343      0.00000
     15      -0.9393      0.00000

 k-point    32 :       0.3846    0.2308   -0.0000
  band No.  band energies     occupation 
      1      -5.9911      2.00000
      2      -5.8756      2.00000
      3      -5.6158      2.00000
      4      -5.4965      2.00000
      5      -4.9758      2.00000
      6      -4.8500      2.00000
      7      -4.1259      2.00000
      8      -3.9753      2.00000
      9      -3.0958      2.00000
     10      -2.8435      2.00000
     11      -2.5936      2.00000
     12      -2.4802      2.00000
     13      -1.9620      2.00000
     14      -1.6457      1.99797
     15      -1.1679      0.00000

 k-point    33 :       0.4615    0.2308   -0.0000
  band No.  band energies     occupation 
      1      -7.4946      2.00000
      2      -7.1098      2.00000
      3      -6.4539      2.00000
      4      -5.5531      2.00000
      5      -4.4358      2.00000
      6      -4.1238      2.00000
      7      -3.7600      2.00000
      8      -3.3179      2.00000
      9      -2.9388      2.00000
     10      -2.7463      2.00000
     11      -2.4129      2.00000
     12      -2.1269      2.00000
     13      -1.7900      2.00000
     14      -1.3250      0.00000
     15      -0.9574      0.00000

 k-point    34 :      -0.4615    0.2308    0.0000
  band No.  band energies     occupation 
      1      -8.7593      2.00000
      2      -8.3700      2.00000
      3      -7.7068      2.00000
      4      -6.7930      2.00000
      5      -5.6441      2.00000
      6      -4.2812      2.00000
      7      -2.7047      2.00000
      8      -2.4322      2.00000
      9      -2.2028      2.00000
     10      -2.0805      2.00000
     11      -1.7909      2.00000
     12      -1.4498      0.01411
     13      -1.1907      0.00000
     14      -0.8717      0.00000
     15      -0.4681      0.00000

 k-point    35 :      -0.3846    0.2308    0.0000
  band No.  band energies     occupation 
      1      -9.7769      2.00000
      2      -9.3846      2.00000
      3      -8.7166      2.00000
      4      -7.7956      2.00000
      5      -6.6353      2.00000
      6      -5.2494      2.00000
      7      -3.5824      2.00000
      8      -2.4371      2.00000
      9      -1.8305      2.00000
     10      -1.4020      0.00014
     11      -0.7785      0.00000
     12      -0.3026      0.00000
     13       0.1244      0.00000
     14       0.1513      0.00000
     15       0.6120      0.00000

 k-point    36 :      -0.3077    0.2308   -0.0000
  band No.  band energies     occupation 
      1     -10.5423      2.00000
      2     -10.1479      2.00000
      3      -9.4766      2.00000
      4      -8.5508      2.00000
      5      -7.3838      2.00000
      6      -5.9881      2.00000
      7      -4.3073      2.00000
      8      -3.0777      2.00000
      9      -1.2463      0.00000
     10      -0.8719      0.00000
     11      -0.4435      0.00000
     12       0.1394      0.00000
     13       0.8611      0.00000
     14       1.1545      0.00000
     15       2.0395      0.00000

 k-point    37 :      -0.2308    0.2308   -0.0000
  band No.  band energies     occupation 
      1     -11.0516      2.00000
      2     -10.6558      2.00000
      3      -9.9824      2.00000
      4      -9.0536      2.00000
      5      -7.8828      2.00000
      6      -6.4818      2.00000
      7      -4.7977      2.00000
      8      -3.5380      2.00000
      9      -1.4700      0.05952
     10      -0.0820      0.00000
     11       0.3868      0.00000
     12       0.8454      0.00000
     13       1.1559      0.00000
     14       2.0387      0.00000
     15       2.2834      0.00000

 k-point    38 :       0.3077    0.3077   -0.0000
  band No.  band energies     occupation 
      1      -5.9973      2.00000
      2      -5.6204      2.00000
      3      -4.9797      2.00000
      4      -4.5373      2.00000
      5      -4.5188      2.00000
      6      -4.1805      2.00000
      7      -4.1475      2.00000
      8      -4.1034      2.00000
      9      -3.5650      2.00000
     10      -3.4997      2.00000
     11      -3.1597      2.00000
     12      -2.7486      2.00000
     13      -2.3726      2.00000
     14      -1.7925      2.00000
     15      -1.1581      0.00000

 k-point    39 :       0.3846    0.3077   -0.0000
  band No.  band energies     occupation 
      1      -6.1392      2.00000
      2      -5.7604      2.00000
      3      -5.1170      2.00000
      4      -4.5609      2.00000
      5      -4.3676      2.00000
      6      -4.2531      2.00000
      7      -4.1661      2.00000
      8      -3.9943      2.00000
      9      -3.5648      2.00000
     10      -3.3880      2.00000
     11      -3.2351      2.00000
     12      -2.7252      2.00000
     13      -2.3347      2.00000
     14      -1.8041      2.00000
     15      -1.2175      0.00000

 k-point    40 :       0.4615    0.3077   -0.0000
  band No.  band energies     occupation 
      1      -7.5158      2.00000
      2      -7.1307      2.00000
      3      -6.4747      2.00000
      4      -5.5747      2.00000
      5      -4.4767      2.00000
      6      -4.3085      2.00000
      7      -3.9619      2.00000
      8      -3.4485      2.00000
      9      -3.0288      2.00000
     10      -2.5111      2.00000
     11      -2.3367      2.00000
     12      -2.1652      2.00000
     13      -1.6532      1.99903
     14      -1.3923      0.00004
     15      -0.9639      0.00000

 k-point    41 :      -0.4615    0.3077   -0.0000
  band No.  band energies     occupation 
      1      -8.6498      2.00000
      2      -8.2608      2.00000
      3      -7.5982      2.00000
      4      -6.6859      2.00000
      5      -5.5407      2.00000
      6      -4.1970      2.00000
      7      -3.8647      2.00000
      8      -3.5119      2.00000
      9      -2.9088      2.00000
     10      -2.3844      2.00000
     11      -1.8509      2.00000
     12      -1.2237      0.00000
     13      -0.7699      0.00000
     14      -0.4641      0.00000
     15      -0.0627      0.00000

 k-point    42 :      -0.3846    0.3077   -0.0000
  band No.  band energies     occupation 
      1      -9.5350      2.00000
      2      -9.1433      2.00000
      3      -8.4764      2.00000
      4      -7.5572      2.00000
      5      -6.4000      2.00000
      6      -5.0211      2.00000
      7      -3.3941      2.00000
      8      -3.1702      2.00000
      9      -2.8011      2.00000
     10      -2.2031      2.00000
     11      -1.8481      2.00000
     12      -1.1386      0.00000
     13      -0.1200      0.00000
     14       0.1448      0.00000
     15       1.2398      0.00000

 k-point    43 :      -0.3077    0.3077   -0.0000
  band No.  band energies     occupation 
      1     -10.1668      2.00000
      2      -9.7734      2.00000
      3      -9.1037      2.00000
      4      -8.1803      2.00000
      5      -7.0167      2.00000
      6      -5.6260      2.00000
      7      -3.9527      2.00000
      8      -2.7891      2.00000
      9      -2.1975      2.00000
     10      -1.7652      2.00000
     11      -1.1277      0.00000
     12      -0.4266      0.00000
     13      -0.2080      0.00000
     14       0.9057      0.00000
     15       1.3972      0.00000

 k-point    44 :       0.3846    0.3846    0.0000
  band No.  band energies     occupation 
      1      -6.0488      2.00000
      2      -6.0292      2.00000
      3      -5.6829      2.00000
      4      -5.6407      2.00000
      5      -5.0568      2.00000
      6      -4.9663      2.00000
      7      -4.1899      2.00000
      8      -4.1027      2.00000
      9      -3.1919      2.00000
     10      -2.7037      2.00000
     11      -2.6291      2.00000
     12      -2.2788      2.00000
     13      -1.8359      2.00000
     14      -1.7193      2.00000
     15      -1.1841      0.00000

 k-point    45 :       0.4615    0.3846   -0.0000
  band No.  band energies     occupation 
      1      -7.2842      2.00000
      2      -6.9003      2.00000
      3      -6.2485      2.00000
      4      -5.6955      2.00000
      5      -5.3752      2.00000
      6      -5.2711      2.00000
      7      -4.6727      2.00000
      8      -4.2784      2.00000
      9      -3.7168      2.00000
     10      -2.8112      2.00000
     11      -2.4485      2.00000
     12      -1.2438      0.00000
     13      -1.1337      0.00000
     14      -0.7021      0.00000
     15      -0.4340      0.00000

 k-point    46 :      -0.4615    0.3846   -0.0000
  band No.  band energies     occupation 
      1      -8.2854      2.00000
      2      -7.8976      2.00000
      3      -7.2375      2.00000
      4      -6.3309      2.00000
      5      -5.2270      2.00000
      6      -5.0515      2.00000
      7      -4.7093      2.00000
      8      -4.1751      2.00000
      9      -3.7385      2.00000
     10      -3.0498      2.00000
     11      -2.1169      2.00000
     12      -1.8517      2.00000
     13      -0.9237      0.00000
     14      -0.5421      0.00000
     15       0.8900      0.00000

 k-point    47 :      -0.3846    0.3846   -0.0000
  band No.  band energies     occupation 
      1      -9.0370      2.00000
      2      -8.6467      2.00000
      3      -7.9823      2.00000
      4      -7.0673      2.00000
      5      -5.9179      2.00000
      6      -4.5666      2.00000
      7      -4.2385      2.00000
      8      -3.8822      2.00000
      9      -3.2734      2.00000
     10      -2.7460      2.00000
     11      -2.2107      2.00000
     12      -1.5350      0.96447
     13      -1.1093      0.00000
     14       0.2315      0.00000
     15       0.5505      0.00000

 k-point    48 :       0.4615    0.4615   -0.0000
  band No.  band energies     occupation 
      1      -6.8117      2.00000
      2      -6.7918      2.00000
      3      -6.4476      2.00000
      4      -6.3963      2.00000
      5      -5.8162      2.00000
      6      -5.7084      2.00000
      7      -4.9353      2.00000
      8      -4.8349      2.00000
      9      -3.8976      2.00000
     10      -3.4327      2.00000
     11      -2.3585      2.00000
     12      -2.1491      2.00000
     13      -0.7906      0.00000
     14      -0.4513      0.00000
     15       0.3414      0.00000

 k-point    49 :      -0.4615    0.4615   -0.0000
  band No.  band energies     occupation 
      1      -7.6681      2.00000
      2      -7.2830      2.00000
      3      -6.6295      2.00000
      4      -6.0768      2.00000
      5      -5.7548      2.00000
      6      -5.6432      2.00000
      7      -5.0470      2.00000
      8      -4.6453      2.00000
      9      -4.0860      2.00000
     10      -3.1742      2.00000
     11      -2.8143      2.00000
     12      -1.5606      1.50332
     13      -1.4444      0.00916
     14      -0.2804      0.00000
     15       0.1216      0.00000


--------------------------------------------------------------------------------------------------------


 soft charge-density along one line, spin component           1
         0         1         2         3         4         5         6         7         8         9
 total charge-density along one line
 
 pseudopotential strength for first ion, spin component:           1
  8.768   0.006   0.000  -0.002  -0.000   0.000  -0.000  -0.000
  0.006  -0.000   0.000   0.000  -0.000  -0.000   0.000   0.000
  0.000   0.000   1.972  -0.000  -0.000  -0.001  -0.000  -0.000
 -0.002   0.000  -0.000   1.972   0.000  -0.000  -0.001   0.000
 -0.000  -0.000  -0.000   0.000   1.972  -0.000   0.000  -0.001
  0.000  -0.000  -0.001  -0.000  -0.000  -0.018   0.000   0.000
 -0.000   0.000  -0.000  -0.001   0.000   0.000  -0.018  -0.000
 -0.000   0.000  -0.000   0.000  -0.001   0.000  -0.000  -0.018
 total augmentation occupancy for first ion, spin component:           1
  1.466  -0.288  -0.001  -0.032   0.001   0.000  -0.040  -0.000
 -0.288   0.318  -0.001  -0.137   0.001   0.000   0.040  -0.000
 -0.001  -0.001   0.619   0.003   0.009  -0.112  -0.001  -0.002
 -0.032  -0.137   0.003   0.586  -0.001  -0.001  -0.093   0.000
  0.001   0.001   0.009  -0.001   0.629  -0.002   0.000  -0.113
  0.000   0.000  -0.112  -0.001  -0.002   0.023   0.000   0.000
 -0.040   0.040  -0.001  -0.093   0.000   0.000   0.018  -0.000
 -0.000  -0.000  -0.002   0.000  -0.113   0.000  -0.000   0.024


------------------------ aborting loop because EDIFF is reached ----------------------------------------


    CHARGE:  cpu time    0.2776: real time    0.2787
    FORLOC:  cpu time    0.0086: real time    0.0086
    FORNL :  cpu time    0.8145: real time    0.8154
    STRESS:  cpu time    2.6092: real time    2.6139
    FORCOR:  cpu time    0.0871: real time    0.0872
    FORHAR:  cpu time    0.0252: real time    0.0253
    MIXING:  cpu time    0.0046: real time    0.0046
    OFIELD:  cpu time    0.0001: real time    0.0001

  FORCE on cell =-STRESS in cart. coord.  units (eV):
  Direction    XX          YY          ZZ          XY          YZ          ZX
  --------------------------------------------------------------------------------------
  Alpha Z    -0.30603    -0.30603    -0.30603
  Ewald   17684.54488 17682.38252-18012.31965     1.87267   256.06697  -147.84037
  Hartree 17673.94432 17672.71990-17671.57312     1.06038   253.11292  -146.13486
  E(xc)     -58.28935   -58.26525   -58.89617    -0.02087     0.00138    -0.00079
  Local  -35527.23290-35523.73154 35516.02078    -3.03227  -509.17955   293.97503
  n-local   129.91310   132.72576   135.24759     1.13927     0.52098     0.88265
  augment    -7.69799    -7.66650    -7.87218    -0.02728     0.00060    -0.00036
  Kinetic   131.72052    67.07275   100.55791   -17.88015    -0.61048    -0.78410
  Fock        0.00000     0.00000     0.00000     0.00000     0.00000     0.00000
  -------------------------------------------------------------------------------------
  Total      -3.84061    -4.63122     0.85914     0.68469    -0.10765     0.06215
  in kB     -11.44176   -13.79711     2.55949     2.03980    -0.32071     0.18516
  external pressure =       -7.56 kB  Pullay stress =        0.00 kB


 VOLUME and BASIS-vectors are now :
 -----------------------------------------------------------------------------
  energy-cutoff  :      450.00
  volume of cell :      537.80
      direct lattice vectors                 reciprocal lattice vectors
     2.595974150 -1.522302603 -0.021631981     0.386753138  0.002606133  0.001563730
    -0.020365814  3.009330567  0.021631976     0.195633548  0.333635020 -0.001563730
    -0.282768370  0.489769182 69.120091079     0.000059813 -0.000103600  0.014468552

  length of vectors
     3.009477520  3.009477225 69.122404635     0.386765080  0.386765118  0.014469047


 FORCES acting on ions
    electron-ion (+dipol)            ewald-force                    non-local-force                 convergence-correction
 -----------------------------------------------------------------------------------------------
   0.198E+01 -.344E+01 0.487E+03   -.197E+01 0.342E+01 -.485E+03   -.806E-02 0.140E-01 -.159E+01   -.184E-04 0.318E-04 -.443E-02
   -.217E-01 0.376E-01 -.557E-01   0.152E-01 -.263E-01 -.321E-01   0.165E-01 -.287E-01 0.151E+00   -.124E-05 0.214E-05 -.362E-03
   -.218E+01 0.378E+01 -.488E+03   0.211E+01 -.365E+01 0.486E+03   0.127E+00 -.220E+00 0.232E+01   0.224E-04 -.388E-04 0.549E-02
   0.656E+00 -.114E+01 0.162E+03   -.659E+00 0.114E+01 -.162E+03   0.740E-02 -.128E-01 0.170E+00   -.282E-04 0.489E-04 -.682E-02
   -.103E+01 0.178E+01 -.324E+03   0.116E+01 -.201E+01 0.324E+03   -.207E+00 0.358E+00 -.738E+00   0.474E-04 -.821E-04 0.117E-01
   0.137E+01 -.237E+01 0.325E+03   -.135E+01 0.234E+01 -.325E+03   -.203E-01 0.352E-01 -.101E+00   -.369E-04 0.639E-04 -.899E-02
   -.722E+00 0.125E+01 -.162E+03   0.697E+00 -.121E+01 0.162E+03   0.314E-01 -.544E-01 -.183E+00   0.258E-04 -.448E-04 0.604E-02
 -----------------------------------------------------------------------------------------------
   0.527E-01 -.913E-01 -.352E-01   -.155E-14 -.111E-14 0.284E-13   -.527E-01 0.913E-01 0.325E-01   0.109E-04 -.189E-04 0.262E-02
 
 
 POSITION                                       TOTAL-FORCE (eV/Angst)
 -----------------------------------------------------------------------------------
      2.33679     -1.07338     16.24204         0.003487     -0.006039     -0.003748
      2.36388     -1.12031     22.91309         0.009987     -0.017299      0.063155
      2.37327     -1.13657     29.53359         0.054616     -0.094597      0.328267
      1.48065      0.40949     20.71413         0.004102     -0.007104      0.023216
      1.55397      0.28250     27.39196        -0.072858      0.126193     -0.331154
      0.60458      1.92689     18.52015        -0.005454      0.009446     -0.056874
      0.64113      1.86359     25.17387         0.006119     -0.010599     -0.022862
 -----------------------------------------------------------------------------------
    total drift:                               -0.000001      0.000001     -0.000051


--------------------------------------------------------------------------------------------------------



  FREE ENERGIE OF THE ION-ELECTRON SYSTEM (eV)
  ---------------------------------------------------
  free  energy   TOTEN  =       -25.17635510 eV

  energy  without entropy=      -25.17464644  energy(sigma->0) =      -25.17550077
 


--------------------------------------------------------------------------------------------------------


    POTLOK:  cpu time    0.1881: real time    0.1882


--------------------------------------------------------------------------------------------------------


 stress matrix after NEB project (eV)
     -3.84061      0.68469      0.06215
      0.68469     -4.63122     -0.10765
      0.06215     -0.10765      0.85914
  FORCES: max atom, RMS     0.361795    0.192602
  FORCE total and by dimension    0.509578    0.331154
  Stress total and by dimension    6.156716    4.631224
     LOOP+:  cpu time  111.1711: real time  112.4024
    4ORBIT:  cpu time    0.0000: real time    0.0000

 total amount of memory used by VASP MPI-rank0    78567. kBytes
=======================================================================

   base      :      30000. kBytes
   nonl-proj :       9614. kBytes
   fftplans  :      21353. kBytes
   grid      :      10586. kBytes
   one-center:          6. kBytes
   wavefun   :       7008. kBytes
 
  
  
 General timing and accounting informations for this job:
 ========================================================
  
                  Total CPU time used (sec):      116.596
                            User time (sec):      114.331
                          System time (sec):        2.265
                         Elapsed time (sec):      117.861
  
                   Maximum memory used (kb):      206904.
                   Average memory used (kb):           0.
  
                          Minor page faults:       305850
                          Major page faults:            0
                 Voluntary context switches:          271
