       N       E                     dE             d eps       ncg     rms          rms(c)
DAV:   1     0.747031441931E+03    0.74703E+03   -0.34308E+04  2530   0.112E+03
DAV:   2    -0.147142152933E+02   -0.76175E+03   -0.74320E+03  3160   0.298E+02
DAV:   3    -0.132803277232E+03   -0.11809E+03   -0.11678E+03  2580   0.126E+02
DAV:   4    -0.135598679073E+03   -0.27954E+01   -0.27859E+01  2865   0.234E+01
DAV:   5    -0.135655306235E+03   -0.56627E-01   -0.56590E-01  2860   0.299E+00    0.243E+01
DAV:   6    -0.131667619622E+03    0.39877E+01   -0.25139E+02  2800   0.378E+01    0.188E+01
DAV:   7    -0.120692976637E+03    0.10975E+02   -0.34294E+01  2825   0.157E+01    0.106E+01
DAV:   8    -0.120660734784E+03    0.32242E-01   -0.21867E+01  3200   0.134E+01    0.766E+00
DAV:   9    -0.121257412980E+03   -0.59668E+00   -0.15761E+01  2820   0.581E+00    0.110E+01
DAV:  10    -0.122333300725E+03   -0.10759E+01   -0.50623E+01  3135   0.946E+00    0.941E+00
DAV:  11    -0.120842238018E+03    0.14911E+01   -0.63916E-01  2920   0.467E+00    0.819E+00
DAV:  12    -0.120039368726E+03    0.80287E+00   -0.11074E+00  3390   0.581E+00    0.480E+00
DAV:  13    -0.120258857305E+03   -0.21949E+00   -0.46138E+00  3220   0.480E+00    0.747E+00
DAV:  14    -0.119892297980E+03    0.36656E+00   -0.88543E-01  2730   0.234E+00    0.274E+00
DAV:  15    -0.119906533545E+03   -0.14236E-01   -0.52288E-02  2625   0.712E-01    0.409E+00
DAV:  16    -0.119908619735E+03   -0.20862E-02   -0.73661E-03  2720   0.341E-01    0.444E+00
DAV:  17    -0.119900518737E+03    0.81010E-02   -0.19552E+00  3410   0.137E+00    0.442E+00
DAV:  18    -0.119982481245E+03   -0.81963E-01   -0.65040E-02  2940   0.711E-01    0.635E+00
DAV:  19    -0.119933045392E+03    0.49436E-01   -0.73437E-03  2740   0.296E-01    0.510E+00
DAV:  20    -0.119878955474E+03    0.54090E-01   -0.74022E-03  3475   0.369E-01    0.392E+00
DAV:  21    -0.119857778919E+03    0.21177E-01   -0.12889E-02  2915   0.236E-01    0.284E+00
DAV:  22    -0.119845794755E+03    0.11984E-01   -0.44695E-03  2905   0.316E-01    0.201E+00
DAV:  23    -0.119834370258E+03    0.11424E-01   -0.96228E-03  3280   0.311E-01    0.971E-01
DAV:  24    -0.119830355861E+03    0.40144E-02   -0.76071E-04  2525   0.188E-01    0.761E-01
DAV:  25    -0.119831243990E+03   -0.88813E-03   -0.49847E-04  2850   0.973E-02    0.858E-01
DAV:  26    -0.119830477788E+03    0.76620E-03   -0.81254E-04  2940   0.139E-01    0.423E-01
DAV:  27    -0.119830157889E+03    0.31990E-03   -0.61267E-04  2940   0.102E-01    0.302E-01
DAV:  28    -0.119830225216E+03   -0.67327E-04   -0.34605E-04  3385   0.871E-02    0.342E-01
DAV:  29    -0.119830432667E+03   -0.20745E-03   -0.28557E-04  2865   0.881E-02    0.229E-01
DAV:  30    -0.119830322584E+03    0.11008E-03   -0.78146E-05  3020   0.592E-02    0.129E-01
DAV:  31    -0.119830477433E+03   -0.15485E-03   -0.55625E-04  2920   0.976E-02    0.245E-01
DAV:  32    -0.119830553747E+03   -0.76314E-04   -0.68152E-05  2840   0.521E-02    0.329E-01
DAV:  33    -0.119830219835E+03    0.33391E-03   -0.35055E-05  3320   0.547E-02    0.673E-02
DAV:  34    -0.119830395682E+03   -0.17585E-03   -0.21287E-05  2855   0.379E-02    0.544E-02
DAV:  35    -0.119830409273E+03   -0.13591E-04   -0.14589E-05  2950   0.342E-02    0.798E-02
DAV:  36    -0.119830398982E+03    0.10291E-04   -0.24804E-05  2890   0.288E-02    0.597E-02
DAV:  37    -0.119830422412E+03   -0.23430E-04   -0.11752E-05  2910   0.242E-02    0.495E-02
DAV:  38    -0.119830419457E+03    0.29544E-05   -0.67916E-06  2700   0.196E-02    0.453E-02
DAV:  39    -0.119830437604E+03   -0.18147E-04   -0.11732E-05  2710   0.232E-02    0.773E-02
DAV:  40    -0.119830431885E+03    0.57193E-05   -0.24274E-05  2910   0.141E-02    0.380E-02
DAV:  41    -0.119830425769E+03    0.61157E-05   -0.15823E-06  2150   0.122E-02    0.210E-02
DAV:  42    -0.119830429509E+03   -0.37398E-05   -0.12231E-06  2090   0.136E-02    0.225E-02
DAV:  43    -0.119830431204E+03   -0.16952E-05   -0.19771E-06  2270   0.187E-02    0.200E-02
DAV:  44    -0.119830440668E+03   -0.94645E-05   -0.21873E-06  2370   0.167E-02    0.172E-02
DAV:  45    -0.119830446558E+03   -0.58892E-05   -0.27304E-06  2370   0.135E-02    0.179E-02
DAV:  46    -0.119830452109E+03   -0.55518E-05   -0.19466E-06  2025   0.662E-03    0.882E-03
DAV:  47    -0.119830461418E+03   -0.93091E-05   -0.17019E-06  2010   0.735E-03    0.374E-02
DAV:  48    -0.119830450893E+03    0.10525E-04   -0.13363E-06  1950   0.924E-03    0.903E-03
DAV:  49    -0.119830463930E+03   -0.13037E-04   -0.37004E-07  1770   0.627E-03    0.123E-02
DAV:  50    -0.119830475367E+03   -0.11437E-04   -0.38049E-07  2040   0.837E-03    0.319E-02
DAV:  51    -0.119830476119E+03   -0.75200E-06   -0.37890E-07  1885   0.647E-03
   1 F= -.11983048E+03 E0= -.11981902E+03  d E =-.229181E-01
