 vasp.5.4.4.18Apr17-6-g9f103f2a35 (build Nov 15 2019 10:10:58) complex          
  
 executed on             LinuxIFC date 2024.09.28  15:13:39
 running on   20 total cores
 distrk:  each k-point on   20 cores,    1 groups
 distr:  one band on NCORES_PER_BAND=   4 cores,    5 groups


--------------------------------------------------------------------------------------------------------


 INCAR:
 POTCAR:    PAW_PBE O 08Apr2002                   
 POTCAR:    PAW_PBE Mg 13Apr2007                  
 POTCAR:    PAW_PBE O 08Apr2002                   
   VRHFIN =O: s2p4                                                              
   LEXCH  = PE                                                                  
   EATOM  =   432.3788 eV,   31.7789 Ry                                         
                                                                                
   TITEL  = PAW_PBE O 08Apr2002                                                 
   LULTRA =        F    use ultrasoft PP ?                                      
   IUNSCR =        1    unscreen: 0-lin 1-nonlin 2-no                           
   RPACOR =    1.200    partial core radius                                     
   POMASS =   16.000; ZVAL   =    6.000    mass and valenz                      
   RCORE  =    1.520    outmost cutoff radius                                   
   RWIGS  =    1.550; RWIGS  =    0.820    wigner-seitz radius (au A)           
   ENMAX  =  400.000; ENMIN  =  300.000 eV                                      
   ICORE  =        2    local potential                                         
   LCOR   =        T    correct aug charges                                     
   LPAW   =        T    paw PP                                                  
   EAUG   =  605.392                                                            
   DEXC   =    0.000                                                            
   RMAX   =    1.553    core radius for proj-oper                               
   RAUG   =    1.300    factor for augmentation sphere                          
   RDEP   =    1.550    radius for radial grids                                 
   RDEPT  =    1.329    core radius for aug-charge                              
                                                                                
   Atomic configuration                                                         
    4 entries                                                                   
     n  l   j            E        occ.                                          
     1  0  0.50      -514.6923   2.0000                                         
     2  0  0.50       -23.9615   2.0000                                         
     2  1  0.50        -9.0305   4.0000                                         
     3  2  1.50        -9.5241   0.0000                                         
   Description                                                                  
     l       E           TYP  RCUT    TYP  RCUT                                 
     0    -23.9615318     23  1.200                                             
     0     -9.5240782     23  1.200                                             
     1     -9.0304911     23  1.520                                             
     1      8.1634956     23  1.520                                             
     2     -9.5240782      7  1.500                                             
  local pseudopotential read in
  partial core-charges read in
  partial kinetic energy density read in
  kinetic energy density of atom read in
  atomic valenz-charges read in
  non local Contribution for L=           0  read in
    real space projection operators read in
  non local Contribution for L=           0  read in
    real space projection operators read in
  non local Contribution for L=           1  read in
    real space projection operators read in
  non local Contribution for L=           1  read in
    real space projection operators read in
    PAW grid and wavefunctions read in
 
   number of l-projection  operators is LMAX  =           4
   number of lm-projection operators is LMMAX =           8
 
 POTCAR:    PAW_PBE Mg 13Apr2007                  
   VRHFIN =Mg: s2p0                                                             
   LEXCH  = PE                                                                  
   EATOM  =    23.0369 eV,    1.6932 Ry                                         
                                                                                
   TITEL  = PAW_PBE Mg 13Apr2007                                                
   LULTRA =        F    use ultrasoft PP ?                                      
   IUNSCR =        1    unscreen: 0-lin 1-nonlin 2-no                           
   RPACOR =    1.500    partial core radius                                     
   POMASS =   24.305; ZVAL   =    2.000    mass and valenz                      
   RCORE  =    2.000    outmost cutoff radius                                   
   RWIGS  =    2.880; RWIGS  =    1.524    wigner-seitz radius (au A)           
   ENMAX  =  200.000; ENMIN  =  100.000 eV                                      
   RCLOC  =    1.506    cutoff for local pot                                    
   LCOR   =        T    correct aug charges                                     
   LPAW   =        T    paw PP                                                  
   EAUG   =  454.734                                                            
   DEXC   =    0.000                                                            
   RMAX   =    2.045    core radius for proj-oper                               
   RAUG   =    1.300    factor for augmentation sphere                          
   RDEP   =    2.025    radius for radial grids                                 
   RDEPT  =    1.942    core radius for aug-charge                              
                                                                                
   Atomic configuration                                                         
    6 entries                                                                   
     n  l   j            E        occ.                                          
     1  0  0.50     -1259.6230   2.0000                                         
     2  0  0.50       -79.8442   2.0000                                         
     2  1  1.50       -46.6121   6.0000                                         
     3  0  0.50        -4.7055   2.0000                                         
     3  1  0.50        -1.3660   0.0000                                         
     3  2  1.50        -1.3606   0.0000                                         
   Description                                                                  
     l       E           TYP  RCUT    TYP  RCUT                                 
     0     -4.7054661     23  2.000                                             
     0     27.2116520     23  2.000                                             
     1      1.3605826     23  2.000                                             
     1     27.2116520     23  2.000                                             
     2     -1.3605826     23  2.000                                             
  local pseudopotential read in
  partial core-charges read in
  partial kinetic energy density read in
  atomic valenz-charges read in
  non local Contribution for L=           0  read in
    real space projection operators read in
  non local Contribution for L=           0  read in
    real space projection operators read in
  non local Contribution for L=           1  read in
    real space projection operators read in
  non local Contribution for L=           1  read in
    real space projection operators read in
  non local Contribution for L=           2  read in
    real space projection operators read in
    PAW grid and wavefunctions read in
 
   number of l-projection  operators is LMAX  =           5
   number of lm-projection operators is LMMAX =          13
 

 ----------------------------------------------------------------------------- 
|                                                                             |
|  ADVICE TO THIS USER RUNNING 'VASP/VAMP'   (HEAR YOUR MASTER'S VOICE ...):  |
|                                                                             |
|      You have a (more or less) 'large supercell' and for larger cells       |
|      it might be more efficient to use real space projection opertators     |
|      So try LREAL= Auto  in the INCAR   file.                               |
|      Mind:          For very  accurate calculation you might also keep the  |
|      reciprocal projection scheme          (i.e. LREAL=.FALSE.)             |
|                                                                             |
 ----------------------------------------------------------------------------- 

  PAW_PBE O 08Apr2002                   :
 energy of atom  1       EATOM= -432.3788
 kinetic energy error for atom=    0.0389 (will be added to EATOM!!)
  PAW_PBE Mg 13Apr2007                  :
 energy of atom  2       EATOM=  -23.0369
 kinetic energy error for atom=    0.0001 (will be added to EATOM!!)
 
 
 POSCAR: Layer26                                 
  positions in direct lattice
  velocities in cartesian coordinates
 exchange correlation table for  LEXCH =        8
   RHO(1)=    0.500       N(1)  =     2000
   RHO(2)=  100.500       N(2)  =     4000

 VTST: version 3.2, (02/03/18)

 CHAIN: initializing optimizer
 
 OPT: Using VASP Conjugate-Gradient optimizer
 CHAIN: Read ICHAIN            0
 
 POSCAR: Layer26                                 
  positions in direct lattice
  velocities in cartesian coordinates
 


--------------------------------------------------------------------------------------------------------


 ion  position               nearest neighbor table
   1  0.333  0.667  0.432-  12 2.20  12 2.20  12 2.20
   2  0.000  0.000  0.501-  19 2.08  19 2.08  19 2.08  16 2.17  16 2.17  16 2.17
   3  0.333  0.667  0.536-  16 2.08  16 2.08  16 2.08  13 2.17  13 2.17  13 2.17
   4  0.000  0.000  0.604-  20 2.08  20 2.08  20 2.08  17 2.17  17 2.17  17 2.17
   5  0.333  0.667  0.639-  17 2.08  17 2.08  17 2.08  14 2.17  14 2.17  14 2.17
   6  0.000  0.000  0.707-  21 2.08  21 2.08  21 2.08  18 2.17  18 2.17  18 2.17
   7  0.333  0.667  0.741-  18 2.06  18 2.06  18 2.06  15 2.21  15 2.21  15 2.21
   8  0.667  0.333  0.467-  12 2.08  12 2.08  12 2.08  19 2.17  19 2.17  19 2.17
   9  0.667  0.333  0.570-  13 2.08  13 2.08  13 2.08  20 2.17  20 2.17  20 2.17
  10  0.667  0.333  0.673-  14 2.08  14 2.08  14 2.08  21 2.17  21 2.17  21 2.17
  11  0.667  0.333  0.774-  15 1.97  15 1.97  15 1.97
  12  0.000  0.000  0.451-   8 2.08   8 2.08   8 2.08   1 2.20   1 2.20   1 2.20  19 3.01  19 3.01
                            19 3.01
  13  0.000  0.000  0.554-   9 2.08   9 2.08   9 2.08   3 2.17   3 2.17   3 2.17  16 3.01  16 3.01
                            16 3.01  20 3.01  20 3.01  20 3.01
  14  0.000  0.000  0.657-  10 2.08  10 2.08  10 2.08   5 2.17   5 2.17   5 2.17  21 3.01  21 3.01
                            21 3.01  17 3.01  17 3.01  17 3.01
  15  0.000  0.000  0.761-  11 1.97  11 1.97  11 1.97   7 2.21   7 2.21   7 2.21  18 3.05  18 3.05
                            18 3.05
  16  0.667  0.333  0.520-   3 2.08   3 2.08   3 2.08   2 2.17   2 2.17   2 2.17  19 3.01  19 3.01
                            19 3.01  13 3.01  13 3.01  13 3.01
  17  0.667  0.333  0.623-   5 2.08   5 2.08   5 2.08   4 2.17   4 2.17   4 2.17  14 3.01  14 3.01
                            14 3.01  20 3.01  20 3.01  20 3.01
  18  0.667  0.333  0.726-   7 2.06   7 2.06   7 2.06   6 2.17   6 2.17   6 2.17  21 3.01  21 3.01
                            21 3.01  15 3.05  15 3.05  15 3.05
  19  0.333  0.667  0.485-   2 2.08   2 2.08   2 2.08   8 2.17   8 2.17   8 2.17  12 3.01  12 3.01
                            12 3.01  16 3.01  16 3.01  16 3.01
  20  0.333  0.667  0.588-   4 2.08   4 2.08   4 2.08   9 2.17   9 2.17   9 2.17  17 3.01  17 3.01
                            17 3.01  13 3.01  13 3.01  13 3.01
  21  0.333  0.667  0.691-   6 2.08   6 2.08   6 2.08  10 2.17  10 2.17  10 2.17  14 3.01  14 3.01
                            14 3.01  18 3.01  18 3.01  18 3.01
 
  LATTYP: Found a hexagonal cell.
 ALAT       =     2.9934728877
 C/A-ratio  =    23.9760431236
  
  Lattice vectors:
  
 A1 = (   2.5924236677,  -1.4967362682,   0.0000000000)
 A2 = (   0.0000000000,   2.9934725364,   0.0000000000)
 A3 = (   0.0000000000,   0.0000000000,  71.7716350437)


Analysis of symmetry for initial positions (statically):
=====================================================================
 Subroutine PRICEL returns:
 Original cell was already a primitive cell.
 

 Routine SETGRP: Setting up the symmetry group for a 
 hexagonal supercell.


 Subroutine GETGRP returns: Found  6 space group operations
 (whereof  6 operations were pure point group operations)
 out of a pool of 24 trial point group operations.


The static configuration has the point symmetry C_3v.


Analysis of symmetry for dynamics (positions and initial velocities):
=====================================================================
 Subroutine PRICEL returns:
 Original cell was already a primitive cell.
 

 Routine SETGRP: Setting up the symmetry group for a 
 hexagonal supercell.


 Subroutine GETGRP returns: Found  6 space group operations
 (whereof  6 operations were pure point group operations)
 out of a pool of 24 trial point group operations.


The dynamic configuration has the point symmetry C_3v.


Analysis of constrained symmetry for selective dynamics:
=====================================================================
 Subroutine PRICEL returns:
 Original cell was already a primitive cell.
 

 Routine SETGRP: Setting up the symmetry group for a 
 hexagonal supercell.


 Subroutine GETGRP returns: Found  6 space group operations
 (whereof  6 operations were pure point group operations)
 out of a pool of 24 trial point group operations.


The constrained configuration has the point symmetry C_3v.


 Subroutine INISYM returns: Found  6 space group operations
 (whereof  6 operations are pure point group operations),
 and found     1 'primitive' translations

 
 
 KPOINTS: K-Spacing Value to Generate K-Mesh: 0.02

Automatic generation of k-mesh.
Space group operators:
 irot       det(A)        alpha          n_x          n_y          n_z        tau_x        tau_y        tau_z
    1     1.000000     0.000001     1.000000     0.000000     0.000000     0.000000     0.000000     0.000000
    2     1.000000   120.000000    -0.000000    -0.000000    -1.000000     0.000000     0.000000     0.000000
    3     1.000000   120.000000     0.000000    -0.000000     1.000000     0.000000     0.000000     0.000000
    4    -1.000000   180.000000    -0.866025     0.500000     0.000000     0.000000     0.000000     0.000000
    5    -1.000000   180.000000     0.000000     1.000000     0.000000     0.000000     0.000000     0.000000
    6    -1.000000   180.000000    -0.866025    -0.500000     0.000000     0.000000     0.000000     0.000000
 
 Subroutine IBZKPT returns following result:
 ===========================================
 
 Found     21 irreducible k-points:
 
 Following reciprocal coordinates:
            Coordinates               Weight
  0.000000  0.000000  0.000000      1.000000
  0.076923  0.000000  0.000000      6.000000
  0.153846  0.000000  0.000000      6.000000
  0.230769  0.000000  0.000000      6.000000
  0.307692  0.000000  0.000000      6.000000
  0.384615  0.000000  0.000000      6.000000
  0.461538  0.000000  0.000000      6.000000
  0.076923  0.076923  0.000000      6.000000
  0.153846  0.076923  0.000000     12.000000
  0.230769  0.076923  0.000000     12.000000
  0.307692  0.076923  0.000000     12.000000
  0.384615  0.076923  0.000000     12.000000
  0.461538  0.076923  0.000000      6.000000
  0.153846  0.153846 -0.000000      6.000000
  0.230769  0.153846  0.000000     12.000000
  0.307692  0.153846  0.000000     12.000000
  0.384615  0.153846  0.000000     12.000000
  0.230769  0.230769  0.000000      6.000000
  0.307692  0.230769 -0.000000     12.000000
  0.384615  0.230769  0.000000      6.000000
  0.307692  0.307692  0.000000      6.000000
 
 Following cartesian coordinates:
            Coordinates               Weight
  0.000000  0.000000  0.000000      1.000000
  0.029672  0.000000 -0.000000      6.000000
  0.059345  0.000000 -0.000000      6.000000
  0.089017  0.000000 -0.000000      6.000000
  0.118689  0.000000 -0.000000      6.000000
  0.148361  0.000000 -0.000000      6.000000
  0.178034  0.000000 -0.000000      6.000000
  0.044508  0.025697 -0.000000      6.000000
  0.074181  0.025697 -0.000000     12.000000
  0.103853  0.025697 -0.000000     12.000000
  0.133525  0.025697 -0.000000     12.000000
  0.163197  0.025697 -0.000000     12.000000
  0.192870  0.025697 -0.000000      6.000000
  0.089017  0.051394 -0.000000      6.000000
  0.118689  0.051394 -0.000000     12.000000
  0.148361  0.051394 -0.000000     12.000000
  0.178034  0.051394 -0.000000     12.000000
  0.133525  0.077091 -0.000000      6.000000
  0.163197  0.077091 -0.000000     12.000000
  0.192870  0.077091 -0.000000      6.000000
  0.178034  0.102788 -0.000000      6.000000
 


--------------------------------------------------------------------------------------------------------




 Dimension of arrays:
   k-points           NKPTS =     21   k-points in BZ     NKDIM =     21   number of bands    NBANDS=     55
   number of dos      NEDOS =    301   number of ions     NIONS =     21
   non local maximal  LDIM  =      5   non local SUM 2l+1 LMDIM =     13
   total plane-waves  NPLWV = 322560
   max r-space proj   IRMAX =      1   max aug-charges    IRDMAX= 196988
   dimension x,y,z NGX =    24 NGY =   24 NGZ =  560
   dimension x,y,z NGXF=    48 NGYF=   48 NGZF= 1120
   support grid    NGXF=    96 NGYF=   96 NGZF= 2240
   ions per type =              11  10
   NGX,Y,Z   is equivalent  to a cutoff of  13.33, 13.33, 12.97 a.u.
   NGXF,Y,Z  is equivalent  to a cutoff of  26.66, 26.66, 25.94 a.u.

 Based on PREC, I would recommend the following setting:
   dimension x,y,z NGX =    24 NGY =   24 NGZ =  500

 SYSTEM =  unknown system                          
 POSCAR =  Layer26                                 

 Startparameter for this run:
   NWRITE =      2    write-flag & timer
   PREC   = accura    normal or accurate (medium, high low for compatibility)
   ISTART =      0    job   : 0-new  1-cont  2-samecut
   ICHARG =      2    charge: 1-file 2-atom 10-const
   ISPIN  =      1    spin polarized calculation?
   LNONCOLLINEAR =      F non collinear calculations
   LSORBIT =      F    spin-orbit coupling
   INIWAV =      1    electr: 0-lowe 1-rand  2-diag
   LASPH  =      F    aspherical Exc in radial PAW
   METAGGA=      F    non-selfconsistent MetaGGA calc.

 Electronic Relaxation 1
   ENCUT  =  450.0 eV  33.07 Ry    5.75 a.u.   5.18  5.18124.14*2*pi/ulx,y,z
   ENINI  =  450.0     initial cutoff
   ENAUG  =  605.4 eV  augmentation charge cutoff
   NELM   =    100;   NELMIN=  6; NELMDL=  0     # of ELM steps 
   EDIFF  = 0.1E-05   stopping-criterion for ELM
   LREAL  =      F    real-space projection
   NLSPLINE    = F    spline interpolate recip. space projectors
   LCOMPAT=      F    compatible to vasp.4.4
   GGA_COMPAT  = T    GGA compatible to vasp.4.4-vasp.4.6
   LMAXPAW     = -100 max onsite density
   LMAXMIX     =    2 max onsite mixed and CHGCAR
   VOSKOWN=      0    Vosko Wilk Nusair interpolation
   ROPT   =    0.00000   0.00000
 Ionic relaxation
   EDIFFG = -.2E-01   stopping-criterion for IOM
   NSW    =      0    number of steps for IOM
   NBLOCK =      1;   KBLOCK =      1    inner block; outer block 
   IBRION =     -1    ionic relax: 0-MD 1-quasi-New 2-CG
   NFREE  =      1    steps in history (QN), initial steepest desc. (CG)
   ISIF   =      4    stress and relaxation
   IWAVPR =     10    prediction:  0-non 1-charg 2-wave 3-comb
   ISYM   =      2    0-nonsym 1-usesym 2-fastsym
   LCORR  =      T    Harris-Foulkes like correction to forces

   POTIM  = 0.5000    time-step for ionic-motion
   TEIN   =    0.0    initial temperature
   TEBEG  =    0.0;   TEEND  =   0.0 temperature during run
   SMASS  =  -3.00    Nose mass-parameter (am)
   estimated Nose-frequenzy (Omega)   =  0.10E-29 period in steps =****** mass=  -0.205E-27a.u.
   SCALEE = 1.0000    scale energy and forces
   NPACO  =    256;   APACO  = 16.0  distance and # of slots for P.C.
   PSTRESS=    0.0 pullay stress

  Mass of Ions in am
   POMASS =  16.00 24.30
  Ionic Valenz
   ZVAL   =   6.00  2.00
  Atomic Wigner-Seitz radii
   RWIGS  =  -1.00 -1.00
  virtual crystal weights 
   VCA    =   1.00  1.00
   NELECT =      86.0000    total number of electrons
   NUPDOWN=      -1.0000    fix difference up-down

 DOS related values:
   EMIN   =  10.00;   EMAX   =-10.00  energy-range for DOS
   EFERMI =   0.00
   ISMEAR =     0;   SIGMA  =   0.05  broadening in eV -4-tet -1-fermi 0-gaus

 Electronic relaxation 2 (details)
   IALGO  =     38    algorithm
   LDIAG  =      T    sub-space diagonalisation (order eigenvalues)
   LSUBROT=      F    optimize rotation matrix (better conditioning)
   TURBO    =      0    0=normal 1=particle mesh
   IRESTART =      0    0=no restart 2=restart with 2 vectors
   NREBOOT  =      0    no. of reboots
   NMIN     =      0    reboot dimension
   EREF     =   0.00    reference energy to select bands
   IMIX   =      4    mixing-type and parameters
     AMIX     =   0.40;   BMIX     =  1.00
     AMIX_MAG =   1.60;   BMIX_MAG =  1.00
     AMIN     =   0.01
     WC   =   100.;   INIMIX=   1;  MIXPRE=   1;  MAXMIX= -45

 Intra band minimization:
   WEIMIN = 0.0000     energy-eigenvalue tresh-hold
   EBREAK =  0.45E-08  absolut break condition
   DEPER  =   0.30     relativ break condition  

   TIME   =   0.40     timestep for ELM

  volume/ion in A,a.u.               =      26.52       178.98
  Fermi-wavevector in a.u.,A,eV,Ry     =   0.878273  1.659696 10.495041  0.771364
  Thomas-Fermi vector in A             =   1.998337
 
 Write flags
   LWAVE        =      F    write WAVECAR
   LDOWNSAMPLE  =      F    k-point downsampling of WAVECAR
   LCHARG       =      T    write CHGCAR
   LVTOT        =      F    write LOCPOT, total local potential
   LVHAR        =      F    write LOCPOT, Hartree potential only
   LELF         =      F    write electronic localiz. function (ELF)
   LORBIT       =      0    0 simple, 1 ext, 2 COOP (PROOUT), +10 PAW based schemes


 Dipole corrections
   LMONO  =      F    monopole corrections only (constant potential shift)
   LDIPOL =      F    correct potential (dipole corrections)
   IDIPOL =      0    1-x, 2-y, 3-z, 4-all directions 
   EPSILON=  1.0000000 bulk dielectric constant

 Exchange correlation treatment:
   GGA     =    --    GGA type
   LEXCH   =     8    internal setting for exchange type
   VOSKOWN=      0    Vosko Wilk Nusair interpolation
   LHFCALC =     F    Hartree Fock is set to
   LHFONE  =     F    Hartree Fock one center treatment
   AEXX    =    0.0000 exact exchange contribution

 Linear response parameters
   LEPSILON=     F    determine dielectric tensor
   LRPA    =     F    only Hartree local field effects (RPA)
   LNABLA  =     F    use nabla operator in PAW spheres
   LVEL    =     F    velocity operator in full k-point grid
   LINTERFAST=   F  fast interpolation
   KINTER  =     0    interpolate to denser k-point grid
   CSHIFT  =0.1000    complex shift for real part using Kramers Kronig
   OMEGAMAX=  -1.0    maximum frequency
   DEG_THRESHOLD= 0.2000000E-02 threshold for treating states as degnerate
   RTIME   =   -0.100 relaxation time in fs
  (WPLASMAI=    0.000 imaginary part of plasma frequency in eV, 0.658/RTIME)
   DFIELD  = 0.0000000 0.0000000 0.0000000 field for delta impulse in time
 
 Orbital magnetization related:
   ORBITALMAG=     F  switch on orbital magnetization
   LCHIMAG   =     F  perturbation theory with respect to B field
   DQ        =  0.001000  dq finite difference perturbation B field
   LLRAUG    =     F  two centre corrections for induced B field



--------------------------------------------------------------------------------------------------------


 Static calculation
 charge density and potential will be updated during run
 non-spin polarized calculation
 Variant of blocked Davidson
 Davidson routine will perform the subspace rotation
 perform sub-space diagonalisation
    after iterative eigenvector-optimisation
 modified Broyden-mixing scheme, WC =      100.0
 initial mixing is a Kerker type mixing with AMIX =  0.4000 and BMIX =      1.0000
 Hartree-type preconditioning will be used
 using additional bands           12
 reciprocal scheme for non local part
 use partial core corrections
 calculate Harris-corrections to forces 
   (improved forces if not selfconsistent)
 use gradient corrections 
 use of overlap-Matrix (Vanderbilt PP)
 Gauss-broadening in eV      SIGMA  =   0.05


--------------------------------------------------------------------------------------------------------


  energy-cutoff  :      450.00
  volume of cell :      556.97
      direct lattice vectors                 reciprocal lattice vectors
     2.592423668 -1.496736268  0.000000000     0.385739419  0.000000000 -0.000000000
     0.000000000  2.993472536  0.000000000     0.192869710  0.334060189 -0.000000000
     0.000000000  0.000000000 71.771635044     0.000000000  0.000000000  0.013933081

  length of vectors
     2.993472888  2.993472536 71.771635044     0.385739419  0.385739465  0.013933081


 
 k-points in units of 2pi/SCALE and weight: K-Spacing Value to Generate K-Mesh: 0.02
   0.00000000  0.00000000  0.00000000       0.006
   0.02967226  0.00000000 -0.00000000       0.036
   0.05934453  0.00000000 -0.00000000       0.036
   0.08901679  0.00000000 -0.00000000       0.036
   0.11868905  0.00000000 -0.00000000       0.036
   0.14836132  0.00000000 -0.00000000       0.036
   0.17803358  0.00000000 -0.00000000       0.036
   0.04450839  0.02569694 -0.00000000       0.036
   0.07418066  0.02569694 -0.00000000       0.071
   0.10385292  0.02569694 -0.00000000       0.071
   0.13352518  0.02569694 -0.00000000       0.071
   0.16319745  0.02569694 -0.00000000       0.071
   0.19286971  0.02569694 -0.00000000       0.036
   0.08901679  0.05139388 -0.00000000       0.036
   0.11868905  0.05139388 -0.00000000       0.071
   0.14836132  0.05139388 -0.00000000       0.071
   0.17803358  0.05139388 -0.00000000       0.071
   0.13352518  0.07709081 -0.00000000       0.036
   0.16319745  0.07709081 -0.00000000       0.071
   0.19286971  0.07709081 -0.00000000       0.036
   0.17803358  0.10278775 -0.00000000       0.036
 
 k-points in reciprocal lattice and weights: K-Spacing Value to Generate K-Mesh: 0.02
   0.00000000  0.00000000  0.00000000       0.006
   0.07692308  0.00000000  0.00000000       0.036
   0.15384615  0.00000000  0.00000000       0.036
   0.23076923  0.00000000  0.00000000       0.036
   0.30769231  0.00000000  0.00000000       0.036
   0.38461538  0.00000000  0.00000000       0.036
   0.46153846  0.00000000  0.00000000       0.036
   0.07692308  0.07692308  0.00000000       0.036
   0.15384615  0.07692308  0.00000000       0.071
   0.23076923  0.07692308  0.00000000       0.071
   0.30769231  0.07692308  0.00000000       0.071
   0.38461538  0.07692308  0.00000000       0.071
   0.46153846  0.07692308  0.00000000       0.036
   0.15384615  0.15384615 -0.00000000       0.036
   0.23076923  0.15384615  0.00000000       0.071
   0.30769231  0.15384615  0.00000000       0.071
   0.38461538  0.15384615  0.00000000       0.071
   0.23076923  0.23076923  0.00000000       0.036
   0.30769231  0.23076923 -0.00000000       0.071
   0.38461538  0.23076923  0.00000000       0.036
   0.30769231  0.30769231  0.00000000       0.036
 
 position of ions in fractional coordinates (direct lattice) 
   0.33333300  0.66666700  0.43208584
   0.00000000  0.00000000  0.50141182
   0.33333300  0.66666700  0.53574308
   0.00000000  0.00000000  0.60441746
   0.33333300  0.66666700  0.63873937
   0.00000000  0.00000000  0.70726777
   0.33333300  0.66666700  0.74126373
   0.66666700  0.33333300  0.46705032
   0.66666700  0.33333300  0.57008775
   0.66666700  0.33333300  0.67303948
   0.66666700  0.33333300  0.77369142
   0.00000000  0.00000000  0.45095660
   0.00000000  0.00000000  0.55396530
   0.00000000  0.00000000  0.65693850
   0.00000000  0.00000000  0.76051145
   0.66666700  0.33333300  0.51962637
   0.66666700  0.33333300  0.62263103
   0.66666700  0.33333300  0.72557620
   0.33333300  0.66666700  0.48529017
   0.33333300  0.66666700  0.58831182
   0.33333300  0.66666700  0.69122093
 
 position of ions in cartesian coordinates  (Angst):
   0.86414036  1.49673776 31.01150719
   0.00000000  0.00000000 35.98714628
   0.86414036  1.49673776 38.45115674
   0.00000000  0.00000000 43.38002956
   0.86414036  1.49673776 45.84336925
   0.00000000  0.00000000 50.76176454
   0.86414036  1.49673776 53.20171017
   1.72828331 -0.00000150 33.52096494
   1.72828331 -0.00000150 40.91612968
   1.72828331 -0.00000150 48.30514377
   1.72828331 -0.00000150 55.52909790
   0.00000000  0.00000000 32.36589265
   0.00000000  0.00000000 39.75899565
   0.00000000  0.00000000 47.14955041
   0.00000000  0.00000000 54.58315057
   1.72828331 -0.00000150 37.29443402
   1.72828331 -0.00000150 44.68724732
   1.72828331 -0.00000150 52.07579041
   0.86414036  1.49673776 34.83006901
   0.86414036  1.49673776 42.22410089
   0.86414036  1.49673776 49.61005646
 


--------------------------------------------------------------------------------------------------------


 k-point  1 :   0.0000 0.0000 0.0000  plane waves:   12033
 k-point  2 :   0.0769 0.0000 0.0000  plane waves:   11989
 k-point  3 :   0.1538 0.0000 0.0000  plane waves:   11949
 k-point  4 :   0.2308 0.0000 0.0000  plane waves:   12057
 k-point  5 :   0.3077 0.0000 0.0000  plane waves:   12091
 k-point  6 :   0.3846 0.0000 0.0000  plane waves:   12151
 k-point  7 :   0.4615 0.0000 0.0000  plane waves:   12159
 k-point  8 :   0.0769 0.0769 0.0000  plane waves:   11971
 k-point  9 :   0.1538 0.0769 0.0000  plane waves:   12022
 k-point 10 :   0.2308 0.0769 0.0000  plane waves:   12088
 k-point 11 :   0.3077 0.0769 0.0000  plane waves:   12122
 k-point 12 :   0.3846 0.0769 0.0000  plane waves:   12119
 k-point 13 :   0.4615 0.0769 0.0000  plane waves:   12096
 k-point 14 :   0.1538 0.1538-0.0000  plane waves:   12041
 k-point 15 :   0.2308 0.1538 0.0000  plane waves:   12060
 k-point 16 :   0.3077 0.1538 0.0000  plane waves:   12105
 k-point 17 :   0.3846 0.1538 0.0000  plane waves:   12119
 k-point 18 :   0.2308 0.2308 0.0000  plane waves:   12075
 k-point 19 :   0.3077 0.2308-0.0000  plane waves:   12076
 k-point 20 :   0.3846 0.2308 0.0000  plane waves:   12061
 k-point 21 :   0.3077 0.3077 0.0000  plane waves:   12039

 maximum and minimum number of plane-waves per node :      3093     2972

 maximum number of plane-waves:     12159
 maximum index in each direction: 
   IXMAX=    5   IYMAX=    5   IZMAX=  124
   IXMIN=   -5   IYMIN=   -5   IZMIN= -124


 parallel 3D FFT for wavefunctions:
    minimum data exchange during FFTs selected (reduces bandwidth)
 parallel 3D FFT for charge:
    minimum data exchange during FFTs selected (reduces bandwidth)


 total amount of memory used by VASP MPI-rank0    90196. kBytes
=======================================================================

   base      :      30000. kBytes
   nonl-proj :      14276. kBytes
   fftplans  :      22144. kBytes
   grid      :      12271. kBytes
   one-center:         48. kBytes
   wavefun   :      11457. kBytes
 
     INWAV:  cpu time    0.0001: real time    0.0002
 Broyden mixing: mesh for mixing (old mesh)
   NGX = 11   NGY = 11   NGZ =249
  (NGX  = 48   NGY  = 48   NGZ  =***)
  gives a total of  30129 points

 initial charge density was supplied:
 charge density of overlapping atoms calculated
 number of electron      86.0000000 magnetization 
 keeping initial charge density in first step


--------------------------------------------------------------------------------------------------------


 Maximum index for augmentation-charges        10156 (set IRDMAX)


--------------------------------------------------------------------------------------------------------


 First call to EWALD:  gamma=   0.215
 Maximum number of real-space cells 8x 8x 1
 Maximum number of reciprocal cells 1x 1x20

    FEWALD:  cpu time    0.0015: real time    0.0015


--------------------------------------- Iteration      1(   1)  ---------------------------------------


    POTLOK:  cpu time    0.0822: real time    0.0824
    SETDIJ:  cpu time    0.1540: real time    0.1542
     EDDAV:  cpu time    5.2736: real time    5.2856
       DOS:  cpu time    0.0011: real time    0.0016
    --------------------------------------------
      LOOP:  cpu time    5.5110: real time    5.5239

 eigenvalue-minimisations  :  2530
 total energy-change (2. order) : 0.7470314E+03  (-0.3430811E+04)
 number of electron      86.0000000 magnetization 
 augmentation part       86.0000000 magnetization 

 Free energy of the ion-electron system (eV)
  ---------------------------------------------------
  alpha Z        PSCENC =        74.08069268
  Ewald energy   TEWEN  =    202417.10423170
  -Hartree energ DENC   =   -206800.59947538
  -exchange      EXHF   =         0.00000000
  -V(xc)+E(xc)   XCENC  =      -179.09638147
  PAW double counting   =      4465.11119848    -3966.26921048
  entropy T*S    EENTRO =        -0.00352750
  eigenvalues    EBANDS =      -249.40276811
  atomic energy  EATOM  =      4986.10668202
  Solvation  Ediel_sol  =         0.00000000
  ---------------------------------------------------
  free energy    TOTEN  =       747.03144193 eV

  energy without entropy =      747.03496943  energy(sigma->0) =      747.03320568


--------------------------------------------------------------------------------------------------------




--------------------------------------- Iteration      1(   2)  ---------------------------------------


     EDDAV:  cpu time    5.7861: real time    5.7964
       DOS:  cpu time    0.0017: real time    0.0019
    --------------------------------------------
      LOOP:  cpu time    5.7878: real time    5.7984

 eigenvalue-minimisations  :  3160
 total energy-change (2. order) :-0.7617457E+03  (-0.7432048E+03)
 number of electron      86.0000000 magnetization 
 augmentation part       86.0000000 magnetization 

 Free energy of the ion-electron system (eV)
  ---------------------------------------------------
  alpha Z        PSCENC =        74.08069268
  Ewald energy   TEWEN  =    202417.10423170
  -Hartree energ DENC   =   -206800.59947538
  -exchange      EXHF   =         0.00000000
  -V(xc)+E(xc)   XCENC  =      -179.09638147
  PAW double counting   =      4465.11119848    -3966.26921048
  entropy T*S    EENTRO =        -0.00187633
  eigenvalues    EBANDS =     -1011.15007651
  atomic energy  EATOM  =      4986.10668202
  Solvation  Ediel_sol  =         0.00000000
  ---------------------------------------------------
  free energy    TOTEN  =       -14.71421529 eV

  energy without entropy =      -14.71233896  energy(sigma->0) =      -14.71327713


--------------------------------------------------------------------------------------------------------




--------------------------------------- Iteration      1(   3)  ---------------------------------------


     EDDAV:  cpu time    5.0536: real time    5.0656
       DOS:  cpu time    0.0010: real time    0.0808
    --------------------------------------------
      LOOP:  cpu time    5.0546: real time    5.1464

 eigenvalue-minimisations  :  2580
 total energy-change (2. order) :-0.1180891E+03  (-0.1167843E+03)
 number of electron      86.0000000 magnetization 
 augmentation part       86.0000000 magnetization 

 Free energy of the ion-electron system (eV)
  ---------------------------------------------------
  alpha Z        PSCENC =        74.08069268
  Ewald energy   TEWEN  =    202417.10423170
  -Hartree energ DENC   =   -206800.59947538
  -exchange      EXHF   =         0.00000000
  -V(xc)+E(xc)   XCENC  =      -179.09638147
  PAW double counting   =      4465.11119848    -3966.26921048
  entropy T*S    EENTRO =        -0.00463284
  eigenvalues    EBANDS =     -1129.23638194
  atomic energy  EATOM  =      4986.10668202
  Solvation  Ediel_sol  =         0.00000000
  ---------------------------------------------------
  free energy    TOTEN  =      -132.80327723 eV

  energy without entropy =     -132.79864439  energy(sigma->0) =     -132.80096081


--------------------------------------------------------------------------------------------------------




--------------------------------------- Iteration      1(   4)  ---------------------------------------


     EDDAV:  cpu time    5.3228: real time    5.3326
       DOS:  cpu time    0.0009: real time    0.0012
    --------------------------------------------
      LOOP:  cpu time    5.3237: real time    5.3338

 eigenvalue-minimisations  :  2865
 total energy-change (2. order) :-0.2795402E+01  (-0.2785894E+01)
 number of electron      86.0000000 magnetization 
 augmentation part       86.0000000 magnetization 

 Free energy of the ion-electron system (eV)
  ---------------------------------------------------
  alpha Z        PSCENC =        74.08069268
  Ewald energy   TEWEN  =    202417.10423170
  -Hartree energ DENC   =   -206800.59947538
  -exchange      EXHF   =         0.00000000
  -V(xc)+E(xc)   XCENC  =      -179.09638147
  PAW double counting   =      4465.11119848    -3966.26921048
  entropy T*S    EENTRO =        -0.00505923
  eigenvalues    EBANDS =     -1132.03135738
  atomic energy  EATOM  =      4986.10668202
  Solvation  Ediel_sol  =         0.00000000
  ---------------------------------------------------
  free energy    TOTEN  =      -135.59867907 eV

  energy without entropy =     -135.59361984  energy(sigma->0) =     -135.59614946


--------------------------------------------------------------------------------------------------------




--------------------------------------- Iteration      1(   5)  ---------------------------------------


     EDDAV:  cpu time    5.4195: real time    5.4332
       DOS:  cpu time    0.0010: real time    0.0010
    CHARGE:  cpu time    0.4238: real time    0.4243
    MIXING:  cpu time    0.0060: real time    0.0060
    --------------------------------------------
      LOOP:  cpu time    5.8504: real time    5.8647

 eigenvalue-minimisations  :  2860
 total energy-change (2. order) :-0.5662716E-01  (-0.5658957E-01)
 number of electron      86.0000000 magnetization 
 augmentation part        8.5060911 magnetization 

 Broyden mixing:
  rms(total) = 0.24308E+01    rms(broyden)= 0.24294E+01
  rms(prec ) = 0.24995E+01
  weight for this iteration     100.00

 Free energy of the ion-electron system (eV)
  ---------------------------------------------------
  alpha Z        PSCENC =        74.08069268
  Ewald energy   TEWEN  =    202417.10423170
  -Hartree energ DENC   =   -206800.59947538
  -exchange      EXHF   =         0.00000000
  -V(xc)+E(xc)   XCENC  =      -179.09638147
  PAW double counting   =      4465.11119848    -3966.26921048
  entropy T*S    EENTRO =        -0.00505954
  eigenvalues    EBANDS =     -1132.08798424
  atomic energy  EATOM  =      4986.10668202
  Solvation  Ediel_sol  =         0.00000000
  ---------------------------------------------------
  free energy    TOTEN  =      -135.65530623 eV

  energy without entropy =     -135.65024669  energy(sigma->0) =     -135.65277646


--------------------------------------------------------------------------------------------------------




--------------------------------------- Iteration      1(   6)  ---------------------------------------


    POTLOK:  cpu time    0.0906: real time    0.0908
    SETDIJ:  cpu time    0.1493: real time    0.1495
     EDDAV:  cpu time    5.2156: real time    5.2289
       DOS:  cpu time    0.0011: real time    0.0015
    CHARGE:  cpu time    0.4579: real time    0.4584
    MIXING:  cpu time    0.0444: real time    0.0444
    --------------------------------------------
      LOOP:  cpu time    5.9589: real time    5.9736

 eigenvalue-minimisations  :  2800
 total energy-change (2. order) : 0.3987687E+01  (-0.2513939E+02)
 number of electron      86.0000000 magnetization 
 augmentation part        7.1939070 magnetization 

 Broyden mixing:
  rms(total) = 0.18785E+01    rms(broyden)= 0.18769E+01
  rms(prec ) = 0.19955E+01
  weight for this iteration     100.00

 eigenvalues of (default mixing * dielectric matrix)
  average eigenvalue GAMMA=   0.5928
  0.5928

 Free energy of the ion-electron system (eV)
  ---------------------------------------------------
  alpha Z        PSCENC =        74.08069268
  Ewald energy   TEWEN  =    202417.10423170
  -Hartree energ DENC   =   -206989.30360788
  -exchange      EXHF   =         0.00000000
  -V(xc)+E(xc)   XCENC  =      -166.01409576
  PAW double counting   =      5197.52220774    -4702.11969594
  entropy T*S    EENTRO =        -0.01067010
  eigenvalues    EBANDS =      -949.03336409
  atomic energy  EATOM  =      4986.10668202
  Solvation  Ediel_sol  =         0.00000000
  ---------------------------------------------------
  free energy    TOTEN  =      -131.66761962 eV

  energy without entropy =     -131.65694953  energy(sigma->0) =     -131.66228457


--------------------------------------------------------------------------------------------------------




--------------------------------------- Iteration      1(   7)  ---------------------------------------


    POTLOK:  cpu time    0.1255: real time    0.1267
    SETDIJ:  cpu time    0.1692: real time    0.1697
     EDDAV:  cpu time    5.6802: real time    5.7148
       DOS:  cpu time    0.0008: real time    0.0008
    CHARGE:  cpu time    0.4133: real time    0.4137
    MIXING:  cpu time    0.0066: real time    0.0066
    --------------------------------------------
      LOOP:  cpu time    6.3955: real time    6.4322

 eigenvalue-minimisations  :  2825
 total energy-change (2. order) : 0.1097464E+02  (-0.3429364E+01)
 number of electron      86.0000000 magnetization 
 augmentation part        7.1320857 magnetization 

 Broyden mixing:
  rms(total) = 0.10596E+01    rms(broyden)= 0.10590E+01
  rms(prec ) = 0.11130E+01
  weight for this iteration     100.00

 eigenvalues of (default mixing * dielectric matrix)
  average eigenvalue GAMMA=   0.5644
  0.5644  0.5644

 Free energy of the ion-electron system (eV)
  ---------------------------------------------------
  alpha Z        PSCENC =        74.08069268
  Ewald energy   TEWEN  =    202417.10423170
  -Hartree energ DENC   =   -206993.75123810
  -exchange      EXHF   =         0.00000000
  -V(xc)+E(xc)   XCENC  =      -165.45417088
  PAW double counting   =      5352.17141516    -4856.58766586
  entropy T*S    EENTRO =        -0.01095561
  eigenvalues    EBANDS =      -934.35196775
  atomic energy  EATOM  =      4986.10668202
  Solvation  Ediel_sol  =         0.00000000
  ---------------------------------------------------
  free energy    TOTEN  =      -120.69297664 eV

  energy without entropy =     -120.68202103  energy(sigma->0) =     -120.68749883


--------------------------------------------------------------------------------------------------------




--------------------------------------- Iteration      1(   8)  ---------------------------------------


    POTLOK:  cpu time    0.0924: real time    0.0926
    SETDIJ:  cpu time    0.1335: real time    0.1337
     EDDAV:  cpu time    5.8049: real time    5.8175
       DOS:  cpu time    0.0009: real time    0.0009
    CHARGE:  cpu time    0.4098: real time    0.4102
    MIXING:  cpu time    0.0101: real time    0.0101
    --------------------------------------------
      LOOP:  cpu time    6.4515: real time    6.4650

 eigenvalue-minimisations  :  3200
 total energy-change (2. order) : 0.3224185E-01  (-0.2186698E+01)
 number of electron      86.0000000 magnetization 
 augmentation part        7.1250168 magnetization 

 Broyden mixing:
  rms(total) = 0.76577E+00    rms(broyden)= 0.76466E+00
  rms(prec ) = 0.80491E+00
  weight for this iteration     100.00

 eigenvalues of (default mixing * dielectric matrix)
  average eigenvalue GAMMA=   0.5610
  0.7961  0.4434  0.4434

 Free energy of the ion-electron system (eV)
  ---------------------------------------------------
  alpha Z        PSCENC =        74.08069268
  Ewald energy   TEWEN  =    202417.10423170
  -Hartree energ DENC   =   -206985.21988352
  -exchange      EXHF   =         0.00000000
  -V(xc)+E(xc)   XCENC  =      -165.18808336
  PAW double counting   =      5451.40954890    -4955.70376312
  entropy T*S    EENTRO =        -0.00529267
  eigenvalues    EBANDS =      -943.24486741
  atomic energy  EATOM  =      4986.10668202
  Solvation  Ediel_sol  =         0.00000000
  ---------------------------------------------------
  free energy    TOTEN  =      -120.66073478 eV

  energy without entropy =     -120.65544211  energy(sigma->0) =     -120.65808845


--------------------------------------------------------------------------------------------------------




--------------------------------------- Iteration      1(   9)  ---------------------------------------


    POTLOK:  cpu time    0.0912: real time    0.0915
    SETDIJ:  cpu time    0.1464: real time    0.1466
     EDDAV:  cpu time    5.2789: real time    5.2882
       DOS:  cpu time    0.0010: real time    0.0016
    CHARGE:  cpu time    0.4080: real time    0.4086
    MIXING:  cpu time    0.0051: real time    0.0051
    --------------------------------------------
      LOOP:  cpu time    5.9306: real time    5.9415

 eigenvalue-minimisations  :  2820
 total energy-change (2. order) :-0.5966782E+00  (-0.1576080E+01)
 number of electron      86.0000000 magnetization 
 augmentation part        7.1670423 magnetization 

 Broyden mixing:
  rms(total) = 0.10967E+01    rms(broyden)= 0.10954E+01
  rms(prec ) = 0.12456E+01
  weight for this iteration     100.00

 eigenvalues of (default mixing * dielectric matrix)
  average eigenvalue GAMMA=   0.7148
  1.1000  1.1000  0.3295  0.3295

 Free energy of the ion-electron system (eV)
  ---------------------------------------------------
  alpha Z        PSCENC =        74.08069268
  Ewald energy   TEWEN  =    202417.10423170
  -Hartree energ DENC   =   -206988.59493119
  -exchange      EXHF   =         0.00000000
  -V(xc)+E(xc)   XCENC  =      -164.95152580
  PAW double counting   =      5547.69936481    -5051.88290334
  entropy T*S    EENTRO =        -0.01478018
  eigenvalues    EBANDS =      -940.80424369
  atomic energy  EATOM  =      4986.10668202
  Solvation  Ediel_sol  =         0.00000000
  ---------------------------------------------------
  free energy    TOTEN  =      -121.25741298 eV

  energy without entropy =     -121.24263280  energy(sigma->0) =     -121.25002289


--------------------------------------------------------------------------------------------------------




--------------------------------------- Iteration      1(  10)  ---------------------------------------


    POTLOK:  cpu time    0.1040: real time    0.1081
    SETDIJ:  cpu time    0.1617: real time    0.1632
     EDDAV:  cpu time    5.8222: real time    5.8564
       DOS:  cpu time    0.0009: real time    0.0008
    CHARGE:  cpu time    0.4123: real time    0.4127
    MIXING:  cpu time    0.0092: real time    0.0092
    --------------------------------------------
      LOOP:  cpu time    6.5102: real time    6.5505

 eigenvalue-minimisations  :  3135
 total energy-change (2. order) :-0.1075888E+01  (-0.5062322E+01)
 number of electron      86.0000000 magnetization 
 augmentation part        7.1635740 magnetization 

 Broyden mixing:
  rms(total) = 0.94126E+00    rms(broyden)= 0.94048E+00
  rms(prec ) = 0.10742E+01
  weight for this iteration     100.00

 eigenvalues of (default mixing * dielectric matrix)
  average eigenvalue GAMMA=   0.6936
  1.1175  1.1175  0.6547  0.2891  0.2891

 Free energy of the ion-electron system (eV)
  ---------------------------------------------------
  alpha Z        PSCENC =        74.08069268
  Ewald energy   TEWEN  =    202417.10423170
  -Hartree energ DENC   =   -206986.81563529
  -exchange      EXHF   =         0.00000000
  -V(xc)+E(xc)   XCENC  =      -164.66403341
  PAW double counting   =      5641.13208509    -5145.23934123
  entropy T*S    EENTRO =        -0.01030184
  eigenvalues    EBANDS =      -944.02768046
  atomic energy  EATOM  =      4986.10668202
  Solvation  Ediel_sol  =         0.00000000
  ---------------------------------------------------
  free energy    TOTEN  =      -122.33330072 eV

  energy without entropy =     -122.32299888  energy(sigma->0) =     -122.32814980


--------------------------------------------------------------------------------------------------------




--------------------------------------- Iteration      1(  11)  ---------------------------------------


    POTLOK:  cpu time    0.0904: real time    0.0920
    SETDIJ:  cpu time    0.1457: real time    0.1467
     EDDAV:  cpu time    5.4854: real time    5.4957
       DOS:  cpu time    0.0009: real time    0.0009
    CHARGE:  cpu time    0.3766: real time    0.3771
    MIXING:  cpu time    0.0068: real time    0.0069
    --------------------------------------------
      LOOP:  cpu time    6.1059: real time    6.1193

 eigenvalue-minimisations  :  2920
 total energy-change (2. order) : 0.1491063E+01  (-0.6391593E-01)
 number of electron      86.0000000 magnetization 
 augmentation part        7.1518160 magnetization 

 Broyden mixing:
  rms(total) = 0.81861E+00    rms(broyden)= 0.81855E+00
  rms(prec ) = 0.96492E+00
  weight for this iteration     100.00

 eigenvalues of (default mixing * dielectric matrix)
  average eigenvalue GAMMA=   0.9194
  2.2993  1.0414  0.8029  0.8029  0.2849  0.2849

 Free energy of the ion-electron system (eV)
  ---------------------------------------------------
  alpha Z        PSCENC =        74.08069268
  Ewald energy   TEWEN  =    202417.10423170
  -Hartree energ DENC   =   -206994.35547930
  -exchange      EXHF   =         0.00000000
  -V(xc)+E(xc)   XCENC  =      -164.18516059
  PAW double counting   =      5729.13137277    -5233.21841116
  entropy T*S    EENTRO =        -0.01400705
  eigenvalues    EBANDS =      -935.49215908
  atomic energy  EATOM  =      4986.10668202
  Solvation  Ediel_sol  =         0.00000000
  ---------------------------------------------------
  free energy    TOTEN  =      -120.84223802 eV

  energy without entropy =     -120.82823097  energy(sigma->0) =     -120.83523449


--------------------------------------------------------------------------------------------------------




--------------------------------------- Iteration      1(  12)  ---------------------------------------


    POTLOK:  cpu time    0.0731: real time    0.0732
    SETDIJ:  cpu time    0.1188: real time    0.1190
     EDDAV:  cpu time    6.3266: real time    6.3383
       DOS:  cpu time    0.0008: real time    0.0008
    CHARGE:  cpu time    0.4159: real time    0.4165
    MIXING:  cpu time    0.0093: real time    0.0094
    --------------------------------------------
      LOOP:  cpu time    6.9446: real time    6.9572

 eigenvalue-minimisations  :  3390
 total energy-change (2. order) : 0.8028693E+00  (-0.1107416E+00)
 number of electron      86.0000000 magnetization 
 augmentation part        7.1595617 magnetization 

 Broyden mixing:
  rms(total) = 0.48024E+00    rms(broyden)= 0.47977E+00
  rms(prec ) = 0.50834E+00
  weight for this iteration     100.00

 eigenvalues of (default mixing * dielectric matrix)
  average eigenvalue GAMMA=   0.8793
  2.4918  0.7169  0.7169  0.9017  0.7642  0.2818  0.2818

 Free energy of the ion-electron system (eV)
  ---------------------------------------------------
  alpha Z        PSCENC =        74.08069268
  Ewald energy   TEWEN  =    202417.10423170
  -Hartree energ DENC   =   -207000.42932578
  -exchange      EXHF   =         0.00000000
  -V(xc)+E(xc)   XCENC  =      -163.73980080
  PAW double counting   =      5829.70567579    -5333.72525418
  entropy T*S    EENTRO =        -0.00967520
  eigenvalues    EBANDS =      -929.13259496
  atomic energy  EATOM  =      4986.10668202
  Solvation  Ediel_sol  =         0.00000000
  ---------------------------------------------------
  free energy    TOTEN  =      -120.03936873 eV

  energy without entropy =     -120.02969353  energy(sigma->0) =     -120.03453113


--------------------------------------------------------------------------------------------------------




--------------------------------------- Iteration      1(  13)  ---------------------------------------


    POTLOK:  cpu time    0.0884: real time    0.0887
    SETDIJ:  cpu time    0.1493: real time    0.1495
     EDDAV:  cpu time    5.8923: real time    5.9278
       DOS:  cpu time    0.0009: real time    0.0009
    CHARGE:  cpu time    0.4172: real time    0.4177
    MIXING:  cpu time    0.0083: real time    0.0083
    --------------------------------------------
      LOOP:  cpu time    6.5565: real time    6.5929

 eigenvalue-minimisations  :  3220
 total energy-change (2. order) :-0.2194886E+00  (-0.4613756E+00)
 number of electron      86.0000000 magnetization 
 augmentation part        7.1570294 magnetization 

 Broyden mixing:
  rms(total) = 0.74736E+00    rms(broyden)= 0.74717E+00
  rms(prec ) = 0.90270E+00
  weight for this iteration     100.00

 eigenvalues of (default mixing * dielectric matrix)
  average eigenvalue GAMMA=   0.8881
  2.5328  0.8932  0.8932  0.9541  0.6369  0.6369  0.2787  0.2787

 Free energy of the ion-electron system (eV)
  ---------------------------------------------------
  alpha Z        PSCENC =        74.08069268
  Ewald energy   TEWEN  =    202417.10423170
  -Hartree energ DENC   =   -206998.42427249
  -exchange      EXHF   =         0.00000000
  -V(xc)+E(xc)   XCENC  =      -163.57079939
  PAW double counting   =      5851.33490711    -5355.34078433
  entropy T*S    EENTRO =        -0.01560087
  eigenvalues    EBANDS =      -931.53391375
  atomic energy  EATOM  =      4986.10668202
  Solvation  Ediel_sol  =         0.00000000
  ---------------------------------------------------
  free energy    TOTEN  =      -120.25885730 eV

  energy without entropy =     -120.24325644  energy(sigma->0) =     -120.25105687


--------------------------------------------------------------------------------------------------------




--------------------------------------- Iteration      1(  14)  ---------------------------------------


    POTLOK:  cpu time    0.0911: real time    0.0913
    SETDIJ:  cpu time    0.1503: real time    0.1506
     EDDAV:  cpu time    5.2080: real time    5.2187
       DOS:  cpu time    0.0009: real time    0.0009
    CHARGE:  cpu time    0.4306: real time    0.4313
    MIXING:  cpu time    0.0055: real time    0.0055
    --------------------------------------------
      LOOP:  cpu time    5.8863: real time    5.8982

 eigenvalue-minimisations  :  2730
 total energy-change (2. order) : 0.3665593E+00  (-0.8854265E-01)
 number of electron      86.0000000 magnetization 
 augmentation part        7.1502491 magnetization 

 Broyden mixing:
  rms(total) = 0.27383E+00    rms(broyden)= 0.27237E+00
  rms(prec ) = 0.27794E+00
  weight for this iteration     100.00

 eigenvalues of (default mixing * dielectric matrix)
  average eigenvalue GAMMA=   0.7925
  2.5272  0.8961  0.8961  0.9552  0.6115  0.6115  0.2783  0.2783  0.0781

 Free energy of the ion-electron system (eV)
  ---------------------------------------------------
  alpha Z        PSCENC =        74.08069268
  Ewald energy   TEWEN  =    202417.10423170
  -Hartree energ DENC   =   -206998.54452009
  -exchange      EXHF   =         0.00000000
  -V(xc)+E(xc)   XCENC  =      -163.53621690
  PAW double counting   =      5846.72703851    -5350.73369473
  entropy T*S    EENTRO =        -0.00866852
  eigenvalues    EBANDS =      -931.08784264
  atomic energy  EATOM  =      4986.10668202
  Solvation  Ediel_sol  =         0.00000000
  ---------------------------------------------------
  free energy    TOTEN  =      -119.89229798 eV

  energy without entropy =     -119.88362946  energy(sigma->0) =     -119.88796372


--------------------------------------------------------------------------------------------------------




--------------------------------------- Iteration      1(  15)  ---------------------------------------


    POTLOK:  cpu time    0.0944: real time    0.0946
    SETDIJ:  cpu time    0.1499: real time    0.1512
     EDDAV:  cpu time    5.0427: real time    5.0512
       DOS:  cpu time    0.0010: real time    0.0018
    CHARGE:  cpu time    0.4087: real time    0.4097
    MIXING:  cpu time    0.0078: real time    0.0078
    --------------------------------------------
      LOOP:  cpu time    5.7045: real time    5.7163

 eigenvalue-minimisations  :  2625
 total energy-change (2. order) :-0.1423556E-01  (-0.5228816E-02)
 number of electron      86.0000000 magnetization 
 augmentation part        7.1494713 magnetization 

 Broyden mixing:
  rms(total) = 0.40902E+00    rms(broyden)= 0.40888E+00
  rms(prec ) = 0.47026E+00
  weight for this iteration     100.00

 eigenvalues of (default mixing * dielectric matrix)
  average eigenvalue GAMMA=   0.7645
  2.5480  0.9997  0.9997  0.8656  0.7400  0.4901  0.2719  0.2719  0.2290  0.2290

 Free energy of the ion-electron system (eV)
  ---------------------------------------------------
  alpha Z        PSCENC =        74.08069268
  Ewald energy   TEWEN  =    202417.10423170
  -Hartree energ DENC   =   -206998.62231104
  -exchange      EXHF   =         0.00000000
  -V(xc)+E(xc)   XCENC  =      -163.53093924
  PAW double counting   =      5846.72611989    -5350.73280479
  entropy T*S    EENTRO =        -0.00810025
  eigenvalues    EBANDS =      -931.03010452
  atomic energy  EATOM  =      4986.10668202
  Solvation  Ediel_sol  =         0.00000000
  ---------------------------------------------------
  free energy    TOTEN  =      -119.90653354 eV

  energy without entropy =     -119.89843329  energy(sigma->0) =     -119.90248342


--------------------------------------------------------------------------------------------------------




--------------------------------------- Iteration      1(  16)  ---------------------------------------


    POTLOK:  cpu time    0.0950: real time    0.0988
    SETDIJ:  cpu time    0.1478: real time    0.1488
     EDDAV:  cpu time    5.3062: real time    5.3209
       DOS:  cpu time    0.0010: real time    0.0010
    CHARGE:  cpu time    0.4182: real time    0.4188
    MIXING:  cpu time    0.0083: real time    0.0083
    --------------------------------------------
      LOOP:  cpu time    5.9765: real time    5.9966

 eigenvalue-minimisations  :  2720
 total energy-change (2. order) :-0.2086190E-02  (-0.7366095E-03)
 number of electron      86.0000000 magnetization 
 augmentation part        7.1491359 magnetization 

 Broyden mixing:
  rms(total) = 0.44411E+00    rms(broyden)= 0.44407E+00
  rms(prec ) = 0.52560E+00
  weight for this iteration     100.00

 eigenvalues of (default mixing * dielectric matrix)
  average eigenvalue GAMMA=   0.8075
  2.5091  1.1724  1.1724  0.9737  0.6370  0.6370  0.6217  0.2805  0.2805  0.3957
  0.2027

 Free energy of the ion-electron system (eV)
  ---------------------------------------------------
  alpha Z        PSCENC =        74.08069268
  Ewald energy   TEWEN  =    202417.10423170
  -Hartree energ DENC   =   -206998.72469735
  -exchange      EXHF   =         0.00000000
  -V(xc)+E(xc)   XCENC  =      -163.51036579
  PAW double counting   =      5845.33138312    -5349.34035301
  entropy T*S    EENTRO =        -0.01459921
  eigenvalues    EBANDS =      -930.94159390
  atomic energy  EATOM  =      4986.10668202
  Solvation  Ediel_sol  =         0.00000000
  ---------------------------------------------------
  free energy    TOTEN  =      -119.90861973 eV

  energy without entropy =     -119.89402053  energy(sigma->0) =     -119.90132013


--------------------------------------------------------------------------------------------------------




--------------------------------------- Iteration      1(  17)  ---------------------------------------


    POTLOK:  cpu time    0.0932: real time    0.0933
    SETDIJ:  cpu time    0.1666: real time    0.1781
     EDDAV:  cpu time    6.8433: real time    6.8695
       DOS:  cpu time    0.0010: real time    0.0010
    CHARGE:  cpu time    0.4150: real time    0.4155
    MIXING:  cpu time    0.0048: real time    0.0048
    --------------------------------------------
      LOOP:  cpu time    7.5239: real time    7.5623

 eigenvalue-minimisations  :  3410
 total energy-change (2. order) : 0.8100998E-02  (-0.1955183E+00)
 number of electron      86.0000000 magnetization 
 augmentation part        7.1568181 magnetization 

 Broyden mixing:
  rms(total) = 0.44177E+00    rms(broyden)= 0.44061E+00
  rms(prec ) = 0.52344E+00
  weight for this iteration     100.00

 eigenvalues of (default mixing * dielectric matrix)
  average eigenvalue GAMMA=   0.8304
  2.3512  2.3512  0.8575  0.8575  0.9395  0.6559  0.4836  0.4836  0.2823  0.2823
  0.2097  0.2097

 Free energy of the ion-electron system (eV)
  ---------------------------------------------------
  alpha Z        PSCENC =        74.08069268
  Ewald energy   TEWEN  =    202417.10423170
  -Hartree energ DENC   =   -206998.66863424
  -exchange      EXHF   =         0.00000000
  -V(xc)+E(xc)   XCENC  =      -163.52105893
  PAW double counting   =      5836.85734528    -5340.86565710
  entropy T*S    EENTRO =        -0.02359279
  eigenvalues    EBANDS =      -930.97052736
  atomic energy  EATOM  =      4986.10668202
  Solvation  Ediel_sol  =         0.00000000
  ---------------------------------------------------
  free energy    TOTEN  =      -119.90051874 eV

  energy without entropy =     -119.87692595  energy(sigma->0) =     -119.88872234


--------------------------------------------------------------------------------------------------------




--------------------------------------- Iteration      1(  18)  ---------------------------------------


    POTLOK:  cpu time    0.0939: real time    0.0941
    SETDIJ:  cpu time    0.1619: real time    0.1621
     EDDAV:  cpu time    5.5362: real time    5.5463
       DOS:  cpu time    0.0009: real time    0.0009
    CHARGE:  cpu time    0.4099: real time    0.4106
    MIXING:  cpu time    0.0088: real time    0.0088
    --------------------------------------------
      LOOP:  cpu time    6.2117: real time    6.2228

 eigenvalue-minimisations  :  2940
 total energy-change (2. order) :-0.8196251E-01  (-0.6504045E-02)
 number of electron      86.0000000 magnetization 
 augmentation part        7.1608924 magnetization 

 Broyden mixing:
  rms(total) = 0.63486E+00    rms(broyden)= 0.63449E+00
  rms(prec ) = 0.75308E+00
  weight for this iteration     100.00

 eigenvalues of (default mixing * dielectric matrix)
  average eigenvalue GAMMA=   0.7977
  2.4483  2.1626  0.7993  0.7993  0.9045  0.7688  0.4847  0.4847  0.4376  0.2808
  0.2808  0.2592  0.2592

 Free energy of the ion-electron system (eV)
  ---------------------------------------------------
  alpha Z        PSCENC =        74.08069268
  Ewald energy   TEWEN  =    202417.10423170
  -Hartree energ DENC   =   -206999.04779624
  -exchange      EXHF   =         0.00000000
  -V(xc)+E(xc)   XCENC  =      -163.51459518
  PAW double counting   =      5828.79273857    -5332.80386745
  entropy T*S    EENTRO =        -0.02652207
  eigenvalues    EBANDS =      -930.67404530
  atomic energy  EATOM  =      4986.10668202
  Solvation  Ediel_sol  =         0.00000000
  ---------------------------------------------------
  free energy    TOTEN  =      -119.98248124 eV

  energy without entropy =     -119.95595918  energy(sigma->0) =     -119.96922021


--------------------------------------------------------------------------------------------------------




--------------------------------------- Iteration      1(  19)  ---------------------------------------


    POTLOK:  cpu time    0.0907: real time    0.0910
    SETDIJ:  cpu time    0.1481: real time    0.1483
     EDDAV:  cpu time    5.3447: real time    5.3546
       DOS:  cpu time    0.0009: real time    0.0009
    CHARGE:  cpu time    0.4149: real time    0.4157
    MIXING:  cpu time    0.0100: real time    0.0100
    --------------------------------------------
      LOOP:  cpu time    6.0093: real time    6.0204

 eigenvalue-minimisations  :  2740
 total energy-change (2. order) : 0.4943585E-01  (-0.7343654E-03)
 number of electron      86.0000000 magnetization 
 augmentation part        7.1573357 magnetization 

 Broyden mixing:
  rms(total) = 0.51022E+00    rms(broyden)= 0.51020E+00
  rms(prec ) = 0.60804E+00
  weight for this iteration     100.00

 eigenvalues of (default mixing * dielectric matrix)
  average eigenvalue GAMMA=   0.7989
  2.4543  2.1252  0.9020  0.9020  0.7272  0.7272  0.6963  0.6963  0.4666  0.4666
  0.2807  0.2807  0.2294  0.2294

 Free energy of the ion-electron system (eV)
  ---------------------------------------------------
  alpha Z        PSCENC =        74.08069268
  Ewald energy   TEWEN  =    202417.10423170
  -Hartree energ DENC   =   -206999.27938081
  -exchange      EXHF   =         0.00000000
  -V(xc)+E(xc)   XCENC  =      -163.50255549
  PAW double counting   =      5828.41147350    -5332.42342868
  entropy T*S    EENTRO =        -0.02546041
  eigenvalues    EBANDS =      -930.40529991
  atomic energy  EATOM  =      4986.10668202
  Solvation  Ediel_sol  =         0.00000000
  ---------------------------------------------------
  free energy    TOTEN  =      -119.93304539 eV

  energy without entropy =     -119.90758498  energy(sigma->0) =     -119.92031519


--------------------------------------------------------------------------------------------------------




--------------------------------------- Iteration      1(  20)  ---------------------------------------


    POTLOK:  cpu time    0.0935: real time    0.0937
    SETDIJ:  cpu time    0.1448: real time    0.1451
     EDDAV:  cpu time    6.2287: real time    6.2673
       DOS:  cpu time    0.0010: real time    0.0010
    CHARGE:  cpu time    0.4089: real time    0.4098
    MIXING:  cpu time    0.0068: real time    0.0068
    --------------------------------------------
      LOOP:  cpu time    6.8838: real time    6.9237

 eigenvalue-minimisations  :  3475
 total energy-change (2. order) : 0.5408992E-01  (-0.7402156E-03)
 number of electron      86.0000000 magnetization 
 augmentation part        7.1557519 magnetization 

 Broyden mixing:
  rms(total) = 0.39198E+00    rms(broyden)= 0.39193E+00
  rms(prec ) = 0.47220E+00
  weight for this iteration     100.00

 eigenvalues of (default mixing * dielectric matrix)
  average eigenvalue GAMMA=   0.8787
  2.5258  2.5258  1.0704  1.0704  0.8850  0.8850  0.8075  0.8075  0.5714  0.5714
  0.4201  0.2809  0.2809  0.2393  0.2393

 Free energy of the ion-electron system (eV)
  ---------------------------------------------------
  alpha Z        PSCENC =        74.08069268
  Ewald energy   TEWEN  =    202417.10423170
  -Hartree energ DENC   =   -206999.54616693
  -exchange      EXHF   =         0.00000000
  -V(xc)+E(xc)   XCENC  =      -163.51064632
  PAW double counting   =      5826.64049108    -5330.65052107
  entropy T*S    EENTRO =        -0.02314272
  eigenvalues    EBANDS =      -930.08057593
  atomic energy  EATOM  =      4986.10668202
  Solvation  Ediel_sol  =         0.00000000
  ---------------------------------------------------
  free energy    TOTEN  =      -119.87895547 eV

  energy without entropy =     -119.85581276  energy(sigma->0) =     -119.86738412


--------------------------------------------------------------------------------------------------------




--------------------------------------- Iteration      1(  21)  ---------------------------------------


    POTLOK:  cpu time    0.0865: real time    0.0867
    SETDIJ:  cpu time    0.1520: real time    0.1521
     EDDAV:  cpu time    5.4115: real time    5.4480
       DOS:  cpu time    0.0010: real time    0.0009
    CHARGE:  cpu time    0.4012: real time    0.4018
    MIXING:  cpu time    0.0069: real time    0.0069
    --------------------------------------------
      LOOP:  cpu time    6.0590: real time    6.0965

 eigenvalue-minimisations  :  2915
 total energy-change (2. order) : 0.2117656E-01  (-0.1288857E-02)
 number of electron      86.0000000 magnetization 
 augmentation part        7.1542079 magnetization 

 Broyden mixing:
  rms(total) = 0.28381E+00    rms(broyden)= 0.28372E+00
  rms(prec ) = 0.34441E+00
  weight for this iteration     100.00

 eigenvalues of (default mixing * dielectric matrix)
  average eigenvalue GAMMA=   0.9168
  2.7187  1.9871  1.7690  0.9985  0.9985  0.9086  0.9086  0.9719  0.6017  0.6017
  0.7217  0.4446  0.2808  0.2808  0.2382  0.2382

 Free energy of the ion-electron system (eV)
  ---------------------------------------------------
  alpha Z        PSCENC =        74.08069268
  Ewald energy   TEWEN  =    202417.10423170
  -Hartree energ DENC   =   -206999.71031884
  -exchange      EXHF   =         0.00000000
  -V(xc)+E(xc)   XCENC  =      -163.51266188
  PAW double counting   =      5825.68930236    -5329.69807601
  entropy T*S    EENTRO =        -0.02286836
  eigenvalues    EBANDS =      -929.89476260
  atomic energy  EATOM  =      4986.10668202
  Solvation  Ediel_sol  =         0.00000000
  ---------------------------------------------------
  free energy    TOTEN  =      -119.85777892 eV

  energy without entropy =     -119.83491056  energy(sigma->0) =     -119.84634474


--------------------------------------------------------------------------------------------------------




--------------------------------------- Iteration      1(  22)  ---------------------------------------


    POTLOK:  cpu time    0.0787: real time    0.0789
    SETDIJ:  cpu time    0.1308: real time    0.1309
     EDDAV:  cpu time    5.7460: real time    5.7598
       DOS:  cpu time    0.0009: real time    0.0009
    CHARGE:  cpu time    0.4157: real time    0.4161
    MIXING:  cpu time    0.0092: real time    0.0092
    --------------------------------------------
      LOOP:  cpu time    6.3812: real time    6.3958

 eigenvalue-minimisations  :  2905
 total energy-change (2. order) : 0.1198416E-01  (-0.4469522E-03)
 number of electron      86.0000000 magnetization 
 augmentation part        7.1532419 magnetization 

 Broyden mixing:
  rms(total) = 0.20146E+00    rms(broyden)= 0.20131E+00
  rms(prec ) = 0.24121E+00
  weight for this iteration     100.00

 eigenvalues of (default mixing * dielectric matrix)
  average eigenvalue GAMMA=   0.9388
  2.5914  2.3705  2.3705  0.9537  0.9537  0.9618  0.8349  0.8349  0.7259  0.7259
  0.5833  0.5833  0.4314  0.2808  0.2808  0.2383  0.2383

 Free energy of the ion-electron system (eV)
  ---------------------------------------------------
  alpha Z        PSCENC =        74.08069268
  Ewald energy   TEWEN  =    202417.10423170
  -Hartree energ DENC   =   -206999.90622266
  -exchange      EXHF   =         0.00000000
  -V(xc)+E(xc)   XCENC  =      -163.51627746
  PAW double counting   =      5825.29794926    -5329.30366228
  entropy T*S    EENTRO =        -0.02132416
  eigenvalues    EBANDS =      -929.68786386
  atomic energy  EATOM  =      4986.10668202
  Solvation  Ediel_sol  =         0.00000000
  ---------------------------------------------------
  free energy    TOTEN  =      -119.84579476 eV

  energy without entropy =     -119.82447060  energy(sigma->0) =     -119.83513268


--------------------------------------------------------------------------------------------------------




--------------------------------------- Iteration      1(  23)  ---------------------------------------


    POTLOK:  cpu time    0.0939: real time    0.0941
    SETDIJ:  cpu time    0.1498: real time    0.1499
     EDDAV:  cpu time    5.9519: real time    5.9626
       DOS:  cpu time    0.0010: real time    0.0018
    CHARGE:  cpu time    0.4167: real time    0.4172
    MIXING:  cpu time    0.0077: real time    0.0077
    --------------------------------------------
      LOOP:  cpu time    6.6210: real time    6.6333

 eigenvalue-minimisations  :  3280
 total energy-change (2. order) : 0.1142450E-01  (-0.9622832E-03)
 number of electron      86.0000000 magnetization 
 augmentation part        7.1515098 magnetization 

 Broyden mixing:
  rms(total) = 0.97092E-01    rms(broyden)= 0.96343E-01
  rms(prec ) = 0.98214E-01
  weight for this iteration     100.00

 eigenvalues of (default mixing * dielectric matrix)
  average eigenvalue GAMMA=   0.9038
  2.6184  2.2701  2.2701  0.9500  0.9500  0.9975  0.8759  0.8759  0.7536  0.7536
  0.5899  0.5899  0.4356  0.2808  0.2808  0.2383  0.2383  0.2995

 Free energy of the ion-electron system (eV)
  ---------------------------------------------------
  alpha Z        PSCENC =        74.08069268
  Ewald energy   TEWEN  =    202417.10423170
  -Hartree energ DENC   =   -206999.89050703
  -exchange      EXHF   =         0.00000000
  -V(xc)+E(xc)   XCENC  =      -163.52160343
  PAW double counting   =      5825.47856926    -5329.48342917
  entropy T*S    EENTRO =        -0.01852764
  eigenvalues    EBANDS =      -929.69047865
  atomic energy  EATOM  =      4986.10668202
  Solvation  Ediel_sol  =         0.00000000
  ---------------------------------------------------
  free energy    TOTEN  =      -119.83437026 eV

  energy without entropy =     -119.81584261  energy(sigma->0) =     -119.82510644


--------------------------------------------------------------------------------------------------------




--------------------------------------- Iteration      1(  24)  ---------------------------------------


    POTLOK:  cpu time    0.0956: real time    0.0960
    SETDIJ:  cpu time    0.1476: real time    0.1481
     EDDAV:  cpu time    4.8640: real time    4.8730
       DOS:  cpu time    0.0009: real time    0.0009
    CHARGE:  cpu time    0.4212: real time    0.4216
    MIXING:  cpu time    0.0086: real time    0.0087
    --------------------------------------------
      LOOP:  cpu time    5.5379: real time    5.5483

 eigenvalue-minimisations  :  2525
 total energy-change (2. order) : 0.4014398E-02  (-0.7607052E-04)
 number of electron      86.0000000 magnetization 
 augmentation part        7.1520834 magnetization 

 Broyden mixing:
  rms(total) = 0.76086E-01    rms(broyden)= 0.76067E-01
  rms(prec ) = 0.81602E-01
  weight for this iteration     100.00

 eigenvalues of (default mixing * dielectric matrix)
  average eigenvalue GAMMA=   0.8886
  2.6126  2.3110  2.3110  0.9409  0.9409  0.9887  0.8575  0.8575  0.7757  0.7757
  0.5959  0.5959  0.4230  0.4230  0.4352  0.2808  0.2808  0.2383  0.2383

 Free energy of the ion-electron system (eV)
  ---------------------------------------------------
  alpha Z        PSCENC =        74.08069268
  Ewald energy   TEWEN  =    202417.10423170
  -Hartree energ DENC   =   -206999.81965135
  -exchange      EXHF   =         0.00000000
  -V(xc)+E(xc)   XCENC  =      -163.52022408
  PAW double counting   =      5825.65164689    -5329.65694453
  entropy T*S    EENTRO =        -0.01979342
  eigenvalues    EBANDS =      -929.75699577
  atomic energy  EATOM  =      4986.10668202
  Solvation  Ediel_sol  =         0.00000000
  ---------------------------------------------------
  free energy    TOTEN  =      -119.83035586 eV

  energy without entropy =     -119.81056244  energy(sigma->0) =     -119.82045915


--------------------------------------------------------------------------------------------------------




--------------------------------------- Iteration      1(  25)  ---------------------------------------


    POTLOK:  cpu time    0.0927: real time    0.0933
    SETDIJ:  cpu time    0.1498: real time    0.1503
     EDDAV:  cpu time    5.3833: real time    5.4030
       DOS:  cpu time    0.0009: real time    0.0009
    CHARGE:  cpu time    0.4044: real time    0.4059
    MIXING:  cpu time    0.0084: real time    0.0084
    --------------------------------------------
      LOOP:  cpu time    6.0395: real time    6.0618

 eigenvalue-minimisations  :  2850
 total energy-change (2. order) :-0.8881297E-03  (-0.4984729E-04)
 number of electron      86.0000000 magnetization 
 augmentation part        7.1527116 magnetization 

 Broyden mixing:
  rms(total) = 0.85836E-01    rms(broyden)= 0.85769E-01
  rms(prec ) = 0.10118E+00
  weight for this iteration     100.00

 eigenvalues of (default mixing * dielectric matrix)
  average eigenvalue GAMMA=   0.9530
  2.6033  2.3749  2.3749  1.1135  1.1135  1.0263  1.0263  0.8656  0.8656  0.9983
  0.5968  0.5968  0.6845  0.6845  0.6619  0.4357  0.2808  0.2808  0.2383  0.2383

 Free energy of the ion-electron system (eV)
  ---------------------------------------------------
  alpha Z        PSCENC =        74.08069268
  Ewald energy   TEWEN  =    202417.10423170
  -Hartree energ DENC   =   -206999.80229125
  -exchange      EXHF   =         0.00000000
  -V(xc)+E(xc)   XCENC  =      -163.52181617
  PAW double counting   =      5825.25582120    -5329.26016710
  entropy T*S    EENTRO =        -0.02084263
  eigenvalues    EBANDS =      -929.77355444
  atomic energy  EATOM  =      4986.10668202
  Solvation  Ediel_sol  =         0.00000000
  ---------------------------------------------------
  free energy    TOTEN  =      -119.83124399 eV

  energy without entropy =     -119.81040136  energy(sigma->0) =     -119.82082268


--------------------------------------------------------------------------------------------------------




--------------------------------------- Iteration      1(  26)  ---------------------------------------


    POTLOK:  cpu time    0.0905: real time    0.0911
    SETDIJ:  cpu time    0.1514: real time    0.1515
     EDDAV:  cpu time    5.5100: real time    5.5461
       DOS:  cpu time    0.0009: real time    0.0009
    CHARGE:  cpu time    0.4180: real time    0.4186
    MIXING:  cpu time    0.0068: real time    0.0069
    --------------------------------------------
      LOOP:  cpu time    6.1776: real time    6.2151

 eigenvalue-minimisations  :  2940
 total energy-change (2. order) : 0.7662025E-03  (-0.8125416E-04)
 number of electron      86.0000000 magnetization 
 augmentation part        7.1528732 magnetization 

 Broyden mixing:
  rms(total) = 0.42348E-01    rms(broyden)= 0.42320E-01
  rms(prec ) = 0.46114E-01
  weight for this iteration     100.00

 eigenvalues of (default mixing * dielectric matrix)
  average eigenvalue GAMMA=   0.9939
  2.8933  2.7245  1.9439  1.9439  1.0724  1.0724  0.9730  0.8452  0.8452  0.8467
  0.7999  0.7999  0.7196  0.7196  0.5991  0.5991  0.4353  0.2808  0.2808  0.2383
  0.2383

 Free energy of the ion-electron system (eV)
  ---------------------------------------------------
  alpha Z        PSCENC =        74.08069268
  Ewald energy   TEWEN  =    202417.10423170
  -Hartree energ DENC   =   -206999.78584020
  -exchange      EXHF   =         0.00000000
  -V(xc)+E(xc)   XCENC  =      -163.52268050
  PAW double counting   =      5824.22514666    -5328.22865550
  entropy T*S    EENTRO =        -0.02191515
  eigenvalues    EBANDS =      -929.78813950
  atomic energy  EATOM  =      4986.10668202
  Solvation  Ediel_sol  =         0.00000000
[...]
     29      -7.1209      2.00000
     30      -7.0024      2.00000
     31      -6.9182      2.00000
     32      -6.8523      2.00000
     33      -6.8018      2.00000
     34      -6.7758      2.00000
     35      -6.6341      2.00000
     36      -6.4783      2.00000
     37      -6.3694      2.00000
     38      -6.3375      2.00000
     39      -6.2913      2.00000
     40      -6.2517      2.00000
     41      -5.6141      2.00000
     42      -5.4685      2.00000
     43      -5.1545      1.93198
     44      -5.1513      1.91712
     45       3.0511      0.00000
     46       3.3433      0.00000
     47       3.7458      0.00000
     48       4.1113      0.00000
     49       4.1994      0.00000
     50       4.4386      0.00000
     51       4.6362      0.00000
     52       4.8333      0.00000
     53       4.9406      0.00000
     54       5.0097      0.00000
     55       5.1634      0.00000

 k-point    18 :       0.2308    0.2308    0.0000
  band No.  band energies     occupation 
      1     -21.6308      2.00000
      2     -21.5727      2.00000
      3     -21.5082      2.00000
      4     -21.4328      2.00000
      5     -21.3577      2.00000
      6     -21.2863      2.00000
      7     -21.2281      2.00000
      8     -21.1679      2.00000
      9     -21.1269      2.00000
     10     -20.3838      2.00000
     11     -20.2578      2.00000
     12      -9.2033      2.00000
     13      -9.2016      2.00000
     14      -9.0840      2.00000
     15      -9.0805      2.00000
     16      -8.9490      2.00000
     17      -8.9299      2.00000
     18      -8.8230      2.00000
     19      -8.6780      2.00000
     20      -8.4724      2.00000
     21      -8.3047      2.00000
     22      -8.0430      2.00000
     23      -7.7800      2.00000
     24      -7.5365      2.00000
     25      -7.3693      2.00000
     26      -7.2694      2.00000
     27      -7.1838      2.00000
     28      -7.1625      2.00000
     29      -7.1171      2.00000
     30      -7.0327      2.00000
     31      -7.0008      2.00000
     32      -6.9259      2.00000
     33      -6.8977      2.00000
     34      -6.7083      2.00000
     35      -6.5582      2.00000
     36      -6.4291      2.00000
     37      -6.2901      2.00000
     38      -6.2248      2.00000
     39      -6.1736      2.00000
     40      -6.1509      2.00000
     41      -5.6517      2.00000
     42      -5.5040      2.00000
     43      -5.1498      1.90929
     44      -5.1198      1.60055
     45       3.3425      0.00000
     46       3.4215      0.00000
     47       3.5500      0.00000
     48       3.7428      0.00000
     49       4.0084      0.00000
     50       4.3386      0.00000
     51       4.7288      0.00000
     52       5.1639      0.00000
     53       5.5830      0.00000
     54       5.7177      0.00000
     55       5.7184      0.00000

 k-point    19 :       0.3077    0.2308   -0.0000
  band No.  band energies     occupation 
      1     -21.4408      2.00000
      2     -21.3972      2.00000
      3     -21.3553      2.00000
      4     -21.3073      2.00000
      5     -21.2621      2.00000
      6     -21.2252      2.00000
      7     -21.1963      2.00000
      8     -21.1381      2.00000
      9     -21.0592      2.00000
     10     -20.3263      2.00000
     11     -20.1909      2.00000
     12      -9.4055      2.00000
     13      -9.2706      2.00000
     14      -9.1621      2.00000
     15      -9.1050      2.00000
     16      -9.0645      2.00000
     17      -8.9792      2.00000
     18      -8.8672      2.00000
     19      -8.7136      2.00000
     20      -8.6118      2.00000
     21      -8.2456      2.00000
     22      -8.0849      2.00000
     23      -7.9373      2.00000
     24      -7.7522      2.00000
     25      -7.6628      2.00000
     26      -7.5824      2.00000
     27      -7.5251      2.00000
     28      -7.4376      2.00000
     29      -7.3692      2.00000
     30      -7.2533      2.00000
     31      -7.2037      2.00000
     32      -7.0807      2.00000
     33      -6.8601      2.00000
     34      -6.7005      2.00000
     35      -6.6215      2.00000
     36      -6.5130      2.00000
     37      -6.4232      2.00000
     38      -6.3325      2.00000
     39      -6.3123      2.00000
     40      -6.2620      2.00000
     41      -5.8070      2.00000
     42      -5.7086      2.00000
     43      -5.1378      1.82380
     44      -5.1291      1.73156
     45       3.7237      0.00000
     46       3.9052      0.00000
     47       4.1479      0.00000
     48       4.2651      0.00000
     49       4.3703      0.00000
     50       4.5537      0.00000
     51       4.8012      0.00000
     52       5.0941      0.00000
     53       5.4552      0.00000
     54       5.7183      0.00000
     55       5.8272      0.00000

 k-point    20 :       0.3846    0.2308    0.0000
  band No.  band energies     occupation 
      1     -21.3473      2.00000
      2     -21.3165      2.00000
      3     -21.2909      2.00000
      4     -21.2640      2.00000
      5     -21.2360      2.00000
      6     -21.2198      2.00000
      7     -21.2007      2.00000
      8     -21.1308      2.00000
      9     -21.0332      2.00000
     10     -20.3053      2.00000
     11     -20.1662      2.00000
     12      -9.4890      2.00000
     13      -9.3455      2.00000
     14      -9.1574      2.00000
     15      -9.0376      2.00000
     16      -8.9870      2.00000
     17      -8.9712      2.00000
     18      -8.9270      2.00000
     19      -8.8219      2.00000
     20      -8.7208      2.00000
     21      -8.0693      2.00000
     22      -8.0281      2.00000
     23      -8.0018      2.00000
     24      -7.9613      2.00000
     25      -7.9313      2.00000
     26      -7.8396      2.00000
     27      -7.6543      2.00000
     28      -7.4762      2.00000
     29      -7.4157      2.00000
     30      -7.3323      2.00000
     31      -7.2586      2.00000
     32      -6.8913      2.00000
     33      -6.8603      2.00000
     34      -6.7650      2.00000
     35      -6.6674      2.00000
     36      -6.5268      2.00000
     37      -6.4609      2.00000
     38      -6.4443      2.00000
     39      -6.3520      2.00000
     40      -6.2977      2.00000
     41      -5.8531      2.00000
     42      -5.7806      2.00000
     43      -5.1334      1.78049
     44      -5.1331      1.77756
     45       3.7942      0.00000
     46       4.0060      0.00000
     47       4.3124      0.00000
     48       4.4099      0.00000
     49       4.6750      0.00000
     50       4.7189      0.00000
     51       5.0392      0.00000
     52       5.1325      0.00000
     53       5.4200      0.00000
     54       5.4859      0.00000
     55       5.8250      0.00000

 k-point    21 :       0.3077    0.3077    0.0000
  band No.  band energies     occupation 
      1     -21.3135      2.00000
      2     -21.2867      2.00000
      3     -21.2654      2.00000
      4     -21.2471      2.00000
      5     -21.2241      2.00000
      6     -21.2128      2.00000
      7     -21.1968      2.00000
      8     -21.1207      2.00000
      9     -21.0186      2.00000
     10     -20.2941      2.00000
     11     -20.1541      2.00000
     12      -9.1344      2.00000
     13      -9.1333      2.00000
     14      -9.0101      2.00000
     15      -8.9983      2.00000
     16      -8.8818      2.00000
     17      -8.7747      2.00000
     18      -8.7385      2.00000
     19      -8.6181      2.00000
     20      -8.5743      2.00000
     21      -8.4215      2.00000
     22      -8.3909      2.00000
     23      -8.2729      2.00000
     24      -8.1730      2.00000
     25      -8.1238      2.00000
     26      -7.9642      2.00000
     27      -7.9164      2.00000
     28      -7.8141      2.00000
     29      -7.7478      2.00000
     30      -7.3228      2.00000
     31      -7.2038      2.00000
     32      -6.8923      2.00000
     33      -6.7384      2.00000
     34      -6.6964      2.00000
     35      -6.6469      2.00000
     36      -6.6287      2.00000
     37      -6.6068      2.00000
     38      -6.4981      2.00000
     39      -6.3233      2.00000
     40      -6.3124      2.00000
     41      -5.9397      2.00000
     42      -5.9332      2.00000
     43      -5.1275      1.71107
     44      -5.1252      1.68148
     45       4.4803      0.00000
     46       4.4858      0.00000
     47       4.5154      0.00000
     48       4.5669      0.00000
     49       4.6429      0.00000
     50       4.7955      0.00000
     51       4.9894      0.00000
     52       5.1691      0.00000
     53       5.4415      0.00000
     54       5.6243      0.00000
     55       6.2099      0.00000


--------------------------------------------------------------------------------------------------------


 soft charge-density along one line, spin component           1
         0         1         2         3         4         5         6         7         8         9
 total charge-density along one line
 
 pseudopotential strength for first ion, spin component:           1
 13.521 -16.559  -0.000  -0.048   0.000   0.000   0.060  -0.000
-16.559  20.308   0.000   0.061  -0.000  -0.000  -0.077   0.000
 -0.000   0.000 -10.152  -0.000   0.000  12.533   0.000  -0.000
 -0.048   0.061  -0.000 -10.055   0.000   0.000  12.401  -0.000
  0.000  -0.000   0.000   0.000 -10.152  -0.000  -0.000  12.533
  0.000  -0.000  12.533   0.000  -0.000 -15.389  -0.000   0.000
  0.060  -0.077   0.000  12.401  -0.000  -0.000 -15.210   0.000
 -0.000   0.000  -0.000  -0.000  12.533   0.000   0.000 -15.389
 total augmentation occupancy for first ion, spin component:           1
  2.350   0.190   0.000   0.131   0.000   0.000   0.045   0.000
  0.190   0.035   0.000   0.151   0.000   0.000   0.015   0.000
  0.000   0.000   1.551   0.000   0.000   0.107   0.000   0.000
  0.131   0.151   0.000   1.993   0.000   0.000   0.134   0.000
  0.000   0.000   0.000   0.000   1.551   0.000   0.000   0.107
  0.000   0.000   0.107   0.000   0.000   0.008   0.000   0.000
  0.045   0.015   0.000   0.134   0.000  -0.000   0.011   0.000
  0.000   0.000   0.000   0.000   0.107   0.000   0.000   0.008


------------------------ aborting loop because EDIFF is reached ----------------------------------------


    CHARGE:  cpu time    0.2687: real time    0.2689
    FORLOC:  cpu time    0.0147: real time    0.0147
    FORNL :  cpu time    1.4300: real time    1.4307
    STRESS:  cpu time    3.3766: real time    3.3789
    FORCOR:  cpu time    0.0767: real time    0.0768
    FORHAR:  cpu time    0.0256: real time    0.0256
    MIXING:  cpu time    0.0060: real time    0.0060
    OFIELD:  cpu time    0.0001: real time    0.0001

  FORCE on cell =-STRESS in cart. coord.  units (eV):
  Direction    XX          YY          ZZ          XY          YZ          ZX
  --------------------------------------------------------------------------------------
  Alpha Z    74.08069    74.08069    74.08069
  Ewald  204975.70459204975.70482************    -0.00007     0.00010    -0.00015
  Hartree205967.52342205967.52337************     0.00000     0.00000     0.00002
  E(xc)    -391.25294  -391.25295  -391.03872    -0.00000     0.00000    -0.00000
  Local  ************************411366.95232    -0.00024    -0.00004     0.00005
  n-local  -199.20714  -211.61225  -209.59275     2.08669    -1.83019     5.00392
  augment    73.42699    73.42674    74.65594     0.00020     0.00000     0.00000
  Kinetic  1503.47957  1572.29578  1549.81951    -7.16169     1.40833     1.78364
  Fock        0.00000     0.00000     0.00000     0.00000     0.00000     0.00000
  -------------------------------------------------------------------------------------
  Total       1.22568     1.22568    -3.67185     0.00000     0.00000     0.00000
  in kB       3.52576     3.52575   -10.56237     0.00000     0.00000     0.00000
  external pressure =       -1.17 kB  Pullay stress =        0.00 kB


 VOLUME and BASIS-vectors are now :
 -----------------------------------------------------------------------------
  energy-cutoff  :      450.00
  volume of cell :      556.97
      direct lattice vectors                 reciprocal lattice vectors
     2.592423668 -1.496736268  0.000000000     0.385739419  0.000000000 -0.000000000
     0.000000000  2.993472536  0.000000000     0.192869710  0.334060189 -0.000000000
     0.000000000  0.000000000 71.771635044     0.000000000  0.000000000  0.013933081

  length of vectors
     2.993472888  2.993472536 71.771635044     0.385739419  0.385739465  0.013933081


 FORCES acting on ions
    electron-ion (+dipol)            ewald-force                    non-local-force                 convergence-correction
 -----------------------------------------------------------------------------------------------
   0.109E-02 -.189E-02 0.349E+04   0.216E-04 -.323E-04 -.351E+04   0.698E-16 0.347E-16 0.205E+02   -.157E-08 0.271E-08 0.454E-02
   0.108E-06 -.217E-07 0.213E+04   -.605E-05 0.818E-05 -.212E+04   -.305E-17 -.434E-18 -.484E+00   0.108E-09 -.172E-09 -.130E-01
   0.106E-02 -.184E-02 0.142E+04   0.600E-04 -.106E-03 -.142E+04   -.255E-17 0.173E-17 -.548E+00   0.212E-08 -.364E-08 -.205E-01
   0.792E-07 -.327E-07 0.681E+01   -.608E-05 0.822E-05 -.583E+01   -.321E-17 -.173E-17 -.565E+00   -.134E-09 0.249E-09 -.253E-01
   0.106E-02 -.184E-02 -.700E+03   0.602E-04 -.106E-03 0.701E+03   -.345E-17 0.000E+00 -.601E+00   0.219E-08 -.383E-08 -.237E-01
   0.104E-06 -.649E-07 -.211E+04   -.669E-05 0.902E-05 0.211E+04   -.373E-17 -.217E-18 -.997E+00   -.259E-09 0.432E-09 -.204E-01
   0.106E-02 -.184E-02 -.282E+04   0.616E-04 -.111E-03 0.282E+04   -.192E-16 -.694E-17 -.262E+01   0.175E-08 -.285E-08 -.171E-01
   -.106E-02 0.184E-02 0.283E+04   -.574E-04 0.969E-04 -.283E+04   0.227E-18 0.867E-18 0.326E+00   -.416E-09 0.759E-09 -.101E-01
   -.106E-02 0.184E-02 0.713E+03   -.579E-04 0.980E-04 -.712E+03   -.267E-17 0.000E+00 -.571E+00   -.229E-08 0.401E-08 -.241E-01
   -.106E-02 0.184E-02 -.141E+04   -.583E-04 0.986E-04 0.141E+04   -.287E-17 0.434E-18 -.697E+00   -.651E-09 0.109E-08 -.228E-01
   -.108E-02 0.187E-02 -.351E+04   -.424E-04 0.626E-04 0.352E+04   -.805E-16 0.694E-17 -.160E+02   -.125E-07 0.214E-07 0.669E-02
   -.231E-05 0.147E-05 0.106E+04   0.722E-05 -.984E-05 -.106E+04   -.786E-17 0.000E+00 -.132E+01   -.936E-08 0.162E-07 -.271E-02
   -.160E-05 0.879E-06 0.352E+03   0.605E-05 -.817E-05 -.352E+03   0.976E-17 -.694E-17 -.934E+00   -.584E-10 0.984E-10 -.744E-02
   -.167E-05 0.847E-06 -.354E+03   0.605E-05 -.818E-05 0.355E+03   0.108E-17 0.139E-16 -.941E+00   0.724E-10 -.121E-09 -.786E-02
   -.471E-05 0.231E-05 -.107E+04   0.197E-04 -.267E-04 0.107E+04   -.157E-17 0.555E-16 -.225E+01   -.403E-08 0.700E-08 -.367E-02
   0.438E-04 -.777E-04 0.588E+03   -.514E-04 0.913E-04 -.587E+03   0.132E-16 -.139E-16 -.930E+00   0.336E-10 -.605E-10 -.557E-02
   0.439E-04 -.778E-04 -.119E+03   -.514E-04 0.914E-04 0.119E+03   0.115E-16 0.000E+00 -.938E+00   0.385E-10 -.660E-10 -.813E-02
   0.444E-04 -.794E-04 -.826E+03   -.530E-04 0.948E-04 0.827E+03   -.112E-16 0.000E+00 -.116E+01   0.263E-08 -.457E-08 -.609E-02
   -.454E-04 0.769E-04 0.823E+03   0.492E-04 -.830E-04 -.822E+03   0.115E-16 -.139E-16 -.924E+00   0.179E-09 -.314E-09 -.358E-02
   -.456E-04 0.770E-04 0.117E+03   0.493E-04 -.831E-04 -.116E+03   0.115E-16 -.208E-16 -.942E+00   -.392E-10 0.704E-10 -.824E-02
   -.458E-04 0.773E-04 -.590E+03   0.497E-04 -.837E-04 0.590E+03   0.106E-17 -.694E-17 -.964E+00   0.256E-09 -.435E-09 -.740E-02
 -----------------------------------------------------------------------------------------------
   -.146E-05 -.203E-04 0.138E+02   -.476E-13 -.736E-15 0.114E-11   -.123E-16 0.423E-16 -.136E+02   -.219E-07 0.380E-07 -.227E+00
 
 
 POSITION                                       TOTAL-FORCE (eV/Angst)
 -----------------------------------------------------------------------------------
      0.86414      1.49674     31.01151         0.000000      0.000000      1.063096
      0.00000      0.00000     35.98715         0.000000      0.000000      0.404617
      0.86414      1.49674     38.45116         0.000000     -0.000000      0.389288
      0.00000      0.00000     43.38003         0.000000      0.000000      0.384812
      0.86414      1.49674     45.84337         0.000000     -0.000000      0.370290
      0.00000      0.00000     50.76176         0.000000      0.000000      0.302285
      0.86414      1.49674     53.20171         0.000000     -0.000000      0.135120
      1.72828     -0.00000     33.52096         0.000000      0.000000      0.594111
      1.72828     -0.00000     40.91613         0.000000     -0.000000      0.381003
      1.72828     -0.00000     48.30514         0.000000     -0.000000      0.340212
      1.72828     -0.00000     55.52910        -0.000000      0.000000     -0.059744
      0.00000      0.00000     32.36589        -0.000000      0.000000     -1.402831
      0.00000      0.00000     39.75900        -0.000000      0.000000     -0.380773
      0.00000      0.00000     47.14955        -0.000000      0.000000     -0.372952
      0.00000      0.00000     54.58315         0.000000      0.000000      0.006324
      1.72828     -0.00000     37.29443        -0.000000      0.000000     -0.391405
      1.72828     -0.00000     44.68725        -0.000000      0.000000     -0.383872
      1.72828     -0.00000     52.07579        -0.000000      0.000000     -0.223420
      0.86414      1.49674     34.83007        -0.000000      0.000000     -0.432521
      0.86414      1.49674     42.22410        -0.000000      0.000000     -0.396083
      0.86414      1.49674     49.61006        -0.000000      0.000000     -0.327558
 -----------------------------------------------------------------------------------
    total drift:                               -0.000001     -0.000020      0.001588


--------------------------------------------------------------------------------------------------------



  FREE ENERGIE OF THE ION-ELECTRON SYSTEM (eV)
  ---------------------------------------------------
  free  energy   TOTEN  =      -119.83047612 eV

  energy  without entropy=     -119.80755798  energy(sigma->0) =     -119.81901705
 


--------------------------------------------------------------------------------------------------------


    POTLOK:  cpu time    0.1591: real time    0.1593


--------------------------------------------------------------------------------------------------------


 stress matrix after NEB project (eV)
      1.22568      0.00000      0.00000
      0.00000      1.22568      0.00000
      0.00000      0.00000     -3.67185
  FORCES: max atom, RMS     1.402831    0.512300
  FORCE total and by dimension    2.347655    1.402831
  Stress total and by dimension    4.060424    3.671850
     LOOP+:  cpu time  305.5667: real time  307.0963
    4ORBIT:  cpu time    0.0000: real time    0.0000

 total amount of memory used by VASP MPI-rank0    90196. kBytes
=======================================================================

   base      :      30000. kBytes
   nonl-proj :      14276. kBytes
   fftplans  :      22144. kBytes
   grid      :      12271. kBytes
   one-center:         48. kBytes
   wavefun   :      11457. kBytes
 
  
  
 General timing and accounting informations for this job:
 ========================================================
  
                  Total CPU time used (sec):      311.074
                            User time (sec):      307.392
                          System time (sec):        3.683
                         Elapsed time (sec):      312.611
  
                   Maximum memory used (kb):      184468.
                   Average memory used (kb):           0.
  
                          Minor page faults:       361012
                          Major page faults:            0
                 Voluntary context switches:          417
