       N       E                     dE             d eps       ncg     rms          rms(c)
DAV:   1     0.464899880299E+03    0.46490E+03   -0.41783E+04  6100   0.133E+03
DAV:   2    -0.965242348916E+02   -0.56142E+03   -0.53358E+03  7856   0.252E+02
DAV:   3    -0.148000280738E+03   -0.51476E+02   -0.51193E+02  7122   0.821E+01
DAV:   4    -0.148651833258E+03   -0.65155E+00   -0.65025E+00  7128   0.100E+01
DAV:   5    -0.148661463629E+03   -0.96304E-02   -0.96255E-02  7188   0.121E+00    0.219E+01
DAV:   6    -0.134335824719E+03    0.14326E+02   -0.81753E+01  6898   0.293E+01    0.740E+00
DAV:   7    -0.134220822950E+03    0.11500E+00   -0.14145E+00  6650   0.494E+00    0.454E+00
DAV:   8    -0.134120940630E+03    0.99882E-01   -0.40995E-01  7278   0.389E+00    0.752E-01
DAV:   9    -0.134112006879E+03    0.89338E-02   -0.62678E-02  6936   0.115E+00    0.451E-01
DAV:  10    -0.134112116791E+03   -0.10991E-03   -0.44447E-02  7074   0.901E-01    0.264E-01
DAV:  11    -0.134111713477E+03    0.40331E-03   -0.37109E-03  7046   0.298E-01    0.193E-01
DAV:  12    -0.134111198281E+03    0.51520E-03   -0.84052E-03  7844   0.463E-01    0.115E-01
DAV:  13    -0.134110917480E+03    0.28080E-03   -0.16995E-03  7104   0.202E-01    0.913E-02
DAV:  14    -0.134110658246E+03    0.25923E-03   -0.81739E-04  8094   0.158E-01    0.351E-02
DAV:  15    -0.134110388313E+03    0.26993E-03   -0.16281E-04  8792   0.146E-01    0.198E-02
DAV:  16    -0.134110219099E+03    0.16921E-03   -0.22877E-04  7564   0.141E-01    0.156E-02
DAV:  17    -0.134109924182E+03    0.29492E-03   -0.26947E-04  9640   0.276E-01    0.163E-02
DAV:  18    -0.134109838448E+03    0.85734E-04   -0.27540E-04  7404   0.185E-01    0.171E-02
DAV:  19    -0.134109810590E+03    0.27858E-04   -0.31717E-04  7124   0.148E-01    0.203E-02
DAV:  20    -0.134109770986E+03    0.39604E-04   -0.10518E-04  7952   0.122E-01    0.117E-02
DAV:  21    -0.134109771702E+03   -0.71599E-06   -0.10556E-04  6610   0.617E-02    0.172E-02
DAV:  22    -0.134109765530E+03    0.61725E-05   -0.28877E-05  5464   0.381E-02
   1 F= -.13410977E+03 E0= -.13410877E+03  d E =-.134110E+03
       N       E                     dE             d eps       ncg     rms          rms(c)
DAV:   1    -0.134110110454E+03   -0.33875E-03   -0.87066E-03  6540   0.414E-01    0.210E-02
DAV:   2    -0.134110112640E+03   -0.21866E-05   -0.32116E-04  7190   0.881E-02    0.135E-02
DAV:   3    -0.134110109476E+03    0.31644E-05   -0.45754E-05  6638   0.318E-02    0.118E-02
DAV:   4    -0.134110106340E+03    0.31357E-05   -0.65616E-06  3884   0.125E-02    0.708E-03
DAV:   5    -0.134110101601E+03    0.47389E-05   -0.11357E-05  4562   0.187E-02    0.411E-03
DAV:   6    -0.134110100695E+03    0.90618E-06   -0.62345E-06  4276   0.163E-02
   2 F= -.13411010E+03 E0= -.13410911E+03  d E =-.335165E-03
       N       E                     dE             d eps       ncg     rms          rms(c)
DAV:   1    -0.134110172140E+03   -0.70539E-04   -0.44850E-03  6384   0.300E-01    0.142E-02
DAV:   2    -0.134110177412E+03   -0.52716E-05   -0.20060E-04  7182   0.662E-02    0.117E-02
DAV:   3    -0.134110173873E+03    0.35390E-05   -0.12409E-05  4158   0.176E-02    0.913E-03
DAV:   4    -0.134110169312E+03    0.45603E-05   -0.18403E-05  5276   0.203E-02    0.445E-03
DAV:   5    -0.134110168012E+03    0.13009E-05   -0.45802E-06  4128   0.142E-02    0.582E-03
DAV:   6    -0.134110167115E+03    0.89636E-06   -0.27757E-06  3926   0.105E-02
   3 F= -.13411017E+03 E0= -.13410918E+03  d E =-.401585E-03
       N       E                     dE             d eps       ncg     rms          rms(c)
DAV:   1    -0.134110302641E+03   -0.13463E-03   -0.55958E-02  6348   0.104E+00    0.313E-02
DAV:   2    -0.134110414922E+03   -0.11228E-03   -0.13072E-03  6980   0.148E-01    0.189E-02
DAV:   3    -0.134110406279E+03    0.86437E-05   -0.17525E-05  4650   0.246E-02    0.131E-02
DAV:   4    -0.134110399870E+03    0.64083E-05   -0.15841E-05  4318   0.243E-02    0.491E-03
DAV:   5    -0.134110399337E+03    0.53334E-06   -0.94671E-06  3858   0.163E-02    0.371E-03
DAV:   6    -0.134110399147E+03    0.19032E-06   -0.28173E-06  3716   0.808E-03
   4 F= -.13411040E+03 E0= -.13410941E+03  d E =-.232032E-03
       N       E                     dE             d eps       ncg     rms          rms(c)
DAV:   1    -0.134110267203E+03    0.13213E-03   -0.15851E-01  6328   0.175E+00    0.521E-02
DAV:   2    -0.134110586092E+03   -0.31889E-03   -0.36941E-03  6988   0.249E-01    0.318E-02
DAV:   3    -0.134110562243E+03    0.23849E-04   -0.51665E-05  7024   0.403E-02    0.223E-02
DAV:   4    -0.134110545151E+03    0.17092E-04   -0.39905E-05  6372   0.356E-02    0.935E-03
DAV:   5    -0.134110541498E+03    0.36530E-05   -0.15484E-05  4350   0.261E-02    0.569E-03
DAV:   6    -0.134110539917E+03    0.15810E-05   -0.12436E-05  4338   0.240E-02
   5 F= -.13411054E+03 E0= -.13410953E+03  d E =-.372802E-03
       N       E                     dE             d eps       ncg     rms          rms(c)
DAV:   1    -0.134110634488E+03   -0.92989E-04   -0.40355E-02  6264   0.889E-01    0.278E-02
DAV:   2    -0.134110719711E+03   -0.85224E-04   -0.94021E-04  6830   0.126E-01    0.154E-02
DAV:   3    -0.134110714069E+03    0.56424E-05   -0.12497E-05  4274   0.211E-02    0.105E-02
DAV:   4    -0.134110709727E+03    0.43415E-05   -0.10472E-05  4064   0.217E-02    0.386E-03
DAV:   5    -0.134110709119E+03    0.60845E-06   -0.67337E-06  3860   0.157E-02    0.360E-03
DAV:   6    -0.134110708907E+03    0.21193E-06   -0.27303E-06  3524   0.848E-03
   6 F= -.13411071E+03 E0= -.13410969E+03  d E =-.168990E-03
       N       E                     dE             d eps       ncg     rms          rms(c)
DAV:   1    -0.134110278107E+03    0.43101E-03   -0.36309E-01  6240   0.267E+00    0.794E-02
DAV:   2    -0.134111043756E+03   -0.76565E-03   -0.84101E-03  6866   0.375E-01    0.465E-02
DAV:   3    -0.134110991353E+03    0.52403E-04   -0.95215E-05  7148   0.575E-02    0.329E-02
DAV:   4    -0.134110946944E+03    0.44409E-04   -0.11529E-04  6878   0.702E-02    0.125E-02
DAV:   5    -0.134110941923E+03    0.50210E-05   -0.61160E-05  6714   0.439E-02    0.124E-02
DAV:   6    -0.134110939334E+03    0.25887E-05   -0.20104E-05  4052   0.221E-02
   7 F= -.13411094E+03 E0= -.13410987E+03  d E =-.399417E-03
       N       E                     dE             d eps       ncg     rms          rms(c)
DAV:   1    -0.134111039713E+03   -0.97790E-04   -0.88305E-02  6192   0.129E+00    0.371E-02
DAV:   2    -0.134111210490E+03   -0.17078E-03   -0.18512E-03  6876   0.176E-01    0.212E-02
DAV:   3    -0.134111199644E+03    0.10846E-04   -0.16047E-05  4870   0.241E-02    0.144E-02
DAV:   4    -0.134111190248E+03    0.93958E-05   -0.28319E-05  5684   0.381E-02    0.414E-03
DAV:   5    -0.134111190568E+03   -0.31966E-06   -0.15223E-05  3738   0.181E-02    0.513E-03
DAV:   6    -0.134111190350E+03    0.21731E-06   -0.18997E-06  3704   0.596E-03
   8 F= -.13411119E+03 E0= -.13411011E+03  d E =-.251016E-03
       N       E                     dE             d eps       ncg     rms          rms(c)
DAV:   1    -0.134110345687E+03    0.84488E-03   -0.65385E-01  6188   0.352E+00    0.103E-01
DAV:   2    -0.134111617029E+03   -0.12713E-02   -0.13901E-02  6908   0.482E-01    0.577E-02
DAV:   3    -0.134111534208E+03    0.82821E-04   -0.13696E-04  7314   0.674E-02    0.401E-02
DAV:   4    -0.134111456334E+03    0.77874E-04   -0.21581E-04  7074   0.104E-01    0.147E-02
DAV:   5    -0.134111453999E+03    0.23352E-05   -0.12408E-04  6556   0.565E-02    0.183E-02
DAV:   6    -0.134111450641E+03    0.33574E-05   -0.18756E-05  4348   0.187E-02
   9 F= -.13411145E+03 E0= -.13411031E+03  d E =-.511307E-03
       N       E                     dE             d eps       ncg     rms          rms(c)
DAV:   1    -0.134111516516E+03   -0.62518E-04   -0.80371E-02  6104   0.125E+00    0.413E-02
DAV:   2    -0.134111672934E+03   -0.15642E-03   -0.17816E-03  6896   0.176E-01    0.200E-02
DAV:   3    -0.134111663303E+03    0.96308E-05   -0.32752E-05  6074   0.321E-02    0.141E-02
DAV:   4    -0.134111654521E+03    0.87829E-05   -0.13367E-05  3894   0.280E-02    0.675E-03
DAV:   5    -0.134111647619E+03    0.69017E-05   -0.99855E-06  4198   0.324E-02    0.479E-03
DAV:   6    -0.134111644573E+03    0.30458E-05   -0.99971E-06  3746   0.209E-02
  10 F= -.13411164E+03 E0= -.13411050E+03  d E =-.193932E-03
       N       E                     dE             d eps       ncg     rms          rms(c)
DAV:   1    -0.134110631295E+03    0.10163E-02   -0.72429E-01  6092   0.375E+00    0.111E-01
DAV:   2    -0.134112099417E+03   -0.14681E-02   -0.15828E-02  6876   0.517E-01    0.599E-02
DAV:   3    -0.134112029541E+03    0.69876E-04   -0.17816E-04  7266   0.673E-02    0.421E-02
DAV:   4    -0.134111975993E+03    0.53549E-04   -0.19931E-04  6924   0.850E-02    0.166E-02
DAV:   5    -0.134111974560E+03    0.14326E-05   -0.81336E-05  6632   0.492E-02    0.182E-02
DAV:   6    -0.134111970102E+03    0.44575E-05   -0.30118E-05  5082   0.271E-02
  11 F= -.13411197E+03 E0= -.13411079E+03  d E =-.519461E-03
       N       E                     dE             d eps       ncg     rms          rms(c)
DAV:   1    -0.134112096869E+03   -0.12231E-03   -0.10663E-01  6084   0.145E+00    0.472E-02
DAV:   2    -0.134112311412E+03   -0.21454E-03   -0.24341E-03  6908   0.207E-01    0.231E-02
DAV:   3    -0.134112299833E+03    0.11579E-04   -0.52218E-05  6796   0.368E-02    0.167E-02
DAV:   4    -0.134112288367E+03    0.11466E-04   -0.14873E-05  4058   0.228E-02    0.822E-03
DAV:   5    -0.134112279121E+03    0.92463E-05   -0.11272E-05  4374   0.366E-02    0.669E-03
DAV:   6    -0.134112274753E+03    0.43672E-05   -0.12882E-05  4630   0.324E-02
  12 F= -.13411227E+03 E0= -.13411109E+03  d E =-.304651E-03
       N       E                     dE             d eps       ncg     rms          rms(c)
DAV:   1    -0.134112116163E+03    0.16296E-03   -0.14778E-01  6096   0.171E+00    0.538E-02
DAV:   2    -0.134112417661E+03   -0.30150E-03   -0.34683E-03  6930   0.248E-01    0.290E-02
DAV:   3    -0.134112396127E+03    0.21534E-04   -0.68086E-05  6938   0.412E-02    0.211E-02
DAV:   4    -0.134112369782E+03    0.26346E-04   -0.36028E-05  6142   0.337E-02    0.969E-03
DAV:   5    -0.134112353432E+03    0.16350E-04   -0.14030E-05  4534   0.429E-02    0.995E-03
DAV:   6    -0.134112337801E+03    0.15631E-04   -0.23606E-05  5336   0.593E-02    0.471E-03
DAV:   7    -0.134112333139E+03    0.46624E-05   -0.34292E-05  5596   0.383E-02
  13 F= -.13411233E+03 E0= -.13411114E+03  d E =-.363036E-03
       N       E                     dE             d eps       ncg     rms          rms(c)
DAV:   1    -0.134112255964E+03    0.81837E-04   -0.16517E-01  6124   0.179E+00    0.544E-02
DAV:   2    -0.134112593671E+03   -0.33771E-03   -0.36549E-03  6848   0.248E-01    0.282E-02
DAV:   3    -0.134112574483E+03    0.19188E-04   -0.37683E-05  5962   0.330E-02    0.187E-02
DAV:   4    -0.134112555719E+03    0.18763E-04   -0.46823E-05  6562   0.458E-02    0.756E-03
DAV:   5    -0.134112554389E+03    0.13309E-05   -0.23993E-05  4852   0.250E-02    0.910E-03
DAV:   6    -0.134112553632E+03    0.75633E-06   -0.46137E-06  3788   0.944E-03
  14 F= -.13411255E+03 E0= -.13411135E+03  d E =-.220493E-03
       N       E                     dE             d eps       ncg     rms          rms(c)
DAV:   1    -0.134111902570E+03    0.65182E-03   -0.41808E-01  6100   0.285E+00    0.874E-02
DAV:   2    -0.134112762551E+03   -0.85998E-03   -0.93287E-03  6848   0.398E-01    0.454E-02
DAV:   3    -0.134112716408E+03    0.46144E-04   -0.11193E-04  7136   0.580E-02    0.312E-02
DAV:   4    -0.134112674227E+03    0.42180E-04   -0.10275E-04  6810   0.716E-02    0.129E-02
DAV:   5    -0.134112667871E+03    0.63565E-05   -0.65242E-05  6626   0.515E-02    0.155E-02
DAV:   6    -0.134112664820E+03    0.30508E-05   -0.26966E-05  4910   0.243E-02
  15 F= -.13411266E+03 E0= -.13411145E+03  d E =-.331681E-03
       N       E                     dE             d eps       ncg     rms          rms(c)
DAV:   1    -0.134112657936E+03    0.99352E-05   -0.18610E-01  6460   0.187E+00    0.574E-02
DAV:   2    -0.134113025564E+03   -0.36763E-03   -0.41342E-03  6978   0.262E-01    0.320E-02
DAV:   3    -0.134112991825E+03    0.33739E-04   -0.46247E-05  6824   0.455E-02    0.219E-02
DAV:   4    -0.134112953650E+03    0.38175E-04   -0.62490E-05  6758   0.725E-02    0.803E-03
DAV:   5    -0.134112949883E+03    0.37665E-05   -0.58510E-05  6496   0.430E-02    0.943E-03
DAV:   6    -0.134112949178E+03    0.70555E-06   -0.13614E-05  3776   0.157E-02
  16 F= -.13411295E+03 E0= -.13411172E+03  d E =-.284358E-03
       N       E                     dE             d eps       ncg     rms          rms(c)
DAV:   1    -0.134112911244E+03    0.38639E-04   -0.37371E-02  6448   0.840E-01    0.269E-02
DAV:   2    -0.134112973683E+03   -0.62439E-04   -0.82109E-04  7090   0.121E-01    0.144E-02
DAV:   3    -0.134112961411E+03    0.12273E-04   -0.18799E-05  4790   0.331E-02    0.106E-02
DAV:   4    -0.134112947379E+03    0.14032E-04   -0.71278E-06  4374   0.340E-02    0.617E-03
DAV:   5    -0.134112928488E+03    0.18891E-04   -0.13726E-05  5112   0.566E-02    0.431E-03
DAV:   6    -0.134112920703E+03    0.77848E-05   -0.23500E-05  5290   0.392E-02
  17 F= -.13411292E+03 E0= -.13411168E+03  d E =-.255883E-03
       N       E                     dE             d eps       ncg     rms          rms(c)
DAV:   1    -0.134112908806E+03    0.19682E-04   -0.40261E-03  6592   0.280E-01    0.131E-02
DAV:   2    -0.134112919577E+03   -0.10771E-04   -0.16239E-04  6600   0.540E-02    0.109E-02
DAV:   3    -0.134112917458E+03    0.21190E-05   -0.99196E-06  3710   0.152E-02    0.687E-03
DAV:   4    -0.134112915802E+03    0.16560E-05   -0.41651E-06  3686   0.954E-03    0.285E-03
DAV:   5    -0.134112914004E+03    0.17983E-05   -0.19817E-06  3798   0.967E-03    0.232E-03
DAV:   6    -0.134112911224E+03    0.27800E-05   -0.15245E-06  4128   0.206E-02
  18 F= -.13411291E+03 E0= -.13411168E+03  d E =-.246404E-03
       N       E                     dE             d eps       ncg     rms          rms(c)
DAV:   1    -0.134112909524E+03    0.44801E-05   -0.42233E-03  6724   0.283E-01    0.941E-03
DAV:   2    -0.134112919296E+03   -0.97727E-05   -0.10715E-04  6658   0.412E-02    0.601E-03
DAV:   3    -0.134112918428E+03    0.86817E-06   -0.13102E-06  3698   0.723E-03    0.373E-03
DAV:   4    -0.134112917856E+03    0.57175E-06   -0.26288E-06  3590   0.977E-03    0.129E-03
DAV:   5    -0.134112917859E+03   -0.23438E-08   -0.93775E-07  3482   0.440E-03    0.139E-03
DAV:   6    -0.134112917809E+03    0.49441E-07   -0.13196E-07  3362   0.185E-03
  19 F= -.13411292E+03 E0= -.13411169E+03  d E =-.252989E-03
       N       E                     dE             d eps       ncg     rms          rms(c)
DAV:   1    -0.134112917976E+03   -0.11729E-06   -0.10511E-03  6524   0.141E-01    0.431E-03
DAV:   2    -0.134112919904E+03   -0.19279E-05   -0.22653E-05  4836   0.202E-02    0.244E-03
DAV:   3    -0.134112919757E+03    0.14706E-06   -0.90586E-07  3362   0.498E-03    0.175E-03
DAV:   4    -0.134112919551E+03    0.20591E-06   -0.25531E-07  3374   0.459E-03    0.789E-04
DAV:   5    -0.134112919462E+03    0.88908E-07   -0.33661E-07  3390   0.478E-03    0.690E-04
DAV:   6    -0.134112919464E+03   -0.20755E-08   -0.29929E-07  3278   0.254E-03
  20 F= -.13411292E+03 E0= -.13411169E+03  d E =-.254644E-03
       N       E                     dE             d eps       ncg     rms          rms(c)
DAV:   1    -0.134112975351E+03   -0.55889E-04   -0.27793E-02  6476   0.731E-01    0.225E-02
DAV:   2    -0.134113025986E+03   -0.50635E-04   -0.64921E-04  7092   0.110E-01    0.143E-02
DAV:   3    -0.134113018443E+03    0.75425E-05   -0.16668E-05  4248   0.267E-02    0.104E-02
DAV:   4    -0.134113009110E+03    0.93336E-05   -0.66572E-06  4284   0.272E-02    0.527E-03
DAV:   5    -0.134113001253E+03    0.78570E-05   -0.94644E-06  4454   0.366E-02    0.437E-03
DAV:   6    -0.134112995934E+03    0.53191E-05   -0.17664E-05  5334   0.495E-02
  21 F= -.13411300E+03 E0= -.13411176E+03  d E =-.764697E-04
