 vasp.5.3.5 31Mar14 (build Apr 08 2024 10:12:10) complex                        
  
 executed on             LinuxIFC date 2024.07.29  09:57:18
 running on    8 total cores
 distrk:  each k-point on    8 cores,    1 groups
 distr:  one band on NCORES_PER_BAND=   4 cores,    2 groups


--------------------------------------------------------------------------------------------------------


 INCAR:
 POTCAR:    PAW_PBE O 08Apr2002                   
 POTCAR:    PAW_PBE Mg 13Apr2007                  
 POTCAR:    PAW_PBE Al 04Jan2001                  
 POTCAR:    PAW_PBE O 08Apr2002                   
   VRHFIN =O: s2p4                                                              
   LEXCH  = PE                                                                  
   EATOM  =   432.3788 eV,   31.7789 Ry                                         
                                                                                
   TITEL  = PAW_PBE O 08Apr2002                                                 
   LULTRA =        F    use ultrasoft PP ?                                      
   IUNSCR =        1    unscreen: 0-lin 1-nonlin 2-no                           
   RPACOR =    1.200    partial core radius                                     
   POMASS =   16.000; ZVAL   =    6.000    mass and valenz                      
   RCORE  =    1.520    outmost cutoff radius                                   
   RWIGS  =    1.550; RWIGS  =    0.820    wigner-seitz radius (au A)           
   ENMAX  =  400.000; ENMIN  =  300.000 eV                                      
   ICORE  =        2    local potential                                         
   LCOR   =        T    correct aug charges                                     
   LPAW   =        T    paw PP                                                  
   EAUG   =  605.392                                                            
   DEXC   =    0.000                                                            
   RMAX   =    1.553    core radius for proj-oper                               
   RAUG   =    1.300    factor for augmentation sphere                          
   RDEP   =    1.550    radius for radial grids                                 
   RDEPT  =    1.329    core radius for aug-charge                              
                                                                                
   Atomic configuration                                                         
    4 entries                                                                   
     n  l   j            E        occ.                                          
     1  0  0.50      -514.6923   2.0000                                         
     2  0  0.50       -23.9615   2.0000                                         
     2  1  0.50        -9.0305   4.0000                                         
     3  2  1.50        -9.5241   0.0000                                         
   Description                                                                  
     l       E           TYP  RCUT    TYP  RCUT                                 
     0    -23.9615318     23  1.200                                             
     0     -9.5240782     23  1.200                                             
     1     -9.0304911     23  1.520                                             
     1      8.1634956     23  1.520                                             
     2     -9.5240782      7  1.500                                             
  local pseudopotential read in
  partial core-charges read in
  partial kinetic energy density read in
  kinetic energy density of atom read in
  atomic valenz-charges read in
  non local Contribution for L=           0  read in
    real space projection operators read in
  non local Contribution for L=           0  read in
    real space projection operators read in
  non local Contribution for L=           1  read in
    real space projection operators read in
  non local Contribution for L=           1  read in
    real space projection operators read in
    PAW grid and wavefunctions read in
 
   number of l-projection  operators is LMAX  =           4
   number of lm-projection operators is LMMAX =           8
 
 POTCAR:    PAW_PBE Mg 13Apr2007                  
   VRHFIN =Mg: s2p0                                                             
   LEXCH  = PE                                                                  
   EATOM  =    23.0369 eV,    1.6932 Ry                                         
                                                                                
   TITEL  = PAW_PBE Mg 13Apr2007                                                
   LULTRA =        F    use ultrasoft PP ?                                      
   IUNSCR =        1    unscreen: 0-lin 1-nonlin 2-no                           
   RPACOR =    1.500    partial core radius                                     
   POMASS =   24.305; ZVAL   =    2.000    mass and valenz                      
   RCORE  =    2.000    outmost cutoff radius                                   
   RWIGS  =    2.880; RWIGS  =    1.524    wigner-seitz radius (au A)           
   ENMAX  =  200.000; ENMIN  =  100.000 eV                                      
   RCLOC  =    1.506    cutoff for local pot                                    
   LCOR   =        T    correct aug charges                                     
   LPAW   =        T    paw PP                                                  
   EAUG   =  454.734                                                            
   DEXC   =    0.000                                                            
   RMAX   =    2.045    core radius for proj-oper                               
   RAUG   =    1.300    factor for augmentation sphere                          
   RDEP   =    2.025    radius for radial grids                                 
   RDEPT  =    1.942    core radius for aug-charge                              
                                                                                
   Atomic configuration                                                         
    6 entries                                                                   
     n  l   j            E        occ.                                          
     1  0  0.50     -1259.6230   2.0000                                         
     2  0  0.50       -79.8442   2.0000                                         
     2  1  1.50       -46.6121   6.0000                                         
     3  0  0.50        -4.7055   2.0000                                         
     3  1  0.50        -1.3660   0.0000                                         
     3  2  1.50        -1.3606   0.0000                                         
   Description                                                                  
     l       E           TYP  RCUT    TYP  RCUT                                 
     0     -4.7054661     23  2.000                                             
     0     27.2116520     23  2.000                                             
     1      1.3605826     23  2.000                                             
     1     27.2116520     23  2.000                                             
     2     -1.3605826     23  2.000                                             
  local pseudopotential read in
  partial core-charges read in
  partial kinetic energy density read in
  atomic valenz-charges read in
  non local Contribution for L=           0  read in
    real space projection operators read in
  non local Contribution for L=           0  read in
    real space projection operators read in
  non local Contribution for L=           1  read in
    real space projection operators read in
  non local Contribution for L=           1  read in
    real space projection operators read in
  non local Contribution for L=           2  read in
    real space projection operators read in
    PAW grid and wavefunctions read in
 
   number of l-projection  operators is LMAX  =           5
   number of lm-projection operators is LMMAX =          13
 
 POTCAR:    PAW_PBE Al 04Jan2001                  
   VRHFIN =Al: s2p1                                                             
   LEXCH  = PE                                                                  
   EATOM  =    53.5387 eV,    3.9350 Ry                                         
                                                                                
   TITEL  = PAW_PBE Al 04Jan2001                                                
   LULTRA =        F    use ultrasoft PP ?                                      
   IUNSCR =        1    unscreen: 0-lin 1-nonlin 2-no                           
   RPACOR =    1.500    partial core radius                                     
   POMASS =   26.981; ZVAL   =    3.000    mass and valenz                      
   RCORE  =    1.900    outmost cutoff radius                                   
   RWIGS  =    2.650; RWIGS  =    1.402    wigner-seitz radius (au A)           
   ENMAX  =  240.300; ENMIN  =  180.225 eV                                      
   ICORE  =        2    local potential                                         
   LCOR   =        T    correct aug charges                                     
   LPAW   =        T    paw PP                                                  
   EAUG   =  291.052                                                            
   DEXC   =    0.000                                                            
   RMAX   =    1.939    core radius for proj-oper                               
   RAUG   =    1.300    factor for augmentation sphere                          
   RDEP   =    1.966    radius for radial grids                                 
   RDEPT  =    1.856    core radius for aug-charge                              
                                                                                
   Atomic configuration                                                         
    6 entries                                                                   
     n  l   j            E        occ.                                          
     1  0  0.50     -1511.1048   2.0000                                         
     2  0  0.50      -108.1629   2.0000                                         
     2  1  1.50       -69.6402   6.0000                                         
     3  0  0.50        -7.7528   2.0000                                         
     3  1  1.50        -2.7121   1.0000                                         
     3  2  2.50        -2.7212   0.0000                                         
   Description                                                                  
     l       E           TYP  RCUT    TYP  RCUT                                 
     0     -7.7528455     23  1.900                                             
     0     -3.3096929     23  1.900                                             
     1     -2.7120682     23  1.900                                             
     1     13.6058260     23  1.900                                             
     2     -2.7211652      7  1.900                                             
  local pseudopotential read in
  partial core-charges read in
  partial kinetic energy density read in
  atomic valenz-charges read in
  non local Contribution for L=           0  read in
    real space projection operators read in
  non local Contribution for L=           0  read in
    real space projection operators read in
  non local Contribution for L=           1  read in
    real space projection operators read in
  non local Contribution for L=           1  read in
    real space projection operators read in
    PAW grid and wavefunctions read in
 
   number of l-projection  operators is LMAX  =           4
   number of lm-projection operators is LMMAX =           8
 

 ----------------------------------------------------------------------------- 
|                                                                             |
|  ADVICE TO THIS USER RUNNING 'VASP/VAMP'   (HEAR YOUR MASTER'S VOICE ...):  |
|                                                                             |
|      You have a (more or less) 'large supercell' and for larger cells       |
|      it might be more efficient to use real space projection opertators     |
|      So try LREAL= Auto  in the INCAR   file.                               |
|      Mind: At the moment your POTCAR file does not contain real space       |
|       projectors, and has to be modified,  BUT if you                       |
|      want to do an extremely  accurate calculation you might also keep the  |
|      reciprocal projection scheme          (i.e. LREAL=.FALSE.)             |
|                                                                             |
 ----------------------------------------------------------------------------- 

  PAW_PBE O 08Apr2002                   :
 energy of atom  1       EATOM= -432.3788
 kinetic energy error for atom=    0.0208 (will be added to EATOM!!)
  PAW_PBE Mg 13Apr2007                  :
 energy of atom  2       EATOM=  -23.0369
 kinetic energy error for atom=    0.0000 (will be added to EATOM!!)
  PAW_PBE Al 04Jan2001                  :
 energy of atom  3       EATOM=  -53.5387
 kinetic energy error for atom=    0.0002 (will be added to EATOM!!)
 
 
 POSCAR: Layer                                   
  positions in direct lattice
  velocities in cartesian coordinates
 exchange correlation table for  LEXCH =        8
   RHO(1)=    0.500       N(1)  =     2000
   RHO(2)=  100.500       N(2)  =     4000
 


--------------------------------------------------------------------------------------------------------


 ion  position               nearest neighbor table
   1  0.550  0.450  0.343-  14 2.12  15 2.13  14 2.13  14 2.13  15 2.13  15 2.13
   2  0.500  0.500  0.526-  16 2.12  17 2.12  16 2.13  16 2.13  17 2.13  17 2.13
   3  0.450  0.550  0.709-  18 2.13  19 2.13  19 2.13  19 2.13  18 2.13  18 2.13
   4  0.236  0.764  0.282-  14 2.12  14 2.13  14 2.13  10 2.14  10 2.14  10 2.14
   5  0.866  0.134  0.404-  11 2.12  15 2.12  15 2.13  15 2.13  11 2.13  11 2.13
   6  0.183  0.817  0.465-  11 2.12  16 2.12  11 2.13  11 2.13  16 2.13  16 2.13
   7  0.817  0.183  0.587-  12 2.12  17 2.12  12 2.13  12 2.13  17 2.13  17 2.13
   8  0.134  0.866  0.648-  12 2.12  18 2.12  18 2.13  18 2.13  12 2.13  12 2.13
   9  0.764  0.236  0.770-  19 2.13  19 2.13  19 2.13  13 2.14  13 2.14  13 2.14
  10  0.578  0.422  0.251-   4 2.14   4 2.14   4 2.14  21 2.96  21 2.96  21 2.97  14 3.04  14 3.04
                            14 3.04
  11  0.524  0.476  0.434-   6 2.12   5 2.12   5 2.13   5 2.13   6 2.13   6 2.13  16 3.02  16 3.02
                            15 3.02  15 3.02  15 3.03  16 3.03
  12  0.476  0.524  0.617-   7 2.12   8 2.12   8 2.13   8 2.13   7 2.13   7 2.13  17 3.02  17 3.02
                            18 3.02  18 3.02  18 3.03  17 3.03
  13  0.421  0.579  0.801-   9 2.14   9 2.14   9 2.14  24 2.96  24 2.96  24 2.98  19 3.04  19 3.04
                            19 3.04
  14  0.893  0.107  0.312-   1 2.12   4 2.12   4 2.13   4 2.13   1 2.13   1 2.13  15 3.02  15 3.02
                            15 3.02  10 3.04  10 3.04  10 3.04
  15  0.208  0.792  0.373-   5 2.12   1 2.13   5 2.13   5 2.13   1 2.13   1 2.13  11 3.02  11 3.02
                            14 3.02  14 3.02  14 3.02  11 3.03
  16  0.841  0.159  0.495-   2 2.12   6 2.12   2 2.13   2 2.13   6 2.13   6 2.13  17 3.02  17 3.02
                            11 3.02  11 3.02  11 3.03  17 3.03
  17  0.159  0.841  0.556-   7 2.12   2 2.12   7 2.13   7 2.13   2 2.13   2 2.13  12 3.02  12 3.02
                            16 3.02  16 3.02  12 3.03  16 3.03
  18  0.792  0.208  0.678-   8 2.12   3 2.13   8 2.13   8 2.13   3 2.13   3 2.13  12 3.02  12 3.02
                            19 3.02  19 3.02  19 3.03  12 3.03
  19  0.107  0.893  0.739-   9 2.13   3 2.13   9 2.13   9 2.13   3 2.13   3 2.13  18 3.02  18 3.02
                            18 3.03  13 3.04  13 3.04  13 3.04
  20  1.000  0.000  0.026-  25 2.82  23 2.82  23 2.85  23 2.85  25 2.85  25 2.85
  21  0.933  0.067  0.192-  22 2.81  22 2.83  22 2.83  10 2.96  10 2.96  10 2.97
  22  0.620  0.380  0.137-  21 2.81  21 2.83  21 2.83  23 2.83  23 2.86  23 2.86
  23  0.310  0.690  0.081-  20 2.82  22 2.83  20 2.85  20 2.85  22 2.86  22 2.86
  24  0.067  0.933  0.860-  26 2.81  26 2.83  26 2.83  13 2.96  13 2.96  13 2.98
  25  0.690  0.310  0.970-  20 2.82  26 2.83  20 2.85  20 2.85  26 2.86  26 2.86
  26  0.380  0.620  0.915-  24 2.81  24 2.83  24 2.83  25 2.83  25 2.86  25 2.86
 
  LATTYP: Found a base centered monoclinic cell.
 ALAT       =     5.1835214829
 B/A-ratio  =     0.5778353023
 C/A-ratio  =     8.0245148375
 COS(beta)  =    -0.1818163410
  
  Lattice vectors:
  
 A1 = (  -2.5925900058,   1.4952752266,  -0.0518951648)
 A2 = (   0.0013482762,   2.9928857368,  -0.0518951490)
 A3 = (   4.7735158528,  -8.2679694689, -40.4847951459)


Analysis of symmetry for initial positions (statically):
=====================================================================
 Subroutine PRICEL returns:
 Original cell was already a primitive cell.
 

 Routine SETGRP: Setting up the symmetry group for a 
 base centered monoclinic supercell.


 Subroutine GETGRP returns: Found  2 space group operations
 (whereof  2 operations were pure point group operations)
 out of a pool of  4 trial point group operations.


The static configuration has the point symmetry C_1h.


Analysis of symmetry for dynamics (positions and initial velocities):
=====================================================================
 Subroutine PRICEL returns:
 Original cell was already a primitive cell.
 

 Routine SETGRP: Setting up the symmetry group for a 
 base centered monoclinic supercell.


 Subroutine GETGRP returns: Found  2 space group operations
 (whereof  2 operations were pure point group operations)
 out of a pool of  4 trial point group operations.


The dynamic configuration has the point symmetry C_1h.


Analysis of constrained symmetry for selective dynamics:
=====================================================================
 Subroutine PRICEL returns:
 Original cell was already a primitive cell.
 

 Routine SETGRP: Setting up the symmetry group for a 
 base centered monoclinic supercell.


 Subroutine GETGRP returns: Found  2 space group operations
 (whereof  2 operations were pure point group operations)
 out of a pool of  4 trial point group operations.


The constrained configuration has the point symmetry C_1h.
 
 
 KPOINTS: K-Spacing Value to Generate K-Mesh: 0.02

Automatic generation of k-mesh.
Space group operators:
 irot       det(A)        alpha          n_x          n_y          n_z        tau_x        tau_y        tau_z
    1     1.000000     0.000001     1.000000     0.000000     0.000000     0.000000     0.000000     0.000000
    2    -1.000000   180.000000     0.866025     0.500000     0.000000     0.000000     0.000000     0.000000
 
 Subroutine IBZKPT returns following result:
 ===========================================
 
 Found     49 irreducible k-points:
 
 Following reciprocal coordinates:
            Coordinates               Weight
  0.000000  0.000000  0.000000      1.000000
  0.076923 -0.000000  0.000000      4.000000
  0.153846  0.000000  0.000000      4.000000
  0.230769 -0.000000 -0.000000      4.000000
  0.307692 -0.000000  0.000000      4.000000
  0.384615 -0.000000 -0.000000      4.000000
  0.461538 -0.000000 -0.000000      4.000000
  0.076923  0.076923 -0.000000      2.000000
  0.153846  0.076923  0.000000      4.000000
  0.230769  0.076923 -0.000000      4.000000
  0.307692  0.076923  0.000000      4.000000
  0.384615  0.076923  0.000000      4.000000
  0.461538  0.076923 -0.000000      4.000000
 -0.461538  0.076923 -0.000000      4.000000
 -0.384615  0.076923  0.000000      4.000000
 -0.307692  0.076923  0.000000      4.000000
 -0.230769  0.076923  0.000000      4.000000
 -0.153846  0.076923 -0.000000      4.000000
 -0.076923  0.076923 -0.000000      2.000000
  0.153846  0.153846  0.000000      2.000000
  0.230769  0.153846 -0.000000      4.000000
  0.307692  0.153846  0.000000      4.000000
  0.384615  0.153846  0.000000      4.000000
  0.461538  0.153846  0.000000      4.000000
 -0.461538  0.153846  0.000000      4.000000
 -0.384615  0.153846  0.000000      4.000000
 -0.307692  0.153846 -0.000000      4.000000
 -0.230769  0.153846 -0.000000      4.000000
 -0.153846  0.153846  0.000000      2.000000
  0.230769  0.230769  0.000000      2.000000
  0.307692  0.230769  0.000000      4.000000
  0.384615  0.230769  0.000000      4.000000
  0.461538  0.230769  0.000000      4.000000
 -0.461538  0.230769  0.000000      4.000000
 -0.384615  0.230769  0.000000      4.000000
 -0.307692  0.230769 -0.000000      4.000000
 -0.230769  0.230769 -0.000000      2.000000
  0.307692  0.307692  0.000000      2.000000
  0.384615  0.307692  0.000000      4.000000
  0.461538  0.307692 -0.000000      4.000000
 -0.461538  0.307692 -0.000000      4.000000
 -0.384615  0.307692  0.000000      4.000000
 -0.307692  0.307692  0.000000      2.000000
  0.384615  0.384615 -0.000000      2.000000
  0.461538  0.384615  0.000000      4.000000
 -0.461538  0.384615 -0.000000      4.000000
 -0.384615  0.384615  0.000000      2.000000
  0.461538  0.461538  0.000000      2.000000
 -0.461538  0.461538 -0.000000      2.000000
 
 Following cartesian coordinates:
            Coordinates               Weight
  0.000000  0.000000  0.000000      1.000000
  0.029666 -0.000019 -0.000298      4.000000
  0.059331 -0.000037 -0.000597      4.000000
  0.088997 -0.000056 -0.000895      4.000000
  0.118663 -0.000074 -0.001194      4.000000
  0.148328 -0.000093 -0.001492      4.000000
  0.177994 -0.000111 -0.001791      4.000000
  0.044482  0.025682  0.000000      2.000000
  0.074148  0.025663 -0.000298      4.000000
  0.103814  0.025645 -0.000597      4.000000
  0.133479  0.025626 -0.000895      4.000000
  0.163145  0.025608 -0.001194      4.000000
  0.192811  0.025589 -0.001492      4.000000
 -0.163177  0.025812  0.002089      4.000000
 -0.133511  0.025793  0.001791      4.000000
 -0.103846  0.025775  0.001492      4.000000
 -0.074180  0.025756  0.001194      4.000000
 -0.044515  0.025738  0.000895      4.000000
 -0.014849  0.025719  0.000597      2.000000
  0.088965  0.051364  0.000000      2.000000
  0.118630  0.051345 -0.000298      4.000000
  0.148296  0.051327 -0.000597      4.000000
  0.177962  0.051308 -0.000895      4.000000
  0.207627  0.051290 -0.001194      4.000000
 -0.148360  0.051512  0.002388      4.000000
 -0.118695  0.051494  0.002089      4.000000
 -0.089029  0.051475  0.001791      4.000000
 -0.059363  0.051457  0.001492      4.000000
 -0.029698  0.051438  0.001194      2.000000
  0.133447  0.077046  0.000000      2.000000
  0.163113  0.077027 -0.000298      4.000000
  0.192778  0.077009 -0.000597      4.000000
  0.222444  0.076990 -0.000895      4.000000
 -0.133544  0.077213  0.002686      4.000000
 -0.103878  0.077194  0.002388      4.000000
 -0.074212  0.077176  0.002089      4.000000
 -0.044547  0.077157  0.001791      2.000000
  0.177930  0.102728  0.000000      2.000000
  0.207595  0.102709 -0.000298      4.000000
  0.237261  0.102691 -0.000597      4.000000
 -0.118727  0.102913  0.002985      4.000000
 -0.089061  0.102895  0.002686      4.000000
 -0.059396  0.102876  0.002388      2.000000
  0.222412  0.128410  0.000000      2.000000
  0.252078  0.128391 -0.000298      4.000000
 -0.103910  0.128614  0.003283      4.000000
 -0.074244  0.128595  0.002985      2.000000
  0.266894  0.154092  0.000000      2.000000
 -0.089093  0.154314  0.003582      2.000000
 


--------------------------------------------------------------------------------------------------------




 Dimension of arrays:
   k-points           NKPTS =     49   k-points in BZ     NKDIM =     49   number of bands    NBANDS=     62
   number of dos      NEDOS =    301   number of ions     NIONS =     26
   non local maximal  LDIM  =      5   non local SUM 2l+1 LMDIM =     13
   total plane-waves  NPLWV = 184320
   max r-space proj   IRMAX =      1   max aug-charges    IRDMAX= 198589
   dimension x,y,z NGX =    24 NGY =   24 NGZ =  320
   dimension x,y,z NGXF=    48 NGYF=   48 NGZF=  640
   support grid    NGXF=    96 NGYF=   96 NGZF= 1280
   ions per type =               9  10   7
 NGX,Y,Z   is equivalent  to a cutoff of  13.33, 13.33, 13.07 a.u.
 NGXF,Y,Z  is equivalent  to a cutoff of  26.66, 26.66, 26.14 a.u.


 I would recommend the setting:
   dimension x,y,z NGX =    22 NGY =   22 NGZ =  303
 SYSTEM =  unknown system                          
 POSCAR =  Layer                                   

 Startparameter for this run:
   NWRITE =      2    write-flag & timer
   PREC   = accura    normal or accurate (medium, high low for compatibility)
   ISTART =      0    job   : 0-new  1-cont  2-samecut
   ICHARG =      2    charge: 1-file 2-atom 10-const
   ISPIN  =      1    spin polarized calculation?
   LNONCOLLINEAR =      F non collinear calculations
   LSORBIT =      F    spin-orbit coupling
   INIWAV =      1    electr: 0-lowe 1-rand  2-diag
   LASPH  =      F    aspherical Exc in radial PAW
   METAGGA=      F    non-selfconsistent MetaGGA calc.

 Electronic Relaxation 1
   ENCUT  =  520.0 eV  38.22 Ry    6.18 a.u.   5.57  5.57 75.68*2*pi/ulx,y,z
   ENINI  =  520.0     initial cutoff
   ENAUG  =  605.4 eV  augmentation charge cutoff
   NELM   =    100;   NELMIN=  6; NELMDL=  0     # of ELM steps 
   EDIFF  = 0.1E-04   stopping-criterion for ELM
   LREAL  =      F    real-space projection
   NLSPLINE    = F    spline interpolate recip. space projectors
   LCOMPAT=      F    compatible to vasp.4.4
   GGA_COMPAT  = T    GGA compatible to vasp.4.4-vasp.4.6
   LMAXPAW     = -100 max onsite density
   LMAXMIX     =    2 max onsite mixed and CHGCAR
   VOSKOWN=      0    Vosko Wilk Nusair interpolation
   ROPT   =    0.00000   0.00000   0.00000
 Ionic relaxation
   EDIFFG = -.2E-01   stopping-criterion for IOM
   NSW    =    500    number of steps for IOM
   NBLOCK =      1;   KBLOCK =    500    inner block; outer block 
   IBRION =      2    ionic relax: 0-MD 1-quasi-New 2-CG
   NFREE  =      1    steps in history (QN), initial steepest desc. (CG)
   ISIF   =      2    stress and relaxation
   IWAVPR =     11    prediction:  0-non 1-charg 2-wave 3-comb
   ISYM   =      2    0-nonsym 1-usesym 2-fastsym
   LCORR  =      T    Harris-Foulkes like correction to forces

   POTIM  = 0.5000    time-step for ionic-motion
   TEIN   =    0.0    initial temperature
   TEBEG  =    0.0;   TEEND  =   0.0 temperature during run
   SMASS  =  -3.00    Nose mass-parameter (am)
   estimated Nose-frequenzy (Omega)   =  0.10E-29 period in steps =****** mass=  -0.205E-27a.u.
   SCALEE = 1.0000    scale energy and forces
   NPACO  =    256;   APACO  = 16.0  distance and # of slots for P.C.
   PSTRESS=    0.0 pullay stress

  Mass of Ions in am
   POMASS =  16.00 24.30 26.98
  Ionic Valenz
   ZVAL   =   6.00  2.00  3.00
  Atomic Wigner-Seitz radii
   RWIGS  =  -1.00 -1.00 -1.00
  virtual crystal weights 
   VCA    =   1.00  1.00  1.00
   NELECT =      95.0000    total number of electrons
   NUPDOWN=      -1.0000    fix difference up-down

 DOS related values:
   EMIN   =  10.00;   EMAX   =-10.00  energy-range for DOS
   EFERMI =   0.00
   ISMEAR =     0;   SIGMA  =   0.05  broadening in eV -4-tet -1-fermi 0-gaus

 Electronic relaxation 2 (details)
   IALGO  =     38    algorithm
   LDIAG  =      T    sub-space diagonalisation (order eigenvalues)
   LSUBROT=      F    optimize rotation matrix (better conditioning)
   TURBO    =      0    0=normal 1=particle mesh
   IRESTART =      0    0=no restart 2=restart with 2 vectors
   NREBOOT  =      0    no. of reboots
   NMIN     =      0    reboot dimension
   EREF     =   0.00    reference energy to select bands
   IMIX   =      4    mixing-type and parameters
     AMIX     =   0.40;   BMIX     =  1.00
     AMIX_MAG =   1.60;   BMIX_MAG =  1.00
     AMIN     =   0.01
     WC   =   100.;   INIMIX=   1;  MIXPRE=   1;  MAXMIX= -45

 Intra band minimization:
   WEIMIN = 0.0010     energy-eigenvalue tresh-hold
   EBREAK =  0.40E-07  absolut break condition
   DEPER  =   0.30     relativ break condition  

   TIME   =   0.40     timestep for ELM

  volume/ion in A,a.u.               =      12.14        81.94
  Fermi-wavevector in a.u.,A,eV,Ry     =   1.097045  2.073114 16.374711  1.203507
  Thomas-Fermi vector in A             =   2.233398
 
 Write flags
   LWAVE  =      F    write WAVECAR
   LCHARG =      T    write CHGCAR
   LVTOT  =      F    write LOCPOT, total local potential
   LVHAR  =      F    write LOCPOT, Hartree potential only
   LELF   =      F    write electronic localiz. function (ELF)
   LORBIT =      0    0 simple, 1 ext, 2 COOP (PROOUT)


 Dipole corrections
   LMONO  =      F    monopole corrections only (constant potential shift)
   LDIPOL =      F    correct potential (dipole corrections)
   IDIPOL =      0    1-x, 2-y, 3-z, 4-all directions 
   EPSILON=  1.0000000 bulk dielectric constant

 Exchange correlation treatment:
   GGA     =    --    GGA type
   LEXCH   =     8    internal setting for exchange type
   VOSKOWN=      0    Vosko Wilk Nusair interpolation
   LHFCALC =     F    Hartree Fock is set to
   LHFONE  =     F    Hartree Fock one center treatment
   AEXX    =    0.0000 exact exchange contribution

 Linear response parameters
   LEPSILON=     F    determine dielectric tensor
   LRPA    =     F    only Hartree local field effects (RPA)
   LNABLA  =     F    use nabla operator in PAW spheres
   LVEL    =     F    velocity operator in full k-point grid
   LINTERFAST=   F  fast interpolation
   KINTER  =     0    interpolate to denser k-point grid
   CSHIFT  =0.1000    complex shift for real part using Kramers Kronig
   OMEGAMAX=  -1.0    maximum frequency
   DEG_THRESHOLD= 0.2000000E-02 threshold for treating states as degnerate
   RTIME   =    0.100 relaxation time in fs

 Orbital magnetization related:
   ORBITALMAG=     F  switch on orbital magnetization
   LCHIMAG   =     F  perturbation theory with respect to B field
   DQ        =  0.001000  dq finite difference perturbation B field



--------------------------------------------------------------------------------------------------------


 conjugate gradient relaxation of ions
   using selective dynamics as specified on POSCAR
 charge density and potential will be updated during run
 non-spin polarized calculation
 Variant of blocked Davidson
 Davidson routine will perform the subspace rotation
 perform sub-space diagonalisation
    after iterative eigenvector-optimisation
 modified Broyden-mixing scheme, WC =      100.0
 initial mixing is a Kerker type mixing with AMIX =  0.4000 and BMIX =      1.0000
 Hartree-type preconditioning will be used
 using additional bands           14
 reciprocal scheme for non local part
 use partial core corrections
 calculate Harris-corrections to forces 
   (improved forces if not selfconsistent)
 use gradient corrections 
 use of overlap-Matrix (Vanderbilt PP)
 Gauss-broadening in eV      SIGMA  =   0.05


--------------------------------------------------------------------------------------------------------


  energy-cutoff  :      520.00
  volume of cell :      315.70
      direct lattice vectors                 reciprocal lattice vectors
     2.592590006 -1.495275227  0.051895165     0.385653333 -0.000241013 -0.003880099
     0.001348276  2.992885737 -0.051895149     0.192617943  0.334106192  0.003880099
     0.408967606 -0.708352458 40.692375773    -0.000246179  0.000426394  0.024584525

  length of vectors
     2.993336608  2.993335925 40.700595374     0.385672927  0.385673015  0.024589454


 
 k-points in units of 2pi/SCALE and weight: K-Spacing Value to Generate K-Mesh: 0.02
   0.00000000  0.00000000  0.00000000       0.006
   0.02966564 -0.00001854 -0.00029847       0.024
   0.05933128 -0.00003708 -0.00059694       0.024
   0.08899692 -0.00005562 -0.00089541       0.024
   0.11866256 -0.00007416 -0.00119388       0.024
   0.14832821 -0.00009270 -0.00149235       0.024
   0.17799385 -0.00011124 -0.00179081       0.024
   0.04448241  0.02568194  0.00000000       0.012
   0.07414805  0.02566340 -0.00029847       0.024
   0.10381369  0.02564486 -0.00059694       0.024
   0.13347933  0.02562632 -0.00089541       0.024
   0.16314497  0.02560778 -0.00119388       0.024
   0.19281061  0.02558924 -0.00149235       0.024
  -0.16317708  0.02581171  0.00208928       0.024
  -0.13351144  0.02579317  0.00179081       0.024
  -0.10384580  0.02577463  0.00149235       0.024
  -0.07418016  0.02575609  0.00119388       0.024
  -0.04451452  0.02573756  0.00089541       0.024
  -0.01484888  0.02571902  0.00059694       0.012
   0.08896481  0.05136387  0.00000000       0.012
   0.11863045  0.05134533 -0.00029847       0.024
   0.14829609  0.05132679 -0.00059694       0.024
   0.17796173  0.05130826 -0.00089541       0.024
   0.20762738  0.05128972 -0.00119388       0.024
  -0.14836032  0.05151219  0.00238775       0.024
  -0.11869468  0.05149365  0.00208928       0.024
  -0.08902903  0.05147511  0.00179081       0.024
  -0.05936339  0.05145657  0.00149235       0.024
  -0.02969775  0.05143803  0.00119388       0.012
   0.13344722  0.07704581  0.00000000       0.012
   0.16311286  0.07702727 -0.00029847       0.024
   0.19277850  0.07700873 -0.00059694       0.024
   0.22244414  0.07699019 -0.00089541       0.024
  -0.13354355  0.07721267  0.00268622       0.024
  -0.10387791  0.07719413  0.00238775       0.024
  -0.07421227  0.07717559  0.00208928       0.024
  -0.04454663  0.07715705  0.00179081       0.012
   0.17792962  0.10272775  0.00000000       0.012
   0.20759526  0.10270921 -0.00029847       0.024
   0.23726091  0.10269067 -0.00059694       0.024
  -0.11872679  0.10291314  0.00298469       0.024
  -0.08906115  0.10289460  0.00268622       0.024
  -0.05939550  0.10287606  0.00238775       0.012
   0.22241203  0.12840968  0.00000000       0.012
   0.25207767  0.12839114 -0.00029847       0.024
  -0.10391002  0.12861362  0.00328316       0.024
  -0.07424438  0.12859508  0.00298469       0.012
   0.26689444  0.15409162  0.00000000       0.012
  -0.08909326  0.15431409  0.00358163       0.012
 
 k-points in reciprocal lattice and weights: K-Spacing Value to Generate K-Mesh: 0.02
   0.00000000  0.00000000  0.00000000       0.006
   0.07692308 -0.00000000  0.00000000       0.024
   0.15384615  0.00000000  0.00000000       0.024
   0.23076923 -0.00000000 -0.00000000       0.024
   0.30769231 -0.00000000  0.00000000       0.024
   0.38461538 -0.00000000 -0.00000000       0.024
   0.46153846 -0.00000000 -0.00000000       0.024
   0.07692308  0.07692308 -0.00000000       0.012
   0.15384615  0.07692308  0.00000000       0.024
   0.23076923  0.07692308 -0.00000000       0.024
   0.30769231  0.07692308  0.00000000       0.024
   0.38461538  0.07692308  0.00000000       0.024
   0.46153846  0.07692308 -0.00000000       0.024
  -0.46153846  0.07692308 -0.00000000       0.024
  -0.38461538  0.07692308  0.00000000       0.024
  -0.30769231  0.07692308  0.00000000       0.024
  -0.23076923  0.07692308  0.00000000       0.024
  -0.15384615  0.07692308 -0.00000000       0.024
  -0.07692308  0.07692308 -0.00000000       0.012
   0.15384615  0.15384615  0.00000000       0.012
   0.23076923  0.15384615 -0.00000000       0.024
   0.30769231  0.15384615  0.00000000       0.024
   0.38461538  0.15384615  0.00000000       0.024
   0.46153846  0.15384615  0.00000000       0.024
  -0.46153846  0.15384615  0.00000000       0.024
  -0.38461538  0.15384615  0.00000000       0.024
  -0.30769231  0.15384615 -0.00000000       0.024
  -0.23076923  0.15384615 -0.00000000       0.024
  -0.15384615  0.15384615  0.00000000       0.012
   0.23076923  0.23076923  0.00000000       0.012
   0.30769231  0.23076923  0.00000000       0.024
   0.38461538  0.23076923  0.00000000       0.024
   0.46153846  0.23076923  0.00000000       0.024
  -0.46153846  0.23076923  0.00000000       0.024
  -0.38461538  0.23076923  0.00000000       0.024
  -0.30769231  0.23076923 -0.00000000       0.024
  -0.23076923  0.23076923 -0.00000000       0.012
   0.30769231  0.30769231  0.00000000       0.012
   0.38461538  0.30769231  0.00000000       0.024
   0.46153846  0.30769231 -0.00000000       0.024
  -0.46153846  0.30769231 -0.00000000       0.024
  -0.38461538  0.30769231  0.00000000       0.024
  -0.30769231  0.30769231  0.00000000       0.012
   0.38461538  0.38461538 -0.00000000       0.012
   0.46153846  0.38461538  0.00000000       0.024
  -0.46153846  0.38461538 -0.00000000       0.024
  -0.38461538  0.38461538  0.00000000       0.012
   0.46153846  0.46153846  0.00000000       0.012
  -0.46153846  0.46153846 -0.00000000       0.012
 
 position of ions in fractional coordinates (direct lattice) 
   0.55034591  0.44965409  0.34290523
   0.50008742  0.49991258  0.52578858
   0.44982908  0.55017092  0.70863883
   0.23555062  0.76444938  0.28198677
   0.86589780  0.13410220  0.40388697
   0.18286767  0.81713233  0.46483905
   0.81737237  0.18262763  0.58674423
   0.13430581  0.86569419  0.64769287
   0.76449319  0.23550681  0.76958508
   0.57849561  0.42150439  0.25086545
   0.52425225  0.47574775  0.43436892
   0.47598072  0.52401928  0.61720893
   0.42148274  0.57851726  0.80068865
   0.89289580  0.10710420  0.31245028
   0.20790095  0.79209905  0.37342177
   0.84145092  0.15854908  0.49532058
   0.15873042  0.84126958  0.55627059
   0.79231180  0.20768820  0.67814024
   0.10724397  0.89275603  0.73913559
   0.99975616  0.00024384  0.02578834
   0.93291896  0.06708105  0.19162273
   0.61984140  0.38015860  0.13680540
   0.30978436  0.69021564  0.08119280
   0.06674482  0.93325518  0.85999142
   0.68977111  0.31022889  0.97038575
   0.37968814  0.62031186  0.91478995
 
 position of ions in cartesian coordinates  (Angst):
   1.56766470  0.27994694 13.95885380
   1.51222617  0.37596926 21.39559561
   1.45677449  0.47201436 28.83099049
   0.72704034  1.73595060 11.44726439
   2.41027549 -1.17949731 16.47309713
   0.66530673  1.84287631 18.88249014
   2.35931705 -1.09123474 23.90895698
   0.61425249  1.93130482 26.31820615
   2.29707030 -0.98342023 31.34369712
   1.60296610  0.21880314 10.21645830
   1.53745541  0.33227094 17.67802038
   1.48714784  0.41940619 25.11320458
   1.42096766  0.53403359 32.57377395
   2.44283919 -1.23589928 12.75512296
   0.69278729  1.79527859 15.16510179
   2.38432110 -1.13454300 20.19121064
   0.64015381  1.88644243 22.60055156
   2.33175706 -1.04349946 27.62547644
   0.58152584  1.98798902 30.03641890
   2.60250475 -1.51244806  1.10125858
   2.49713429 -1.32994113  7.84251705
   1.66345615  0.11403134  5.57937493
   0.83727966  1.54501056  3.28418555
   0.52600886  2.08414723 34.95012633
   2.18556829 -0.79029315 39.50699803
   1.35933148  0.64079055 37.21248909
 


--------------------------------------------------------------------------------------------------------


 k-point  1 :   0.0000 0.0000 0.0000  plane waves:    8613
 k-point  2 :   0.0769-0.0000 0.0000  plane waves:    8606
 k-point  3 :   0.1538 0.0000 0.0000  plane waves:    8581
 k-point  4 :   0.2308-0.0000-0.0000  plane waves:    8556
 k-point  5 :   0.3077-0.0000 0.0000  plane waves:    8500
 k-point  6 :   0.3846-0.0000-0.0000  plane waves:    8455
 k-point  7 :   0.4615-0.0000-0.0000  plane waves:    8458
 k-point  8 :   0.0769 0.0769-0.0000  plane waves:    8597
 k-point  9 :   0.1538 0.0769 0.0000  plane waves:    8568
 k-point 10 :   0.2308 0.0769-0.0000  plane waves:    8518
 k-point 11 :   0.3077 0.0769 0.0000  plane waves:    8496
 k-point 12 :   0.3846 0.0769 0.0000  plane waves:    8457
 k-point 13 :   0.4615 0.0769-0.0000  plane waves:    8424
 k-point 14 :  -0.4615 0.0769-0.0000  plane waves:    8452
 k-point 15 :  -0.3846 0.0769 0.0000  plane waves:    8492
 k-point 16 :  -0.3077 0.0769 0.0000  plane waves:    8522
 k-point 17 :  -0.2308 0.0769 0.0000  plane waves:    8568
 k-point 18 :  -0.1538 0.0769-0.0000  plane waves:    8600
 k-point 19 :  -0.0769 0.0769-0.0000  plane waves:    8607
 k-point 20 :   0.1538 0.1538 0.0000  plane waves:    8525
 k-point 21 :   0.2308 0.1538-0.0000  plane waves:    8504
 k-point 22 :   0.3077 0.1538 0.0000  plane waves:    8483
 k-point 23 :   0.3846 0.1538 0.0000  plane waves:    8451
 k-point 24 :   0.4615 0.1538 0.0000  plane waves:    8448
 k-point 25 :  -0.4615 0.1538 0.0000  plane waves:    8477
 k-point 26 :  -0.3846 0.1538 0.0000  plane waves:    8498
 k-point 27 :  -0.3077 0.1538-0.0000  plane waves:    8527
 k-point 28 :  -0.2308 0.1538-0.0000  plane waves:    8567
 k-point 29 :  -0.1538 0.1538 0.0000  plane waves:    8585
 k-point 30 :   0.2308 0.2308 0.0000  plane waves:    8496
 k-point 31 :   0.3077 0.2308 0.0000  plane waves:    8461
 k-point 32 :   0.3846 0.2308 0.0000  plane waves:    8482
 k-point 33 :   0.4615 0.2308 0.0000  plane waves:    8455
 k-point 34 :  -0.4615 0.2308 0.0000  plane waves:    8494
 k-point 35 :  -0.3846 0.2308 0.0000  plane waves:    8507
 k-point 36 :  -0.3077 0.2308-0.0000  plane waves:    8518
 k-point 37 :  -0.2308 0.2308-0.0000  plane waves:    8546
 k-point 38 :   0.3077 0.3077 0.0000  plane waves:    8496
 k-point 39 :   0.3846 0.3077 0.0000  plane waves:    8489
 k-point 40 :   0.4615 0.3077-0.0000  plane waves:    8453
 k-point 41 :  -0.4615 0.3077-0.0000  plane waves:    8489
 k-point 42 :  -0.3846 0.3077 0.0000  plane waves:    8501
 k-point 43 :  -0.3077 0.3077 0.0000  plane waves:    8503
 k-point 44 :   0.3846 0.3846-0.0000  plane waves:    8478
 k-point 45 :   0.4615 0.3846 0.0000  plane waves:    8440
 k-point 46 :  -0.4615 0.3846-0.0000  plane waves:    8457
 k-point 47 :  -0.3846 0.3846 0.0000  plane waves:    8467
 k-point 48 :   0.4615 0.4615 0.0000  plane waves:    8430
 k-point 49 :  -0.4615 0.4615-0.0000  plane waves:    8459

 maximum and minimum number of plane-waves per node :      2186     2084

 maximum number of plane-waves:      8613
 maximum index in each direction: 
   IXMAX=    6   IYMAX=    5   IZMAX=   75
   IXMIN=   -6   IYMIN=   -6   IZMIN=  -75

 WARNING: aliasing errors must be expected set NGX to  26 to avoid them
 NGY is ok and might be reduce to  24
 NGZ is ok and might be reduce to 302
 aliasing errors are usually negligible using standard VASP settings
 and one can safely disregard these warnings

 parallel 3D FFT for wavefunctions:
    minimum data exchange during FFTs selected (reduces bandwidth)
 parallel 3D FFT for charge:
    minimum data exchange during FFTs selected (reduces bandwidth)


 total amount of memory used by VASP on root node   196550. kBytes
========================================================================

   base      :      30000. kBytes
   nonl-proj :      34328. kBytes
   fftplans  :      55170. kBytes
   grid      :      22118. kBytes
   one-center:         56. kBytes
   wavefun   :      54878. kBytes
 
     INWAV:  cpu time    0.00: real time    0.00
 Broyden mixing: mesh for mixing (old mesh)
   NGX = 11   NGY = 11   NGZ =151
  (NGX  = 48   NGY  = 48   NGZ  =640)
  gives a total of  18271 points

 initial charge density was supplied:
 charge density of overlapping atoms calculated
 number of electron      95.0000000 magnetization 
 keeping initial charge density in first step


--------------------------------------------------------------------------------------------------------


 Maximum index for augmentation-charges        24199 (set IRDMAX)


--------------------------------------------------------------------------------------------------------


 First call to EWALD:  gamma=   0.260
 Maximum number of real-space cells 6x 6x 1
 Maximum number of reciprocal cells 1x 1x14

 FEWALD executed in parallel
    FEWALD:  cpu time    0.00: real time    0.00


----------------------------------------- Iteration    1(   1)  ---------------------------------------


    POTLOK:  cpu time    0.10: real time    0.10
    SETDIJ:  cpu time    0.10: real time    0.10
     EDDAV:  cpu time    8.96: real time    8.97
       DOS:  cpu time    0.00: real time    0.00
    --------------------------------------------
      LOOP:  cpu time    9.17: real time    9.18

 eigenvalue-minimisations  :  6100
 total energy-change (2. order) : 0.4648999E+03  (-0.4178294E+04)
 number of electron      95.0000000 magnetization 
 augmentation part       95.0000000 magnetization 

 Free energy of the ion-electron system (eV)
  ---------------------------------------------------
  alpha Z        PSCENC =       128.07775820
  Ewald energy   TEWEN  =     11342.50480691
  -Hartree energ DENC   =    -16136.32359593
  -exchange      EXHF   =         0.00000000
  -V(xc)+E(xc)   XCENC  =      -418.03136960
  PAW double counting   =      4235.41334458    -3509.29226066
  entropy T*S    EENTRO =        -0.00515610
  eigenvalues    EBANDS =       326.19663708
  atomic energy  EATOM  =      4496.35971583
  ---------------------------------------------------
  free energy    TOTEN  =       464.89988030 eV

  energy without entropy =      464.90503639  energy(sigma->0) =      464.90245835


--------------------------------------------------------------------------------------------------------




----------------------------------------- Iteration    1(   2)  ---------------------------------------


     EDDAV:  cpu time   10.43: real time   10.43
       DOS:  cpu time    0.00: real time    0.00
    --------------------------------------------
      LOOP:  cpu time   10.43: real time   10.44

 eigenvalue-minimisations  :  7856
 total energy-change (2. order) :-0.5614241E+03  (-0.5335796E+03)
 number of electron      95.0000000 magnetization 
 augmentation part       95.0000000 magnetization 

 Free energy of the ion-electron system (eV)
  ---------------------------------------------------
  alpha Z        PSCENC =       128.07775820
  Ewald energy   TEWEN  =     11342.50480691
  -Hartree energ DENC   =    -16136.32359593
  -exchange      EXHF   =         0.00000000
  -V(xc)+E(xc)   XCENC  =      -418.03136960
  PAW double counting   =      4235.41334458    -3509.29226066
  entropy T*S    EENTRO =        -0.00379208
  eigenvalues    EBANDS =      -235.22884213
  atomic energy  EATOM  =      4496.35971583
  ---------------------------------------------------
  free energy    TOTEN  =       -96.52423489 eV

  energy without entropy =      -96.52044282  energy(sigma->0) =      -96.52233885


--------------------------------------------------------------------------------------------------------




----------------------------------------- Iteration    1(   3)  ---------------------------------------


     EDDAV:  cpu time    9.70: real time    9.71
       DOS:  cpu time    0.00: real time    0.00
    --------------------------------------------
      LOOP:  cpu time    9.71: real time    9.71

 eigenvalue-minimisations  :  7122
 total energy-change (2. order) :-0.5147605E+02  (-0.5119314E+02)
 number of electron      95.0000000 magnetization 
 augmentation part       95.0000000 magnetization 

 Free energy of the ion-electron system (eV)
  ---------------------------------------------------
  alpha Z        PSCENC =       128.07775820
  Ewald energy   TEWEN  =     11342.50480691
  -Hartree energ DENC   =    -16136.32359593
  -exchange      EXHF   =         0.00000000
  -V(xc)+E(xc)   XCENC  =      -418.03136960
  PAW double counting   =      4235.41334458    -3509.29226066
  entropy T*S    EENTRO =        -0.00158564
  eigenvalues    EBANDS =      -286.70709441
  atomic energy  EATOM  =      4496.35971583
  ---------------------------------------------------
  free energy    TOTEN  =      -148.00028074 eV

  energy without entropy =     -147.99869510  energy(sigma->0) =     -147.99948792


--------------------------------------------------------------------------------------------------------




----------------------------------------- Iteration    1(   4)  ---------------------------------------


     EDDAV:  cpu time    9.65: real time    9.65
       DOS:  cpu time    0.00: real time    0.00
    --------------------------------------------
      LOOP:  cpu time    9.65: real time    9.66

 eigenvalue-minimisations  :  7128
 total energy-change (2. order) :-0.6515525E+00  (-0.6502517E+00)
 number of electron      95.0000000 magnetization 
 augmentation part       95.0000000 magnetization 

 Free energy of the ion-electron system (eV)
  ---------------------------------------------------
  alpha Z        PSCENC =       128.07775820
  Ewald energy   TEWEN  =     11342.50480691
  -Hartree energ DENC   =    -16136.32359593
  -exchange      EXHF   =         0.00000000
  -V(xc)+E(xc)   XCENC  =      -418.03136960
  PAW double counting   =      4235.41334458    -3509.29226066
  entropy T*S    EENTRO =        -0.00150230
  eigenvalues    EBANDS =      -287.35873028
  atomic energy  EATOM  =      4496.35971583
  ---------------------------------------------------
  free energy    TOTEN  =      -148.65183326 eV

  energy without entropy =     -148.65033096  energy(sigma->0) =     -148.65108211


--------------------------------------------------------------------------------------------------------




----------------------------------------- Iteration    1(   5)  ---------------------------------------


     EDDAV:  cpu time    9.71: real time    9.72
       DOS:  cpu time    0.00: real time    0.00
    CHARGE:  cpu time    0.68: real time    0.68
    MIXING:  cpu time    0.00: real time    0.00
    --------------------------------------------
      LOOP:  cpu time   10.40: real time   10.40

 eigenvalue-minimisations  :  7188
 total energy-change (2. order) :-0.9630371E-02  (-0.9625524E-02)
 number of electron      95.0000000 magnetization 
 augmentation part        6.9533584 magnetization 

 Broyden mixing:
  rms(total) = 0.21941E+01    rms(broyden)= 0.21937E+01
  rms(prec ) = 0.22527E+01
  weight for this iteration     100.00

 Free energy of the ion-electron system (eV)
  ---------------------------------------------------
  alpha Z        PSCENC =       128.07775820
  Ewald energy   TEWEN  =     11342.50480691
  -Hartree energ DENC   =    -16136.32359593
  -exchange      EXHF   =         0.00000000
  -V(xc)+E(xc)   XCENC  =      -418.03136960
  PAW double counting   =      4235.41334458    -3509.29226066
  entropy T*S    EENTRO =        -0.00149906
  eigenvalues    EBANDS =      -287.36836389
  atomic energy  EATOM  =      4496.35971583
  ---------------------------------------------------
  free energy    TOTEN  =      -148.66146363 eV

  energy without entropy =     -148.65996457  energy(sigma->0) =     -148.66071410


--------------------------------------------------------------------------------------------------------




----------------------------------------- Iteration    1(   6)  ---------------------------------------


    POTLOK:  cpu time    0.10: real time    0.10
    SETDIJ:  cpu time    0.10: real time    0.10
     EDDAV:  cpu time    9.34: real time    9.35
       DOS:  cpu time    0.00: real time    0.00
    CHARGE:  cpu time    0.67: real time    0.67
    MIXING:  cpu time    0.00: real time    0.00
    --------------------------------------------
      LOOP:  cpu time   10.22: real time   10.22

 eigenvalue-minimisations  :  6898
 total energy-change (2. order) : 0.1432564E+02  (-0.8175287E+01)
 number of electron      95.0000001 magnetization 
 augmentation part        5.6388929 magnetization 

 Broyden mixing:
  rms(total) = 0.73987E+00    rms(broyden)= 0.73891E+00
  rms(prec ) = 0.74672E+00
  weight for this iteration     100.00

 eigenvalues of (default mixing * dielectric matrix)
  average eigenvalue GAMMA=   0.8468
  0.8468

 Free energy of the ion-electron system (eV)
  ---------------------------------------------------
  alpha Z        PSCENC =       128.07775820
  Ewald energy   TEWEN  =     11342.50480691
  -Hartree energ DENC   =    -16306.52123277
  -exchange      EXHF   =         0.00000000
  -V(xc)+E(xc)   XCENC  =      -405.87126546
  PAW double counting   =      5050.42188976    -4327.47397821
  entropy T*S    EENTRO =        -0.00247028
  eigenvalues    EBANDS =      -111.83104868
  atomic energy  EATOM  =      4496.35971583
  ---------------------------------------------------
  free energy    TOTEN  =      -134.33582472 eV

  energy without entropy =     -134.33335444  energy(sigma->0) =     -134.33458958


--------------------------------------------------------------------------------------------------------




----------------------------------------- Iteration    1(   7)  ---------------------------------------


    POTLOK:  cpu time    0.10: real time    0.10
    SETDIJ:  cpu time    0.10: real time    0.10
     EDDAV:  cpu time    9.14: real time    9.14
       DOS:  cpu time    0.00: real time    0.00
    CHARGE:  cpu time    0.69: real time    0.69
    MIXING:  cpu time    0.00: real time    0.00
    --------------------------------------------
      LOOP:  cpu time   10.04: real time   10.04

 eigenvalue-minimisations  :  6650
 total energy-change (2. order) : 0.1150018E+00  (-0.1414490E+00)
 number of electron      95.0000001 magnetization 
 augmentation part        5.6743107 magnetization 

 Broyden mixing:
  rms(total) = 0.45368E+00    rms(broyden)= 0.45366E+00
  rms(prec ) = 0.45922E+00
  weight for this iteration     100.00

 eigenvalues of (default mixing * dielectric matrix)
  average eigenvalue GAMMA=   1.6356
  0.9789  2.2923

 Free energy of the ion-electron system (eV)
  ---------------------------------------------------
  alpha Z        PSCENC =       128.07775820
  Ewald energy   TEWEN  =     11342.50480691
  -Hartree energ DENC   =    -16304.85868833
  -exchange      EXHF   =         0.00000000
  -V(xc)+E(xc)   XCENC  =      -405.42906383
  PAW double counting   =      5357.05572372    -4633.72297709
  entropy T*S    EENTRO =        -0.00219975
  eigenvalues    EBANDS =      -114.20589860
  atomic energy  EATOM  =      4496.35971583
  ---------------------------------------------------
  free energy    TOTEN  =      -134.22082295 eV

  energy without entropy =     -134.21862320  energy(sigma->0) =     -134.21972308


--------------------------------------------------------------------------------------------------------




----------------------------------------- Iteration    1(   8)  ---------------------------------------


    POTLOK:  cpu time    0.10: real time    0.10
    SETDIJ:  cpu time    0.10: real time    0.10
     EDDAV:  cpu time    9.88: real time    9.88
       DOS:  cpu time    0.00: real time    0.00
    CHARGE:  cpu time    0.67: real time    0.67
    MIXING:  cpu time    0.00: real time    0.00
    --------------------------------------------
      LOOP:  cpu time   10.76: real time   10.77

 eigenvalue-minimisations  :  7278
 total energy-change (2. order) : 0.9988232E-01  (-0.4099517E-01)
 number of electron      95.0000001 magnetization 
 augmentation part        5.7186284 magnetization 

 Broyden mixing:
  rms(total) = 0.75172E-01    rms(broyden)= 0.75129E-01
  rms(prec ) = 0.78716E-01
  weight for this iteration     100.00

 eigenvalues of (default mixing * dielectric matrix)
  average eigenvalue GAMMA=   1.4118
  2.4379  0.8987  0.8987

 Free energy of the ion-electron system (eV)
  ---------------------------------------------------
  alpha Z        PSCENC =       128.07775820
  Ewald energy   TEWEN  =     11342.50480691
  -Hartree energ DENC   =    -16309.57848048
  -exchange      EXHF   =         0.00000000
  -V(xc)+E(xc)   XCENC  =      -403.88757163
  PAW double counting   =      5886.22419713    -5162.62697423
  entropy T*S    EENTRO =        -0.00192940
  eigenvalues    EBANDS =      -111.19246295
  atomic energy  EATOM  =      4496.35971583
  ---------------------------------------------------
  free energy    TOTEN  =      -134.12094063 eV

  energy without entropy =     -134.11901123  energy(sigma->0) =     -134.11997593


--------------------------------------------------------------------------------------------------------




----------------------------------------- Iteration    1(   9)  ---------------------------------------


    POTLOK:  cpu time    0.10: real time    0.10
    SETDIJ:  cpu time    0.10: real time    0.10
     EDDAV:  cpu time    9.62: real time    9.63
       DOS:  cpu time    0.00: real time    0.00
    CHARGE:  cpu time    0.67: real time    0.67
    MIXING:  cpu time    0.00: real time    0.00
    --------------------------------------------
      LOOP:  cpu time   10.50: real time   10.51

 eigenvalue-minimisations  :  6936
 total energy-change (2. order) : 0.8933751E-02  (-0.6267817E-02)
 number of electron      95.0000001 magnetization 
 augmentation part        5.6978240 magnetization 

 Broyden mixing:
  rms(total) = 0.45073E-01    rms(broyden)= 0.45071E-01
  rms(prec ) = 0.46843E-01
  weight for this iteration     100.00

 eigenvalues of (default mixing * dielectric matrix)
  average eigenvalue GAMMA=   1.5908
  0.9682  0.9682  2.4137  2.0132

 Free energy of the ion-electron system (eV)
  ---------------------------------------------------
  alpha Z        PSCENC =       128.07775820
  Ewald energy   TEWEN  =     11342.50480691
  -Hartree energ DENC   =    -16313.14830460
  -exchange      EXHF   =         0.00000000
  -V(xc)+E(xc)   XCENC  =      -403.51368681
  PAW double counting   =      5904.32521150    -5180.78265205
  entropy T*S    EENTRO =        -0.00194478
  eigenvalues    EBANDS =      -107.93291107
  atomic energy  EATOM  =      4496.35971583
  ---------------------------------------------------
  free energy    TOTEN  =      -134.11200688 eV

  energy without entropy =     -134.11006210  energy(sigma->0) =     -134.11103449


--------------------------------------------------------------------------------------------------------




----------------------------------------- Iteration    1(  10)  ---------------------------------------


    POTLOK:  cpu time    0.10: real time    0.10
    SETDIJ:  cpu time    0.10: real time    0.10
     EDDAV:  cpu time    9.53: real time    9.53
       DOS:  cpu time    0.00: real time    0.00
    CHARGE:  cpu time    0.67: real time    0.67
    MIXING:  cpu time    0.00: real time    0.00
    --------------------------------------------
      LOOP:  cpu time   10.40: real time   10.41

 eigenvalue-minimisations  :  7074
 total energy-change (2. order) :-0.1099119E-03  (-0.4444744E-02)
 number of electron      95.0000001 magnetization 
 augmentation part        5.6824474 magnetization 

 Broyden mixing:
  rms(total) = 0.26359E-01    rms(broyden)= 0.26338E-01
  rms(prec ) = 0.27736E-01
  weight for this iteration     100.00

 eigenvalues of (default mixing * dielectric matrix)
  average eigenvalue GAMMA=   1.3581
  2.5103  2.0200  0.9334  0.9334  0.3933

 Free energy of the ion-electron system (eV)
  ---------------------------------------------------
  alpha Z        PSCENC =       128.07775820
  Ewald energy   TEWEN  =     11342.50480691
  -Hartree energ DENC   =    -16314.16751278
  -exchange      EXHF   =         0.00000000
  -V(xc)+E(xc)   XCENC  =      -403.35863885
  PAW double counting   =      5882.66752941    -5159.15112564
  entropy T*S    EENTRO =        -0.00200307
  eigenvalues    EBANDS =      -107.04264680
  atomic energy  EATOM  =      4496.35971583
  ---------------------------------------------------
  free energy    TOTEN  =      -134.11211679 eV

  energy without entropy =     -134.11011372  energy(sigma->0) =     -134.11111526


--------------------------------------------------------------------------------------------------------




----------------------------------------- Iteration    1(  11)  ---------------------------------------


    POTLOK:  cpu time    0.10: real time    0.10
    SETDIJ:  cpu time    0.10: real time    0.10
     EDDAV:  cpu time    9.63: real time    9.63
       DOS:  cpu time    0.00: real time    0.00
    CHARGE:  cpu time    0.68: real time    0.68
    MIXING:  cpu time    0.00: real time    0.00
    --------------------------------------------
      LOOP:  cpu time   10.51: real time   10.52

 eigenvalue-minimisations  :  7046
 total energy-change (2. order) : 0.4033144E-03  (-0.3710857E-03)
 number of electron      95.0000001 magnetization 
 augmentation part        5.6855348 magnetization 

 Broyden mixing:
  rms(total) = 0.19336E-01    rms(broyden)= 0.19336E-01
  rms(prec ) = 0.20864E-01
  weight for this iteration     100.00

 eigenvalues of (default mixing * dielectric matrix)
  average eigenvalue GAMMA=   1.4558
  2.7536  2.2181  0.9965  0.9965  1.0243  0.7459

 Free energy of the ion-electron system (eV)
  ---------------------------------------------------
  alpha Z        PSCENC =       128.07775820
  Ewald energy   TEWEN  =     11342.50480691
  -Hartree energ DENC   =    -16313.76644810
  -exchange      EXHF   =         0.00000000
  -V(xc)+E(xc)   XCENC  =      -403.33256136
  PAW double counting   =      5867.97236619    -5144.45509647
  entropy T*S    EENTRO =        -0.00199226
  eigenvalues    EBANDS =      -107.47026240
  atomic energy  EATOM  =      4496.35971583
  ---------------------------------------------------
  free energy    TOTEN  =      -134.11171348 eV

  energy without entropy =     -134.10972121  energy(sigma->0) =     -134.11071734


--------------------------------------------------------------------------------------------------------




----------------------------------------- Iteration    1(  12)  ---------------------------------------


    POTLOK:  cpu time    0.10: real time    0.10
    SETDIJ:  cpu time    0.10: real time    0.10
     EDDAV:  cpu time   10.89: real time   10.90
       DOS:  cpu time    0.00: real time    0.00
    CHARGE:  cpu time    0.68: real time    0.68
    MIXING:  cpu time    0.00: real time    0.00
    --------------------------------------------
      LOOP:  cpu time   11.78: real time   11.79

 eigenvalue-minimisations  :  7844
 total energy-change (2. order) : 0.5151955E-03  (-0.8405214E-03)
 number of electron      95.0000001 magnetization 
 augmentation part        5.6857427 magnetization 

 Broyden mixing:
  rms(total) = 0.11484E-01    rms(broyden)= 0.11475E-01
  rms(prec ) = 0.12920E-01
  weight for this iteration     100.00

 eigenvalues of (default mixing * dielectric matrix)
  average eigenvalue GAMMA=   1.4030
  2.9086  2.4888  0.9550  0.9550  0.9123  0.9123  0.6892

 Free energy of the ion-electron system (eV)
  ---------------------------------------------------
  alpha Z        PSCENC =       128.07775820
  Ewald energy   TEWEN  =     11342.50480691
  -Hartree energ DENC   =    -16313.29829080
  -exchange      EXHF   =         0.00000000
  -V(xc)+E(xc)   XCENC  =      -403.29338323
  PAW double counting   =      5848.63395255    -5125.12826258
  entropy T*S    EENTRO =        -0.00197611
  eigenvalues    EBANDS =      -107.96551905
  atomic energy  EATOM  =      4496.35971583
  ---------------------------------------------------
  free energy    TOTEN  =      -134.11119828 eV

  energy without entropy =     -134.10922218  energy(sigma->0) =     -134.11021023


--------------------------------------------------------------------------------------------------------




----------------------------------------- Iteration    1(  13)  ---------------------------------------


    POTLOK:  cpu time    0.10: real time    0.10
    SETDIJ:  cpu time    0.10: real time    0.10
     EDDAV:  cpu time   10.16: real time   10.17
       DOS:  cpu time    0.00: real time    0.00
    CHARGE:  cpu time    0.68: real time    0.68
    MIXING:  cpu time    0.00: real time    0.00
    --------------------------------------------
      LOOP:  cpu time   11.05: real time   11.06

 eigenvalue-minimisations  :  7104
 total energy-change (2. order) : 0.2808012E-03  (-0.1699546E-03)
 number of electron      95.0000001 magnetization 
 augmentation part        5.6890281 magnetization 

 Broyden mixing:
  rms(total) = 0.91315E-02    rms(broyden)= 0.91303E-02
  rms(prec ) = 0.10639E-01
  weight for this iteration     100.00

 eigenvalues of (default mixing * dielectric matrix)
  average eigenvalue GAMMA=   1.3751
  3.0082  2.5441  0.9050  0.9050  1.1011  0.9166  0.9166  0.7038

 Free energy of the ion-electron system (eV)
  ---------------------------------------------------
  alpha Z        PSCENC =       128.07775820
  Ewald energy   TEWEN  =     11342.50480691
  -Hartree energ DENC   =    -16312.65345058
  -exchange      EXHF   =         0.00000000
  -V(xc)+E(xc)   XCENC  =      -403.31711832
  PAW double counting   =      5839.96563413    -5116.45447178
  entropy T*S    EENTRO =        -0.00197336
  eigenvalues    EBANDS =      -108.59181851
  atomic energy  EATOM  =      4496.35971583
  ---------------------------------------------------
  free energy    TOTEN  =      -134.11091748 eV

  energy without entropy =     -134.10894412  energy(sigma->0) =     -134.10993080


--------------------------------------------------------------------------------------------------------




----------------------------------------- Iteration    1(  14)  ---------------------------------------


    POTLOK:  cpu time    0.10: real time    0.10
    SETDIJ:  cpu time    0.10: real time    0.10
     EDDAV:  cpu time   11.30: real time   11.31
       DOS:  cpu time    0.00: real time    0.00
    CHARGE:  cpu time    0.70: real time    0.70
    MIXING:  cpu time    0.00: real time    0.00
    --------------------------------------------
      LOOP:  cpu time   12.21: real time   12.22

 eigenvalue-minimisations  :  8094
 total energy-change (2. order) : 0.2592345E-03  (-0.8173892E-04)
 number of electron      95.0000001 magnetization 
 augmentation part        5.6895636 magnetization 

 Broyden mixing:
  rms(total) = 0.35098E-02    rms(broyden)= 0.35074E-02
  rms(prec ) = 0.59149E-02
  weight for this iteration     100.00

 eigenvalues of (default mixing * dielectric matrix)
  average eigenvalue GAMMA=   1.4472
  3.0087  2.5054  2.0079  0.9403  0.9403  1.0195  0.9540  0.9540  0.6951

 Free energy of the ion-electron system (eV)
  ---------------------------------------------------
  alpha Z        PSCENC =       128.07775820
  Ewald energy   TEWEN  =     11342.50480691
  -Hartree energ DENC   =    -16312.32479299
  -exchange      EXHF   =         0.00000000
  -V(xc)+E(xc)   XCENC  =      -403.32172138
  PAW double counting   =      5837.53702862    -5114.02471480
  entropy T*S    EENTRO =        -0.00197542
  eigenvalues    EBANDS =      -108.91676322
  atomic energy  EATOM  =      4496.35971583
  ---------------------------------------------------
  free energy    TOTEN  =      -134.11065825 eV

  energy without entropy =     -134.10868283  energy(sigma->0) =     -134.10967054


--------------------------------------------------------------------------------------------------------




----------------------------------------- Iteration    1(  15)  ---------------------------------------


    POTLOK:  cpu time    0.10: real time    0.10
    SETDIJ:  cpu time    0.10: real time    0.10
     EDDAV:  cpu time   12.31: real time   12.32
       DOS:  cpu time    0.00: real time    0.00
    CHARGE:  cpu time    0.69: real time    0.69
    MIXING:  cpu time    0.00: real time    0.00
    --------------------------------------------
      LOOP:  cpu time   13.21: real time   13.23

 eigenvalue-minimisations  :  8792
 total energy-change (2. order) : 0.2699324E-03  (-0.1628139E-04)
 number of electron      95.0000001 magnetization 
 augmentation part        5.6892386 magnetization 

 Broyden mixing:
  rms(total) = 0.19849E-02    rms(broyden)= 0.19844E-02
  rms(prec ) = 0.42767E-02
  weight for this iteration     100.00

 eigenvalues of (default mixing * dielectric matrix)
  average eigenvalue GAMMA=   1.4614
  3.1228  2.5124  2.5124  0.9382  0.9382  1.0353  1.0353  0.9072  0.9072  0.7053

 Free energy of the ion-electron system (eV)
  ---------------------------------------------------
  alpha Z        PSCENC =       128.07775820
  Ewald energy   TEWEN  =     11342.50480691
  -Hartree energ DENC   =    -16311.91610529
  -exchange      EXHF   =         0.00000000
  -V(xc)+E(xc)   XCENC  =      -403.31692266
  PAW double counting   =      5838.81838793    -5115.30595748
  entropy T*S    EENTRO =        -0.00197845
  eigenvalues    EBANDS =      -109.33009329
  atomic energy  EATOM  =      4496.35971583
  ---------------------------------------------------
  free energy    TOTEN  =      -134.11038831 eV

  energy without entropy =     -134.10840986  energy(sigma->0) =     -134.10939909


--------------------------------------------------------------------------------------------------------




----------------------------------------- Iteration    1(  16)  ---------------------------------------


    POTLOK:  cpu time    0.10: real time    0.10
    SETDIJ:  cpu time    0.11: real time    0.11
     EDDAV:  cpu time   10.96: real time   10.97
       DOS:  cpu time    0.00: real time    0.00
    CHARGE:  cpu time    0.70: real time    0.70
    MIXING:  cpu time    0.00: real time    0.00
    --------------------------------------------
      LOOP:  cpu time   11.87: real time   11.89

 eigenvalue-minimisations  :  7564
 total energy-change (2. order) : 0.1692143E-03  (-0.2287728E-04)
 number of electron      95.0000001 magnetization 
 augmentation part        5.6885249 magnetization 

 Broyden mixing:
  rms(total) = 0.15647E-02    rms(broyden)= 0.15638E-02
  rms(prec ) = 0.35941E-02
  weight for this iteration     100.00

 eigenvalues of (default mixing * dielectric matrix)
  average eigenvalue GAMMA=   1.5233
  3.2830  2.9226  2.3928  1.7375  0.9371  0.9371  0.9985  0.9474  0.9474  0.9348
  0.7181

 Free energy of the ion-electron system (eV)
  ---------------------------------------------------
  alpha Z        PSCENC =       128.07775820
  Ewald energy   TEWEN  =     11342.50480691
  -Hartree energ DENC   =    -16311.56432489
  -exchange      EXHF   =         0.00000000
  -V(xc)+E(xc)   XCENC  =      -403.31269146
  PAW double counting   =      5839.26720858    -5115.75542841
  entropy T*S    EENTRO =        -0.00197828
  eigenvalues    EBANDS =      -109.68528557
  atomic energy  EATOM  =      4496.35971583
  ---------------------------------------------------
  free energy    TOTEN  =      -134.11021910 eV

  energy without entropy =     -134.10824081  energy(sigma->0) =     -134.10922996


--------------------------------------------------------------------------------------------------------




----------------------------------------- Iteration    1(  17)  ---------------------------------------


    POTLOK:  cpu time    0.11: real time    0.11
    SETDIJ:  cpu time    0.11: real time    0.11
     EDDAV:  cpu time   13.29: real time   13.31
       DOS:  cpu time    0.00: real time    0.00
    CHARGE:  cpu time    0.69: real time    0.69
    MIXING:  cpu time    0.00: real time    0.00
    --------------------------------------------
      LOOP:  cpu time   14.20: real time   14.22

 eigenvalue-minimisations  :  9640
 total energy-change (2. order) : 0.2949170E-03  (-0.2694713E-04)
 number of electron      95.0000001 magnetization 
 augmentation part        5.6892177 magnetization 

 Broyden mixing:
  rms(total) = 0.16350E-02    rms(broyden)= 0.16343E-02
  rms(prec ) = 0.25444E-02
  weight for this iteration     100.00

 eigenvalues of (default mixing * dielectric matrix)
  average eigenvalue GAMMA=   1.6805
  5.2915  2.9906  2.3170  2.3170  0.9402  0.9402  1.0146  1.0146  0.9099  0.9099
  0.7133  0.8070

 Free energy of the ion-electron system (eV)
  ---------------------------------------------------
  alpha Z        PSCENC =       128.07775820
  Ewald energy   TEWEN  =     11342.50480691
  -Hartree energ DENC   =    -16310.46163992
  -exchange      EXHF   =         0.00000000
  -V(xc)+E(xc)   XCENC  =      -403.31878363
  PAW double counting   =      5839.17176463    -5115.65697801
  entropy T*S    EENTRO =        -0.00198637
  eigenvalues    EBANDS =      -110.78458182
  atomic energy  EATOM  =      4496.35971583
  ---------------------------------------------------
  free energy    TOTEN  =      -134.10992418 eV

  energy without entropy =     -134.10793781  energy(sigma->0) =     -134.10893100


--------------------------------------------------------------------------------------------------------




----------------------------------------- Iteration    1(  18)  ---------------------------------------


    POTLOK:  cpu time    0.10: real time    0.10
    SETDIJ:  cpu time    0.11: real time    0.11
     EDDAV:  cpu time   10.58: real time   10.60
       DOS:  cpu time    0.00: real time    0.00
    CHARGE:  cpu time    0.68: real time    0.68
    MIXING:  cpu time    0.01: real time    0.01
    --------------------------------------------
      LOOP:  cpu time   11.48: real time   11.50

 eigenvalue-minimisations  :  7404
 total energy-change (2. order) : 0.8573370E-04  (-0.2753970E-04)
 number of electron      95.0000001 magnetization 
 augmentation part        5.6894437 magnetization 

 Broyden mixing:
  rms(total) = 0.17070E-02    rms(broyden)= 0.17067E-02
  rms(prec ) = 0.21443E-02
  weight for this iteration     100.00

 eigenvalues of (default mixing * dielectric matrix)
  average eigenvalue GAMMA=   1.5888
  5.4686  2.9897  2.3128  2.3128  0.9362  0.9362  1.0142  1.0142  0.9343  0.9343
  0.7109  0.8164  0.2732

 Free energy of the ion-electron system (eV)
  ---------------------------------------------------
  alpha Z        PSCENC =       128.07775820
  Ewald energy   TEWEN  =     11342.50480691
  -Hartree energ DENC   =    -16309.93340910
  -exchange      EXHF   =         0.00000000
  -V(xc)+E(xc)   XCENC  =      -403.31814027
  PAW double counting   =      5839.35005441    -5115.83480527
  entropy T*S    EENTRO =        -0.00198665
  eigenvalues    EBANDS =      -111.31383249
  atomic energy  EATOM  =      4496.35971583
  ---------------------------------------------------
  free energy    TOTEN  =      -134.10983845 eV

  energy without entropy =     -134.10785180  energy(sigma->0) =     -134.10884512


--------------------------------------------------------------------------------------------------------




----------------------------------------- Iteration    1(  19)  ---------------------------------------


    POTLOK:  cpu time    0.10: real time    0.10
    SETDIJ:  cpu time    0.10: real time    0.10
     EDDAV:  cpu time   10.17: real time   10.19
       DOS:  cpu time    0.00: real time    0.00
    CHARGE:  cpu time    0.69: real time    0.69
    MIXING:  cpu time    0.01: real time    0.01
    --------------------------------------------
      LOOP:  cpu time   11.07: real time   11.09

 eigenvalue-minimisations  :  7124
 total energy-change (2. order) : 0.2785761E-04  (-0.3171729E-04)
 number of electron      95.0000001 magnetization 
 augmentation part        5.6887524 magnetization 

 Broyden mixing:
  rms(total) = 0.20298E-02    rms(broyden)= 0.20290E-02
  rms(prec ) = 0.22456E-02
  weight for this iteration     100.00

 eigenvalues of (default mixing * dielectric matrix)
  average eigenvalue GAMMA=   1.7371
  6.4753  3.2960  2.5747  2.4389  1.0543  1.0543  0.9352  0.9352  1.1363  1.0754
  0.9244  0.9244  0.7271  0.7672

 Free energy of the ion-electron system (eV)
  ---------------------------------------------------
  alpha Z        PSCENC =       128.07775820
  Ewald energy   TEWEN  =     11342.50480691
  -Hartree energ DENC   =    -16309.83696562
  -exchange      EXHF   =         0.00000000
  -V(xc)+E(xc)   XCENC  =      -403.31045727
  PAW double counting   =      5839.93609707    -5116.42334417
  entropy T*S    EENTRO =        -0.00198792
  eigenvalues    EBANDS =      -111.41543360
  atomic energy  EATOM  =      4496.35971583
  ---------------------------------------------------
  free energy    TOTEN  =      -134.10981059 eV

  energy without entropy =     -134.10782267  energy(sigma->0) =     -134.10881663


--------------------------------------------------------------------------------------------------------




----------------------------------------- Iteration    1(  20)  ---------------------------------------


    POTLOK:  cpu time    0.10: real time    0.10
    SETDIJ:  cpu time    0.10: real time    0.10
     EDDAV:  cpu time   11.30: real time   11.32
       DOS:  cpu time    0.00: real time    0.00
    CHARGE:  cpu time    0.69: real time    0.69
    MIXING:  cpu time    0.01: real time    0.01
    --------------------------------------------
      LOOP:  cpu time   12.21: real time   12.23

 eigenvalue-minimisations  :  7952
 total energy-change (2. order) : 0.3960421E-04  (-0.1051797E-04)
 number of electron      95.0000001 magnetization 
 augmentation part        5.6886333 magnetization 

 Broyden mixing:
  rms(total) = 0.11690E-02    rms(broyden)= 0.11687E-02
  rms(prec ) = 0.12908E-02
  weight for this iteration     100.00

 eigenvalues of (default mixing * dielectric matrix)
  average eigenvalue GAMMA=   1.7984
  8.0956  3.1549  2.7742  2.3367  1.4357  1.2260  1.2260  0.9321  0.9321  0.9562
  0.9562  0.9392  0.7399  0.7399  0.5311

 Free energy of the ion-electron system (eV)
  ---------------------------------------------------
  alpha Z        PSCENC =       128.07775820
  Ewald energy   TEWEN  =     11342.50480691
  -Hartree energ DENC   =    -16309.67769119
  -exchange      EXHF   =         0.00000000
  -V(xc)+E(xc)   XCENC  =      -403.30737855
  PAW double counting   =      5840.77406530    -5117.26243454
  entropy T*S    EENTRO =        -0.00198965
  eigenvalues    EBANDS =      -111.57662327
  atomic energy  EATOM  =      4496.35971583
  ---------------------------------------------------
  free energy    TOTEN  =      -134.10977099 eV

  energy without entropy =     -134.10778133  energy(sigma->0) =     -134.10877616


--------------------------------------------------------------------------------------------------------




----------------------------------------- Iteration    1(  21)  ---------------------------------------


    POTLOK:  cpu time    0.10: real time    0.10
    SETDIJ:  cpu time    0.11: real time    0.11
     EDDAV:  cpu time    9.97: real time    9.99
       DOS:  cpu time    0.00: real time    0.00
    CHARGE:  cpu time    0.70: real time    0.70
    MIXING:  cpu time    0.01: real time    0.01
    --------------------------------------------
      LOOP:  cpu time   10.89: real time   10.91

 eigenvalue-minimisations  :  6610
 total energy-change (2. order) :-0.7159942E-06  (-0.1055555E-04)
 number of electron      95.0000001 magnetization 
 augmentation part        5.6884946 magnetization 

 Broyden mixing:
  rms(total) = 0.17188E-02    rms(broyden)= 0.17184E-02
  rms(prec ) = 0.17792E-02
  weight for this iteration     100.00

 eigenvalues of (default mixing * dielectric matrix)
  average eigenvalue GAMMA=   1.7038
  8.1644  3.2015  2.7893  2.3305  1.4446  1.2454  1.2454  0.9326  0.9326  0.9643
  0.9643  0.9001  0.7436  0.7436  0.4924  0.1658

 Free energy of the ion-electron system (eV)
  ---------------------------------------------------
  alpha Z        PSCENC =       128.07775820
  Ewald energy   TEWEN  =     11342.50480691
  -Hartree energ DENC   =    -16309.57572289
  -exchange      EXHF   =         0.00000000
  -V(xc)+E(xc)   XCENC  =      -403.30688941
  PAW double counting   =      5840.60930075    -5117.09782151
  entropy T*S    EENTRO =        -0.00198931
  eigenvalues    EBANDS =      -111.67893025
  atomic energy  EATOM  =      4496.35971583
  ---------------------------------------------------
  free energy    TOTEN  =      -134.10977170 eV

[...]
     58      11.0017      0.00000
     59      11.0273      0.00000
     60      11.3467      0.00000
     61      11.4906      0.00000
     62      11.5436      0.00000

 k-point    47 :      -0.3846    0.3846    0.0000
  band No.  band energies     occupation 
      1     -13.1008      2.00000
      2     -13.0751      2.00000
      3     -13.0271      2.00000
      4     -12.9623      2.00000
      5     -12.8885      2.00000
      6     -12.8093      2.00000
      7     -12.7373      2.00000
      8     -12.6773      2.00000
      9     -12.6341      2.00000
     10      -1.0754      2.00000
     11      -0.9673      2.00000
     12      -0.7984      2.00000
     13      -0.7468      2.00000
     14      -0.6498      2.00000
     15      -0.6004      2.00000
     16      -0.5619      2.00000
     17      -0.4994      2.00000
     18      -0.4028      2.00000
     19      -0.3644      2.00000
     20      -0.2370      2.00000
     21       0.2573      2.00000
     22       0.3484      2.00000
     23       0.6441      2.00000
     24       0.8887      2.00000
     25       1.2286      2.00000
     26       1.3340      2.00000
     27       1.6580      2.00000
     28       1.7943      2.00000
     29       1.8471      2.00000
     30       1.8685      2.00000
     31       1.8834      2.00000
     32       1.9474      2.00000
     33       2.0337      2.00000
     34       2.0710      2.00000
     35       2.1320      2.00000
     36       2.2328      2.00000
     37       2.2374      2.00000
     38       2.3343      2.00000
     39       2.3563      2.00000
     40       2.4156      2.00000
     41       2.4735      2.00000
     42       3.2775      2.00000
     43       4.3242      2.00000
     44       4.4122      2.00000
     45       4.6524      2.00000
     46       5.1199      2.00000
     47       5.5625      2.00000
     48       6.1535      2.00000
     49       6.9273      0.00878
     50       7.6396      0.00000
     51       7.9836      0.00000
     52       8.9356      0.00000
     53       9.1521      0.00000
     54      10.1233      0.00000
     55      10.3855      0.00000
     56      10.7554      0.00000
     57      11.1160      0.00000
     58      11.3780      0.00000
     59      11.6034      0.00000
     60      11.7360      0.00000
     61      11.7946      0.00000
     62      11.8887      0.00000

 k-point    48 :       0.4615    0.4615    0.0000
  band No.  band energies     occupation 
      1     -12.8619      2.00000
      2     -12.8542      2.00000
      3     -12.8338      2.00000
      4     -12.8047      2.00000
      5     -12.7698      2.00000
      6     -12.7295      2.00000
      7     -12.6927      2.00000
      8     -12.6598      2.00000
      9     -12.6342      2.00000
     10      -1.3643      2.00000
     11      -1.2531      2.00000
     12      -1.0798      2.00000
     13      -0.8798      2.00000
     14      -0.8609      2.00000
     15      -0.7813      2.00000
     16      -0.7202      2.00000
     17      -0.6541      2.00000
     18      -0.6196      2.00000
     19       1.0191      2.00000
     20       1.0431      2.00000
     21       1.1799      2.00000
     22       1.2551      2.00000
     23       1.4002      2.00000
     24       1.5417      2.00000
     25       1.5870      2.00000
     26       1.5969      2.00000
     27       1.6726      2.00000
     28       1.7103      2.00000
     29       1.7240      2.00000
     30       1.7351      2.00000
     31       1.8508      2.00000
     32       1.8527      2.00000
     33       1.9928      2.00000
     34       2.0166      2.00000
     35       2.0482      2.00000
     36       2.0581      2.00000
     37       2.1703      2.00000
     38       2.1887      2.00000
     39       2.2810      2.00000
     40       2.3191      2.00000
     41       2.5398      2.00000
     42       2.6361      2.00000
     43       3.3053      2.00000
     44       3.4007      2.00000
     45       4.2376      2.00000
     46       4.4370      2.00000
     47       5.1578      2.00000
     48       5.7468      2.00000
     49       6.3908      2.00000
     50       6.9630      0.00028
     51       7.5075      0.00000
     52       8.0227      0.00000
     53       9.1922      0.00000
     54       9.5522      0.00000
     55       9.5678      0.00000
     56      10.0137      0.00000
     57      10.7337      0.00000
     58      10.7649      0.00000
     59      11.0255      0.00000
     60      11.3324      0.00000
     61      11.3450      0.00000
     62      11.5444      0.00000

 k-point    49 :      -0.4615    0.4615   -0.0000
  band No.  band energies     occupation 
      1     -12.9095      2.00000
      2     -12.8982      2.00000
      3     -12.8721      2.00000
      4     -12.8356      2.00000
      5     -12.7930      2.00000
      6     -12.7453      2.00000
      7     -12.7019      2.00000
      8     -12.6641      2.00000
      9     -12.6353      2.00000
     10      -1.3845      2.00000
     11      -1.2728      2.00000
     12      -1.0985      2.00000
     13      -0.9006      2.00000
     14      -0.8921      2.00000
     15      -0.8087      2.00000
     16      -0.7380      2.00000
     17      -0.6685      2.00000
     18      -0.6322      2.00000
     19       0.8219      2.00000
     20       0.8395      2.00000
     21       0.9876      2.00000
     22       1.1195      2.00000
     23       1.2524      2.00000
     24       1.4008      2.00000
     25       1.4386      2.00000
     26       1.6065      2.00000
     27       1.6521      2.00000
     28       1.7634      2.00000
     29       1.7772      2.00000
     30       1.8137      2.00000
     31       1.8779      2.00000
     32       1.9645      2.00000
     33       2.0125      2.00000
     34       2.0631      2.00000
     35       2.1690      2.00000
     36       2.2663      2.00000
     37       2.2750      2.00000
     38       2.3480      2.00000
     39       2.4061      2.00000
     40       2.4363      2.00000
     41       2.5324      2.00000
     42       2.7907      2.00000
     43       3.3127      2.00000
     44       3.4588      2.00000
     45       4.1175      2.00000
     46       4.5534      2.00000
     47       5.0284      2.00000
     48       5.8555      2.00000
     49       6.2075      2.00000
     50       6.9872      0.00002
     51       7.3966      0.00000
     52       8.4543      0.00000
     53       8.8194      0.00000
     54       9.9548      0.00000
     55      10.2078      0.00000
     56      10.8704      0.00000
     57      11.0501      0.00000
     58      11.2622      0.00000
     59      11.3770      0.00000
     60      11.5125      0.00000
     61      11.6624      0.00000
     62      11.8002      0.00000


--------------------------------------------------------------------------------------------------------


 soft charge-density along one line, spin component           1
         0         1         2         3         4         5         6         7         8         9
 total charge-density along one line
 
 pseudopotential strength for first ion, spin component:           1
 12.119   0.000 -14.740   0.000  -0.000   0.000  -0.000   0.000   0.000   0.000   0.000   0.000   0.000   0.000  -0.000   0.000
-14.740   0.000  17.948   0.000   0.000   0.000   0.000   0.000  -0.000   0.000  -0.000   0.000  -0.000   0.000   0.000   0.000
 -0.000   0.000   0.000   0.000  -8.233   0.000  -0.000   0.000   0.000   0.000   9.840   0.000   0.000   0.000  -0.000   0.000
 -0.000   0.000   0.000   0.000  -0.000   0.000  -8.235   0.000   0.000   0.000   0.000   0.000   9.843   0.000  -0.000   0.000
  0.000   0.000  -0.000   0.000   0.000   0.000   0.000   0.000  -8.233   0.000  -0.000   0.000  -0.000   0.000   9.840   0.000
  0.000   0.000  -0.000   0.000   9.840   0.000   0.000   0.000  -0.000   0.000 -11.595   0.000  -0.000   0.000   0.000   0.000
  0.000   0.000  -0.000   0.000   0.000   0.000   9.843   0.000  -0.000   0.000  -0.000   0.000 -11.600   0.000   0.000   0.000
 -0.000   0.000   0.000   0.000  -0.000   0.000  -0.000   0.000   9.840   0.000   0.000   0.000   0.000   0.000 -11.595   0.000
 total augmentation occupancy for first ion, spin component:           1
  2.604   0.364   0.000   0.000  -0.000   0.000  -0.000  -0.000
  0.364   0.068   0.000   0.000  -0.000   0.000  -0.000  -0.000
  0.000   0.000   2.163   0.000  -0.000   0.260   0.000  -0.000
  0.000   0.000   0.000   2.161  -0.000   0.000   0.262  -0.000
 -0.000  -0.000  -0.000  -0.000   2.163  -0.000  -0.000   0.260
  0.000   0.000   0.260   0.000  -0.000   0.034   0.000  -0.000
 -0.000  -0.000   0.000   0.262  -0.000   0.000   0.034  -0.000
 -0.000  -0.000  -0.000  -0.000   0.260  -0.000  -0.000   0.034


------------------------ aborting loop because EDIFF is reached ----------------------------------------


    CHARGE:  cpu time    0.68: real time    0.68
    FORLOC:  cpu time    0.03: real time    0.03
    FORNL :  cpu time    6.05: real time    6.05
    STRESS:  cpu time    6.86: real time    6.87
    FORCOR:  cpu time    0.13: real time    0.13
    FORHAR:  cpu time    0.05: real time    0.05
    MIXING:  cpu time    0.00: real time    0.00
    OFIELD:  cpu time    0.00: real time    0.00

  FORCE on cell =-STRESS in cart. coord.  units (eV):
  Direction    XX          YY          ZZ          XY          YZ          ZX
  --------------------------------------------------------------------------------------
  Alpha Z   128.07776   128.07776   128.07776
  Ewald   14034.11878 14029.66622-16502.33434     3.85625  -528.57852   305.17489
  Hartree 15669.01064 15662.90053-14804.01650     5.29145  -528.37080   305.05516
  E(xc)    -390.23477  -390.25258  -390.78125     0.01541    -0.00853     0.00492
  Local  -30847.31452-30836.68680 30159.08170    -9.20362  1056.95713  -610.23462
  n-local   -28.12023   -35.65589   -24.94282    -2.36328     1.72164     2.86994
  augment    54.08484    54.07792    53.48467     0.00596    -0.00148     0.00086
  Kinetic  1395.98445  1371.03704  1376.49747    -7.04624     0.46650     1.21538
  Fock        0.00000     0.00000     0.00000     0.00000     0.00000     0.00000
  -------------------------------------------------------------------------------------
  Total      -0.64843    -0.58044    -4.93331    -0.05889    -0.13000     0.07505
  in kB      -3.29079    -2.94571   -25.03653    -0.29885    -0.65973     0.38089
  external pressure =      -10.42 kB  Pullay stress =        0.00 kB


 VOLUME and BASIS-vectors are now :
 -----------------------------------------------------------------------------
  energy-cutoff  :      520.00
  volume of cell :      315.70
      direct lattice vectors                 reciprocal lattice vectors
     2.592590006 -1.495275227  0.051895165     0.385653333 -0.000241013 -0.003880099
     0.001348276  2.992885737 -0.051895149     0.192617943  0.334106192  0.003880099
     0.408967606 -0.708352458 40.692375773    -0.000246179  0.000426394  0.024584525

  length of vectors
     2.993336608  2.993335925 40.700595374     0.385672927  0.385673015  0.024589454


 FORCES acting on ions
    electron-ion (+dipol)            ewald-force                    non-local-force                 convergence-correction
 -----------------------------------------------------------------------------------------------
   -.936E+01 0.162E+02 0.933E+03   0.936E+01 -.162E+02 -.933E+03   0.732E-03 -.127E-02 0.435E-01   0.210E-03 -.364E-03 -.172E-01
   -.488E-03 0.845E-03 0.542E-01   -.683E-04 0.118E-03 0.149E-01   -.185E-03 0.320E-03 0.720E-02   0.735E-03 -.127E-02 -.740E-01
   0.936E+01 -.162E+02 -.933E+03   -.936E+01 0.162E+02 0.933E+03   -.785E-03 0.136E-02 -.349E-01   -.115E-03 0.200E-03 0.201E-01
   -.124E+02 0.215E+02 0.124E+04   0.124E+02 -.215E+02 -.124E+04   -.434E-02 0.751E-02 0.705E+00   0.201E-03 -.348E-03 0.183E-02
   -.624E+01 0.108E+02 0.623E+03   0.625E+01 -.108E+02 -.623E+03   0.100E-03 -.173E-03 -.874E-02   0.412E-03 -.714E-03 -.406E-01
   -.312E+01 0.540E+01 0.312E+03   0.312E+01 -.540E+01 -.312E+03   -.977E-04 0.169E-03 -.124E-01   0.667E-03 -.116E-02 -.658E-01
   0.312E+01 -.540E+01 -.311E+03   -.312E+01 0.540E+01 0.312E+03   0.194E-04 -.336E-04 0.195E-01   0.612E-03 -.106E-02 -.581E-01
   0.624E+01 -.108E+02 -.623E+03   -.624E+01 0.108E+02 0.623E+03   0.146E-03 -.253E-03 0.512E-02   0.248E-03 -.430E-03 -.210E-01
   0.124E+02 -.215E+02 -.124E+04   -.124E+02 0.215E+02 0.124E+04   0.436E-02 -.755E-02 -.726E+00   -.335E-03 0.581E-03 0.475E-01
   -.450E+01 0.780E+01 0.448E+03   0.450E+01 -.779E+01 -.448E+03   0.965E-02 -.167E-01 0.134E+00   -.311E-04 0.539E-04 0.302E-02
   -.156E+01 0.270E+01 0.156E+03   0.156E+01 -.270E+01 -.156E+03   0.300E-04 -.520E-04 0.518E-02   0.178E-03 -.308E-03 -.178E-01
   0.156E+01 -.270E+01 -.156E+03   -.156E+01 0.270E+01 0.156E+03   -.201E-03 0.348E-03 -.356E-03   0.142E-03 -.246E-03 -.142E-01
   0.450E+01 -.780E+01 -.448E+03   -.450E+01 0.779E+01 0.448E+03   -.976E-02 0.169E-01 -.136E+00   -.162E-03 0.280E-03 0.161E-01
   -.365E+01 0.632E+01 0.363E+03   0.365E+01 -.632E+01 -.363E+03   0.358E-02 -.621E-02 -.326E-01   0.300E-04 -.520E-04 -.306E-02
   -.261E+01 0.452E+01 0.259E+03   0.261E+01 -.451E+01 -.259E+03   0.304E-02 -.527E-02 -.173E-02   0.931E-04 -.161E-03 -.932E-02
   -.516E+00 0.894E+00 0.519E+02   0.517E+00 -.895E+00 -.519E+02   -.108E-02 0.188E-02 0.303E-02   0.247E-03 -.428E-03 -.247E-01
   0.518E+00 -.897E+00 -.519E+02   -.518E+00 0.898E+00 0.519E+02   0.526E-03 -.910E-03 0.476E-02   0.221E-03 -.382E-03 -.221E-01
   0.261E+01 -.451E+01 -.259E+03   -.260E+01 0.451E+01 0.259E+03   -.237E-02 0.411E-02 -.737E-03   -.555E-05 0.962E-05 0.527E-03
   0.365E+01 -.632E+01 -.363E+03   -.365E+01 0.631E+01 0.363E+03   -.331E-02 0.573E-02 0.199E-01   -.114E-03 0.197E-03 0.113E-01
   -.478E-03 0.828E-03 -.230E-01   0.205E-03 -.355E-03 0.869E-02   0.476E-03 -.825E-03 -.309E-03   -.145E-03 0.251E-03 0.145E-01
   -.478E+01 0.828E+01 0.477E+03   0.478E+01 -.827E+01 -.476E+03   0.797E-02 -.138E-01 -.781E+00   -.873E-04 0.151E-03 0.869E-02
   -.321E+01 0.557E+01 0.320E+03   0.321E+01 -.556E+01 -.320E+03   0.445E-02 -.771E-02 -.546E-01   -.137E-03 0.237E-03 0.136E-01
   -.161E+01 0.279E+01 0.159E+03   0.160E+01 -.278E+01 -.160E+03   0.927E-02 -.161E-01 0.179E+00   -.157E-03 0.272E-03 0.156E-01
   0.478E+01 -.829E+01 -.477E+03   -.478E+01 0.827E+01 0.476E+03   -.850E-02 0.147E-01 0.775E+00   -.184E-03 0.320E-03 0.185E-01
   0.161E+01 -.279E+01 -.159E+03   -.160E+01 0.278E+01 0.160E+03   -.890E-02 0.154E-01 -.178E+00   -.129E-03 0.224E-03 0.129E-01
   0.321E+01 -.557E+01 -.320E+03   -.321E+01 0.556E+01 0.320E+03   -.435E-02 0.753E-02 0.556E-01   -.138E-03 0.240E-03 0.138E-01
 -----------------------------------------------------------------------------------------------
   -.276E-02 0.478E-02 0.182E+00   -.488E-13 0.382E-13 0.853E-12   0.486E-03 -.842E-03 -.102E-01   0.226E-02 -.391E-02 -.170E+00
 
 
 POSITION                                       TOTAL-FORCE (eV/Angst)
 -----------------------------------------------------------------------------------
      1.57667      0.26435     13.98020         0.002385     -0.004131      0.003584
      1.51223      0.37596     21.39562        -0.000006      0.000010      0.002249
      1.44747      0.48813     28.81064        -0.002368      0.004102      0.001487
      0.73670      1.71922     11.47529         0.002914     -0.005047     -0.005612
      2.41821     -1.19324     16.48793         0.002471     -0.004280     -0.010094
      0.66972      1.83523     18.89065         0.000001     -0.000002     -0.006888
      2.35470     -1.08323     23.90063        -0.000318      0.000551      0.010510
      0.60598      1.94563     26.30332        -0.002262      0.003917      0.007977
      2.28742     -0.96671     31.31603        -0.002988      0.005176      0.000874
      1.61329      0.20092     10.24780         0.003265     -0.005655      0.000183
      1.54396      0.32100     17.68873         0.000162     -0.000280      0.006860
      1.48035      0.43118     25.10218        -0.000250      0.000433     -0.005047
      1.41081      0.55163     32.54352        -0.003390      0.005872      0.007867
      2.45205     -1.25186     12.77903         0.001887     -0.003268     -0.001759
      0.70158      1.78004     15.18228         0.001737     -0.003008      0.003307
      2.38668     -1.13863     20.19479        -0.000437      0.000756     -0.003034
      0.63780      1.89052     22.59594         0.000193     -0.000334      0.002528
      2.32253     -1.02752     27.60897        -0.001432      0.002481     -0.002605
      0.57206      2.00439     30.01310        -0.001702      0.002947     -0.010830
      2.60257     -1.51255      1.10123         0.000059     -0.000102     -0.000232
      2.50948     -1.35132      7.86475         0.000804     -0.001393     -0.000907
      1.67384      0.09605      5.59496         0.001200     -0.002079     -0.004824
      0.84137      1.53792      3.29250         0.001818     -0.003149      0.000755
      0.51439      2.10427     34.92670        -0.000939      0.001626     -0.001122
      2.18167     -0.78354     39.49848        -0.001623      0.002811     -0.000407
      1.34959      0.65766     37.19615        -0.001182      0.002047      0.005179
 -----------------------------------------------------------------------------------
    total drift:                               -0.000017      0.000029      0.002238


--------------------------------------------------------------------------------------------------------



  FREE ENERGIE OF THE ION-ELECTRON SYSTEM (eV)
  ---------------------------------------------------
  free  energy   TOTEN  =      -134.11299593 eV

  energy  without entropy=     -134.11052894  energy(sigma->0) =     -134.11176244
 
 d Force = 0.9166989E-04[ 0.328E-04, 0.151E-03]  d Energy = 0.7646968E-04 0.152E-04
 d Force =-0.2726225E+01[-0.273E+01,-0.273E+01]  d Ewald  =-0.2726225E+01 0.907E-08


--------------------------------------------------------------------------------------------------------


    POTLOK:  cpu time    0.20: real time    0.20


--------------------------------------------------------------------------------------------------------


 Conjugate gradient step on ions:
 trial-energy change:   -0.000076  1 .order   -0.000092   -0.000151   -0.000033
  (g-gl).g = 0.159E-03      g.g   = 0.173E-03  gl.gl    = 0.540E-03
 g(Force)  = 0.173E-03   g(Stress)= 0.000E+00 ortho     =-0.148E-04
 gamma     =   0.29525
 trial     =   0.89484
 opt step  =   1.14369  (harmonic =   1.14369) maximal distance =0.00104103
 next E    =  -134.113016   (d E  =  -0.00010)


--------------------------------------------------------------------------------------------------------


  
 reached required accuracy - stopping structural energy minimisation
     LOOP+:  cpu time   66.81: real time   66.88
    4ORBIT:  cpu time    0.00: real time    0.00

 total amount of memory used by VASP on root node   196550. kBytes
========================================================================

   base      :      30000. kBytes
   nonl-proj :      34328. kBytes
   fftplans  :      55170. kBytes
   grid      :      22118. kBytes
   one-center:         56. kBytes
   wavefun   :      54878. kBytes
 
  
  
 General timing and accounting informations for this job:
 ========================================================
  
                  Total CPU time used (sec):     1670.248
                            User time (sec):     1658.335
                          System time (sec):       11.913
                         Elapsed time (sec):     1671.900
  
                   Maximum memory used (kb):      306720.
                   Average memory used (kb):           0.
  
                          Minor page faults:       489993
                          Major page faults:            0
                 Voluntary context switches:          447
