 vasp.5.4.4.18Apr17-6-g9f103f2a35 (build Nov 15 2019 10:10:58) complex          
  
 executed on             LinuxIFC date 2024.09.28  14:26:31
 running on   20 total cores
 distrk:  each k-point on   20 cores,    1 groups
 distr:  one band on NCORES_PER_BAND=   4 cores,    5 groups


--------------------------------------------------------------------------------------------------------


 INCAR:
 POTCAR:    PAW_PBE O 08Apr2002                   
 POTCAR:    PAW_PBE Mg 13Apr2007                  
 POTCAR:    PAW_PBE O 08Apr2002                   
   VRHFIN =O: s2p4                                                              
   LEXCH  = PE                                                                  
   EATOM  =   432.3788 eV,   31.7789 Ry                                         
                                                                                
   TITEL  = PAW_PBE O 08Apr2002                                                 
   LULTRA =        F    use ultrasoft PP ?                                      
   IUNSCR =        1    unscreen: 0-lin 1-nonlin 2-no                           
   RPACOR =    1.200    partial core radius                                     
   POMASS =   16.000; ZVAL   =    6.000    mass and valenz                      
   RCORE  =    1.520    outmost cutoff radius                                   
   RWIGS  =    1.550; RWIGS  =    0.820    wigner-seitz radius (au A)           
   ENMAX  =  400.000; ENMIN  =  300.000 eV                                      
   ICORE  =        2    local potential                                         
   LCOR   =        T    correct aug charges                                     
   LPAW   =        T    paw PP                                                  
   EAUG   =  605.392                                                            
   DEXC   =    0.000                                                            
   RMAX   =    1.553    core radius for proj-oper                               
   RAUG   =    1.300    factor for augmentation sphere                          
   RDEP   =    1.550    radius for radial grids                                 
   RDEPT  =    1.329    core radius for aug-charge                              
                                                                                
   Atomic configuration                                                         
    4 entries                                                                   
     n  l   j            E        occ.                                          
     1  0  0.50      -514.6923   2.0000                                         
     2  0  0.50       -23.9615   2.0000                                         
     2  1  0.50        -9.0305   4.0000                                         
     3  2  1.50        -9.5241   0.0000                                         
   Description                                                                  
     l       E           TYP  RCUT    TYP  RCUT                                 
     0    -23.9615318     23  1.200                                             
     0     -9.5240782     23  1.200                                             
     1     -9.0304911     23  1.520                                             
     1      8.1634956     23  1.520                                             
     2     -9.5240782      7  1.500                                             
  local pseudopotential read in
  partial core-charges read in
  partial kinetic energy density read in
  kinetic energy density of atom read in
  atomic valenz-charges read in
  non local Contribution for L=           0  read in
    real space projection operators read in
  non local Contribution for L=           0  read in
    real space projection operators read in
  non local Contribution for L=           1  read in
    real space projection operators read in
  non local Contribution for L=           1  read in
    real space projection operators read in
    PAW grid and wavefunctions read in
 
   number of l-projection  operators is LMAX  =           4
   number of lm-projection operators is LMMAX =           8
 
 POTCAR:    PAW_PBE Mg 13Apr2007                  
   VRHFIN =Mg: s2p0                                                             
   LEXCH  = PE                                                                  
   EATOM  =    23.0369 eV,    1.6932 Ry                                         
                                                                                
   TITEL  = PAW_PBE Mg 13Apr2007                                                
   LULTRA =        F    use ultrasoft PP ?                                      
   IUNSCR =        1    unscreen: 0-lin 1-nonlin 2-no                           
   RPACOR =    1.500    partial core radius                                     
   POMASS =   24.305; ZVAL   =    2.000    mass and valenz                      
   RCORE  =    2.000    outmost cutoff radius                                   
   RWIGS  =    2.880; RWIGS  =    1.524    wigner-seitz radius (au A)           
   ENMAX  =  200.000; ENMIN  =  100.000 eV                                      
   RCLOC  =    1.506    cutoff for local pot                                    
   LCOR   =        T    correct aug charges                                     
   LPAW   =        T    paw PP                                                  
   EAUG   =  454.734                                                            
   DEXC   =    0.000                                                            
   RMAX   =    2.045    core radius for proj-oper                               
   RAUG   =    1.300    factor for augmentation sphere                          
   RDEP   =    2.025    radius for radial grids                                 
   RDEPT  =    1.942    core radius for aug-charge                              
                                                                                
   Atomic configuration                                                         
    6 entries                                                                   
     n  l   j            E        occ.                                          
     1  0  0.50     -1259.6230   2.0000                                         
     2  0  0.50       -79.8442   2.0000                                         
     2  1  1.50       -46.6121   6.0000                                         
     3  0  0.50        -4.7055   2.0000                                         
     3  1  0.50        -1.3660   0.0000                                         
     3  2  1.50        -1.3606   0.0000                                         
   Description                                                                  
     l       E           TYP  RCUT    TYP  RCUT                                 
     0     -4.7054661     23  2.000                                             
     0     27.2116520     23  2.000                                             
     1      1.3605826     23  2.000                                             
     1     27.2116520     23  2.000                                             
     2     -1.3605826     23  2.000                                             
  local pseudopotential read in
  partial core-charges read in
  partial kinetic energy density read in
  atomic valenz-charges read in
  non local Contribution for L=           0  read in
    real space projection operators read in
  non local Contribution for L=           0  read in
    real space projection operators read in
  non local Contribution for L=           1  read in
    real space projection operators read in
  non local Contribution for L=           1  read in
    real space projection operators read in
  non local Contribution for L=           2  read in
    real space projection operators read in
    PAW grid and wavefunctions read in
 
   number of l-projection  operators is LMAX  =           5
   number of lm-projection operators is LMMAX =          13
 

 ----------------------------------------------------------------------------- 
|                                                                             |
|  ADVICE TO THIS USER RUNNING 'VASP/VAMP'   (HEAR YOUR MASTER'S VOICE ...):  |
|                                                                             |
|      You have a (more or less) 'large supercell' and for larger cells       |
|      it might be more efficient to use real space projection opertators     |
|      So try LREAL= Auto  in the INCAR   file.                               |
|      Mind:          For very  accurate calculation you might also keep the  |
|      reciprocal projection scheme          (i.e. LREAL=.FALSE.)             |
|                                                                             |
 ----------------------------------------------------------------------------- 

  PAW_PBE O 08Apr2002                   :
 energy of atom  1       EATOM= -432.3788
 kinetic energy error for atom=    0.0389 (will be added to EATOM!!)
  PAW_PBE Mg 13Apr2007                  :
 energy of atom  2       EATOM=  -23.0369
 kinetic energy error for atom=    0.0001 (will be added to EATOM!!)
 
 
 POSCAR: Layer20                                 
  positions in direct lattice
  velocities in cartesian coordinates
 exchange correlation table for  LEXCH =        8
   RHO(1)=    0.500       N(1)  =     2000
   RHO(2)=  100.500       N(2)  =     4000

 VTST: version 3.2, (02/03/18)

 CHAIN: initializing optimizer
 
 OPT: Using VASP Conjugate-Gradient optimizer
 CHAIN: Read ICHAIN            0
 
 POSCAR: Layer20                                 
  positions in direct lattice
  velocities in cartesian coordinates
 


--------------------------------------------------------------------------------------------------------


 ion  position               nearest neighbor table
   1  0.546  0.454  0.496-  14 2.11  14 2.11  14 2.11  15 2.12  15 2.12  15 2.12
   2  0.513  0.487  0.601-  16 2.11  16 2.11  16 2.11  17 2.12  17 2.12  17 2.12
   3  0.480  0.520  0.706-  18 2.11  18 2.11  18 2.11  19 2.12  19 2.12  19 2.12
   4  0.225  0.775  0.461-  14 2.11  14 2.11  14 2.11  10 2.13  10 2.13  10 2.13
   5  0.868  0.132  0.531-  15 2.11  15 2.11  15 2.11  11 2.12  11 2.12  11 2.12
   6  0.190  0.810  0.566-  11 2.11  11 2.11  11 2.11  16 2.11  16 2.12  16 2.12
   7  0.835  0.165  0.636-  17 2.11  17 2.11  17 2.11  12 2.12  12 2.12  12 2.12
   8  0.157  0.843  0.671-  12 2.11  12 2.11  12 2.11  18 2.12  18 2.12  18 2.12
   9  0.801  0.199  0.741-  19 2.11  19 2.11  19 2.11  13 2.15  13 2.15  13 2.15
  10  0.565  0.435  0.444-   4 2.13   4 2.13   4 2.13  14 3.01  14 3.01  14 3.01
  11  0.529  0.471  0.549-   6 2.11   6 2.11   6 2.11   5 2.12   5 2.12   5 2.12  16 2.99  16 2.99
                            15 2.99  15 2.99  15 3.00  16 3.00
  12  0.496  0.504  0.654-   8 2.11   8 2.11   8 2.11   7 2.12   7 2.12   7 2.12  18 3.00  18 3.00
                            17 3.00  17 3.00  17 3.00  18 3.00
  13  0.462  0.538  0.759-   9 2.15   9 2.15   9 2.15  19 3.04  19 3.04  19 3.04
  14  0.886  0.114  0.479-   1 2.11   1 2.11   1 2.11   4 2.11   4 2.11   4 2.11  15 2.99  15 2.99
                            15 2.99  10 3.01  10 3.01  10 3.01
  15  0.207  0.793  0.514-   5 2.11   5 2.11   5 2.11   1 2.12   1 2.12   1 2.12  14 2.99  14 2.99
                            11 2.99  11 2.99  14 2.99  11 3.00
  16  0.851  0.149  0.584-   2 2.11   2 2.11   2 2.11   6 2.11   6 2.12   6 2.12  11 2.99  11 2.99
                            17 3.00  17 3.00  11 3.00  17 3.00
  17  0.174  0.826  0.619-   7 2.11   7 2.11   7 2.11   2 2.12   2 2.12   2 2.12  16 3.00  16 3.00
                            12 3.00  12 3.00  16 3.00  12 3.00
  18  0.818  0.182  0.688-   3 2.11   3 2.11   3 2.11   8 2.12   8 2.12   8 2.12  19 3.00  19 3.00
                            12 3.00  12 3.00  19 3.00  12 3.00
  19  0.141  0.859  0.723-   9 2.11   9 2.11   9 2.11   3 2.12   3 2.12   3 2.12  18 3.00  18 3.00
                            18 3.00  13 3.04  13 3.04  13 3.04
 
  LATTYP: Found a base centered monoclinic cell.
 ALAT       =     5.1668803401
 B/A-ratio  =     0.5771732778
 C/A-ratio  =    13.6040526009
 COS(beta)  =    -0.0415071345
  
  Lattice vectors:
  
 A1 = (  -2.5829450306,   1.4915994751,  -0.0326812597)
 A2 = (  -0.0002947304,   2.9826884607,  -0.0326812167)
 A3 = (   2.1282810939,  -3.6862798958, -70.1615124364)


Analysis of symmetry for initial positions (statically):
=====================================================================
 Subroutine PRICEL returns:
 Original cell was already a primitive cell.
 

 Routine SETGRP: Setting up the symmetry group for a 
 base centered monoclinic supercell.


 Subroutine GETGRP returns: Found  2 space group operations
 (whereof  2 operations were pure point group operations)
 out of a pool of  4 trial point group operations.


The static configuration has the point symmetry C_1h.


Analysis of symmetry for dynamics (positions and initial velocities):
=====================================================================
 Subroutine PRICEL returns:
 Original cell was already a primitive cell.
 

 Routine SETGRP: Setting up the symmetry group for a 
 base centered monoclinic supercell.


 Subroutine GETGRP returns: Found  2 space group operations
 (whereof  2 operations were pure point group operations)
 out of a pool of  4 trial point group operations.


The dynamic configuration has the point symmetry C_1h.


Analysis of constrained symmetry for selective dynamics:
=====================================================================
 Subroutine PRICEL returns:
 Original cell was already a primitive cell.
 

 Routine SETGRP: Setting up the symmetry group for a 
 base centered monoclinic supercell.


 Subroutine GETGRP returns: Found  2 space group operations
 (whereof  2 operations were pure point group operations)
 out of a pool of  4 trial point group operations.


The constrained configuration has the point symmetry C_1h.


 Subroutine INISYM returns: Found  2 space group operations
 (whereof  2 operations are pure point group operations),
 and found     1 'primitive' translations

 
 
 KPOINTS: K-Spacing Value to Generate K-Mesh: 0.02

Automatic generation of k-mesh.
Space group operators:
 irot       det(A)        alpha          n_x          n_y          n_z        tau_x        tau_y        tau_z
    1     1.000000     0.000002     1.000000     0.000000     0.000000     0.000000     0.000000     0.000000
    2    -1.000000   179.999999     0.866025     0.500001    -0.000000     0.000000     0.000000     0.000000
 
 Subroutine IBZKPT returns following result:
 ===========================================
 
 Found     49 irreducible k-points:
 
 Following reciprocal coordinates:
            Coordinates               Weight
  0.000000  0.000000  0.000000      1.000000
  0.076923 -0.000000  0.000000      4.000000
  0.153846 -0.000000  0.000000      4.000000
  0.230769 -0.000000  0.000000      4.000000
  0.307692 -0.000000  0.000000      4.000000
  0.384615  0.000000  0.000000      4.000000
  0.461538 -0.000000  0.000000      4.000000
  0.076923  0.076923  0.000000      2.000000
  0.153846  0.076923  0.000000      4.000000
  0.230769  0.076923  0.000000      4.000000
  0.307692  0.076923  0.000000      4.000000
  0.384615  0.076923 -0.000000      4.000000
  0.461538  0.076923 -0.000000      4.000000
 -0.461538  0.076923 -0.000000      4.000000
 -0.384615  0.076923 -0.000000      4.000000
 -0.307692  0.076923  0.000000      4.000000
 -0.230769  0.076923  0.000000      4.000000
 -0.153846  0.076923 -0.000000      4.000000
 -0.076923  0.076923 -0.000000      2.000000
  0.153846  0.153846 -0.000000      2.000000
  0.230769  0.153846 -0.000000      4.000000
  0.307692  0.153846  0.000000      4.000000
  0.384615  0.153846  0.000000      4.000000
  0.461538  0.153846  0.000000      4.000000
 -0.461538  0.153846  0.000000      4.000000
 -0.384615  0.153846 -0.000000      4.000000
 -0.307692  0.153846 -0.000000      4.000000
 -0.230769  0.153846  0.000000      4.000000
 -0.153846  0.153846  0.000000      2.000000
  0.230769  0.230769 -0.000000      2.000000
  0.307692  0.230769  0.000000      4.000000
  0.384615  0.230769  0.000000      4.000000
  0.461538  0.230769  0.000000      4.000000
 -0.461538  0.230769 -0.000000      4.000000
 -0.384615  0.230769  0.000000      4.000000
 -0.307692  0.230769  0.000000      4.000000
 -0.230769  0.230769  0.000000      2.000000
  0.307692  0.307692 -0.000000      2.000000
  0.384615  0.307692  0.000000      4.000000
  0.461538  0.307692  0.000000      4.000000
 -0.461538  0.307692 -0.000000      4.000000
 -0.384615  0.307692 -0.000000      4.000000
 -0.307692  0.307692 -0.000000      2.000000
  0.384615  0.384615  0.000000      2.000000
  0.461538  0.384615  0.000000      4.000000
 -0.461538  0.384615 -0.000000      4.000000
 -0.384615  0.384615 -0.000000      2.000000
  0.461538  0.461538 -0.000000      2.000000
 -0.461538  0.461538  0.000000      2.000000
 
 Following cartesian coordinates:
            Coordinates               Weight
  0.000000  0.000000  0.000000      1.000000
  0.029784  0.000001 -0.000193      4.000000
  0.059568  0.000002 -0.000386      4.000000
  0.089352  0.000002 -0.000579      4.000000
  0.119136  0.000003 -0.000772      4.000000
  0.148920  0.000004 -0.000965      4.000000
  0.178704  0.000005 -0.001158      4.000000
  0.044677  0.025794 -0.000000      2.000000
  0.074461  0.025795 -0.000193      4.000000
  0.104245  0.025796 -0.000386      4.000000
  0.134029  0.025797 -0.000579      4.000000
  0.163813  0.025798 -0.000772      4.000000
  0.193597  0.025798 -0.000965      4.000000
 -0.163812  0.025788  0.001351      4.000000
 -0.134028  0.025789  0.001158      4.000000
 -0.104244  0.025790  0.000965      4.000000
 -0.074459  0.025791  0.000772      4.000000
 -0.044675  0.025792  0.000579      4.000000
 -0.014891  0.025793  0.000386      2.000000
  0.089354  0.051589 -0.000000      2.000000
  0.119138  0.051589 -0.000193      4.000000
  0.148922  0.051590 -0.000386      4.000000
  0.178706  0.051591 -0.000579      4.000000
  0.208490  0.051592 -0.000772      4.000000
 -0.148919  0.051582  0.001544      4.000000
 -0.119135  0.051583  0.001351      4.000000
 -0.089351  0.051584  0.001158      4.000000
 -0.059567  0.051584  0.000965      4.000000
 -0.029783  0.051585  0.000772      2.000000
  0.134030  0.077383 -0.000000      2.000000
  0.163815  0.077384 -0.000193      4.000000
  0.193599  0.077384 -0.000386      4.000000
  0.223383  0.077385 -0.000579      4.000000
 -0.134026  0.077375  0.001736      4.000000
 -0.104242  0.077376  0.001544      4.000000
 -0.074458  0.077377  0.001351      4.000000
 -0.044674  0.077378  0.001158      2.000000
  0.178707  0.103177 -0.000000      2.000000
  0.208491  0.103178 -0.000193      4.000000
  0.238275  0.103179 -0.000386      4.000000
 -0.119133  0.103169  0.001929      4.000000
 -0.089349  0.103170  0.001736      4.000000
 -0.059565  0.103170  0.001544      2.000000
  0.223384  0.128971 -0.000000      2.000000
  0.253168  0.128972 -0.000193      4.000000
 -0.104241  0.128962  0.002122      4.000000
 -0.074457  0.128963  0.001929      2.000000
  0.268061  0.154766 -0.000000      2.000000
 -0.089348  0.154756  0.002315      2.000000
 


--------------------------------------------------------------------------------------------------------




 Dimension of arrays:
   k-points           NKPTS =     49   k-points in BZ     NKDIM =     49   number of bands    NBANDS=     50
   number of dos      NEDOS =    301   number of ions     NIONS =     19
   non local maximal  LDIM  =      5   non local SUM 2l+1 LMDIM =     13
   total plane-waves  NPLWV = 322560
   max r-space proj   IRMAX =      1   max aug-charges    IRDMAX= 202829
   dimension x,y,z NGX =    24 NGY =   24 NGZ =  560
   dimension x,y,z NGXF=    48 NGYF=   48 NGZF= 1120
   support grid    NGXF=    96 NGYF=   96 NGZF= 2240
   ions per type =               9  10
   NGX,Y,Z   is equivalent  to a cutoff of  13.38, 13.38, 13.26 a.u.
   NGXF,Y,Z  is equivalent  to a cutoff of  26.75, 26.75, 26.51 a.u.

 Based on PREC, I would recommend the following setting:
   dimension x,y,z NGX =    24 NGY =   24 NGZ =  486

 SYSTEM =  unknown system                          
 POSCAR =  Layer20                                 

 Startparameter for this run:
   NWRITE =      2    write-flag & timer
   PREC   = accura    normal or accurate (medium, high low for compatibility)
   ISTART =      0    job   : 0-new  1-cont  2-samecut
   ICHARG =      2    charge: 1-file 2-atom 10-const
   ISPIN  =      1    spin polarized calculation?
   LNONCOLLINEAR =      F non collinear calculations
   LSORBIT =      F    spin-orbit coupling
   INIWAV =      1    electr: 0-lowe 1-rand  2-diag
   LASPH  =      F    aspherical Exc in radial PAW
   METAGGA=      F    non-selfconsistent MetaGGA calc.

 Electronic Relaxation 1
   ENCUT  =  450.0 eV  33.07 Ry    5.75 a.u.   5.16  5.16121.48*2*pi/ulx,y,z
   ENINI  =  450.0     initial cutoff
   ENAUG  =  605.4 eV  augmentation charge cutoff
   NELM   =    100;   NELMIN=  6; NELMDL=  0     # of ELM steps 
   EDIFF  = 0.1E-05   stopping-criterion for ELM
   LREAL  =      F    real-space projection
   NLSPLINE    = F    spline interpolate recip. space projectors
   LCOMPAT=      F    compatible to vasp.4.4
   GGA_COMPAT  = T    GGA compatible to vasp.4.4-vasp.4.6
   LMAXPAW     = -100 max onsite density
   LMAXMIX     =    2 max onsite mixed and CHGCAR
   VOSKOWN=      0    Vosko Wilk Nusair interpolation
   ROPT   =    0.00000   0.00000
 Ionic relaxation
   EDIFFG = -.2E-01   stopping-criterion for IOM
   NSW    =      0    number of steps for IOM
   NBLOCK =      1;   KBLOCK =      1    inner block; outer block 
   IBRION =     -1    ionic relax: 0-MD 1-quasi-New 2-CG
   NFREE  =      1    steps in history (QN), initial steepest desc. (CG)
   ISIF   =      4    stress and relaxation
   IWAVPR =     10    prediction:  0-non 1-charg 2-wave 3-comb
   ISYM   =      2    0-nonsym 1-usesym 2-fastsym
   LCORR  =      T    Harris-Foulkes like correction to forces

   POTIM  = 0.5000    time-step for ionic-motion
   TEIN   =    0.0    initial temperature
   TEBEG  =    0.0;   TEEND  =   0.0 temperature during run
   SMASS  =  -3.00    Nose mass-parameter (am)
   estimated Nose-frequenzy (Omega)   =  0.10E-29 period in steps =****** mass=  -0.203E-27a.u.
   SCALEE = 1.0000    scale energy and forces
   NPACO  =    256;   APACO  = 16.0  distance and # of slots for P.C.
   PSTRESS=    0.0 pullay stress

  Mass of Ions in am
   POMASS =  16.00 24.30
  Ionic Valenz
   ZVAL   =   6.00  2.00
  Atomic Wigner-Seitz radii
   RWIGS  =  -1.00 -1.00
  virtual crystal weights 
   VCA    =   1.00  1.00
   NELECT =      74.0000    total number of electrons
   NUPDOWN=      -1.0000    fix difference up-down

 DOS related values:
   EMIN   =  10.00;   EMAX   =-10.00  energy-range for DOS
   EFERMI =   0.00
   ISMEAR =     0;   SIGMA  =   0.05  broadening in eV -4-tet -1-fermi 0-gaus

 Electronic relaxation 2 (details)
   IALGO  =     38    algorithm
   LDIAG  =      T    sub-space diagonalisation (order eigenvalues)
   LSUBROT=      F    optimize rotation matrix (better conditioning)
   TURBO    =      0    0=normal 1=particle mesh
   IRESTART =      0    0=no restart 2=restart with 2 vectors
   NREBOOT  =      0    no. of reboots
   NMIN     =      0    reboot dimension
   EREF     =   0.00    reference energy to select bands
   IMIX   =      4    mixing-type and parameters
     AMIX     =   0.40;   BMIX     =  1.00
     AMIX_MAG =   1.60;   BMIX_MAG =  1.00
     AMIN     =   0.01
     WC   =   100.;   INIMIX=   1;  MIXPRE=   1;  MAXMIX= -45

 Intra band minimization:
   WEIMIN = 0.0000     energy-eigenvalue tresh-hold
   EBREAK =  0.50E-08  absolut break condition
   DEPER  =   0.30     relativ break condition  

   TIME   =   0.40     timestep for ELM

  volume/ion in A,a.u.               =      28.47       192.12
  Fermi-wavevector in a.u.,A,eV,Ry     =   0.843546  1.594070  9.681488  0.711569
  Thomas-Fermi vector in A             =   1.958431
 
 Write flags
   LWAVE        =      F    write WAVECAR
   LDOWNSAMPLE  =      F    k-point downsampling of WAVECAR
   LCHARG       =      T    write CHGCAR
   LVTOT        =      F    write LOCPOT, total local potential
   LVHAR        =      F    write LOCPOT, Hartree potential only
   LELF         =      F    write electronic localiz. function (ELF)
   LORBIT       =      0    0 simple, 1 ext, 2 COOP (PROOUT), +10 PAW based schemes


 Dipole corrections
   LMONO  =      F    monopole corrections only (constant potential shift)
   LDIPOL =      F    correct potential (dipole corrections)
   IDIPOL =      0    1-x, 2-y, 3-z, 4-all directions 
   EPSILON=  1.0000000 bulk dielectric constant

 Exchange correlation treatment:
   GGA     =    --    GGA type
   LEXCH   =     8    internal setting for exchange type
   VOSKOWN=      0    Vosko Wilk Nusair interpolation
   LHFCALC =     F    Hartree Fock is set to
   LHFONE  =     F    Hartree Fock one center treatment
   AEXX    =    0.0000 exact exchange contribution

 Linear response parameters
   LEPSILON=     F    determine dielectric tensor
   LRPA    =     F    only Hartree local field effects (RPA)
   LNABLA  =     F    use nabla operator in PAW spheres
   LVEL    =     F    velocity operator in full k-point grid
   LINTERFAST=   F  fast interpolation
   KINTER  =     0    interpolate to denser k-point grid
   CSHIFT  =0.1000    complex shift for real part using Kramers Kronig
   OMEGAMAX=  -1.0    maximum frequency
   DEG_THRESHOLD= 0.2000000E-02 threshold for treating states as degnerate
   RTIME   =   -0.100 relaxation time in fs
  (WPLASMAI=    0.000 imaginary part of plasma frequency in eV, 0.658/RTIME)
   DFIELD  = 0.0000000 0.0000000 0.0000000 field for delta impulse in time
 
 Orbital magnetization related:
   ORBITALMAG=     F  switch on orbital magnetization
   LCHIMAG   =     F  perturbation theory with respect to B field
   DQ        =  0.001000  dq finite difference perturbation B field
   LLRAUG    =     F  two centre corrections for induced B field



--------------------------------------------------------------------------------------------------------


 Static calculation
 charge density and potential will be updated during run
 non-spin polarized calculation
 Variant of blocked Davidson
 Davidson routine will perform the subspace rotation
 perform sub-space diagonalisation
    after iterative eigenvector-optimisation
 modified Broyden-mixing scheme, WC =      100.0
 initial mixing is a Kerker type mixing with AMIX =  0.4000 and BMIX =      1.0000
 Hartree-type preconditioning will be used
 using additional bands           13
 reciprocal scheme for non local part
 use partial core corrections
 calculate Harris-corrections to forces 
   (improved forces if not selfconsistent)
 use gradient corrections 
 use of overlap-Matrix (Vanderbilt PP)
 Gauss-broadening in eV      SIGMA  =   0.05


--------------------------------------------------------------------------------------------------------


  energy-cutoff  :      450.00
  volume of cell :      540.92
      direct lattice vectors                 reciprocal lattice vectors
     2.582945031 -1.491599475  0.032681260     0.387192928  0.000010777 -0.002508275
    -0.000294730  2.982688461 -0.032681217     0.193605797  0.335314616  0.002508270
     0.454958667 -0.788008040 70.226874913    -0.000090089  0.000156039  0.014241897

  length of vectors
     2.982874803  2.982867513 70.232769446     0.387201052  0.387201998  0.014243037


 
 k-points in units of 2pi/SCALE and weight: K-Spacing Value to Generate K-Mesh: 0.02
   0.00000000  0.00000000  0.00000000       0.006
   0.02978407  0.00000083 -0.00019294       0.024
   0.05956814  0.00000166 -0.00038589       0.024
   0.08935221  0.00000249 -0.00057883       0.024
   0.11913629  0.00000332 -0.00077178       0.024
   0.14892036  0.00000414 -0.00096472       0.024
   0.17870443  0.00000497 -0.00115767       0.024
   0.04467682  0.02579426 -0.00000000       0.012
   0.07446090  0.02579509 -0.00019294       0.024
   0.10424497  0.02579592 -0.00038589       0.024
   0.13402904  0.02579675 -0.00057883       0.024
   0.16381311  0.02579758 -0.00077178       0.024
   0.19359718  0.02579841 -0.00096472       0.024
  -0.16381167  0.02578846  0.00135061       0.024
  -0.13402760  0.02578929  0.00115766       0.024
  -0.10424353  0.02579012  0.00096472       0.024
  -0.07445946  0.02579095  0.00077178       0.024
  -0.04467539  0.02579177  0.00057883       0.024
  -0.01489132  0.02579260  0.00038589       0.012
   0.08935365  0.05158852 -0.00000000       0.012
   0.11913772  0.05158935 -0.00019294       0.024
   0.14892179  0.05159018 -0.00038589       0.024
   0.17870586  0.05159101 -0.00057883       0.024
   0.20848994  0.05159184 -0.00077178       0.024
  -0.14891892  0.05158189  0.00154355       0.024
  -0.11913485  0.05158272  0.00135061       0.024
  -0.08935078  0.05158355  0.00115766       0.024
  -0.05956671  0.05158438  0.00096472       0.024
  -0.02978264  0.05158521  0.00077178       0.012
   0.13403047  0.07738278 -0.00000000       0.012
   0.16381455  0.07738361 -0.00019295       0.024
   0.19359862  0.07738444 -0.00038589       0.024
   0.22338269  0.07738527 -0.00057883       0.024
  -0.13402617  0.07737532  0.00173650       0.024
  -0.10424210  0.07737615  0.00154355       0.024
  -0.07445802  0.07737698  0.00135061       0.024
  -0.04467395  0.07737781  0.00115766       0.012
   0.17870730  0.10317704 -0.00000000       0.012
   0.20849137  0.10317787 -0.00019295       0.024
   0.23827544  0.10317870 -0.00038589       0.024
  -0.11913341  0.10316875  0.00192944       0.024
  -0.08934934  0.10316958  0.00173650       0.024
  -0.05956527  0.10317041  0.00154355       0.012
   0.22338412  0.12897130 -0.00000000       0.012
   0.25316820  0.12897213 -0.00019295       0.024
  -0.10424066  0.12896219  0.00212238       0.024
  -0.07445659  0.12896301  0.00192944       0.012
   0.26806095  0.15476557 -0.00000000       0.012
  -0.08934791  0.15475562  0.00231533       0.012
 
 k-points in reciprocal lattice and weights: K-Spacing Value to Generate K-Mesh: 0.02
   0.00000000  0.00000000  0.00000000       0.006
   0.07692308 -0.00000000  0.00000000       0.024
   0.15384615 -0.00000000  0.00000000       0.024
   0.23076923 -0.00000000  0.00000000       0.024
   0.30769231 -0.00000000  0.00000000       0.024
   0.38461538  0.00000000  0.00000000       0.024
   0.46153846 -0.00000000  0.00000000       0.024
   0.07692308  0.07692308  0.00000000       0.012
   0.15384615  0.07692308  0.00000000       0.024
   0.23076923  0.07692308  0.00000000       0.024
   0.30769231  0.07692308  0.00000000       0.024
   0.38461538  0.07692308 -0.00000000       0.024
   0.46153846  0.07692308 -0.00000000       0.024
  -0.46153846  0.07692308 -0.00000000       0.024
  -0.38461538  0.07692308 -0.00000000       0.024
  -0.30769231  0.07692308  0.00000000       0.024
  -0.23076923  0.07692308  0.00000000       0.024
  -0.15384615  0.07692308 -0.00000000       0.024
  -0.07692308  0.07692308 -0.00000000       0.012
   0.15384615  0.15384615 -0.00000000       0.012
   0.23076923  0.15384615 -0.00000000       0.024
   0.30769231  0.15384615  0.00000000       0.024
   0.38461538  0.15384615  0.00000000       0.024
   0.46153846  0.15384615  0.00000000       0.024
  -0.46153846  0.15384615  0.00000000       0.024
  -0.38461538  0.15384615 -0.00000000       0.024
  -0.30769231  0.15384615 -0.00000000       0.024
  -0.23076923  0.15384615  0.00000000       0.024
  -0.15384615  0.15384615  0.00000000       0.012
   0.23076923  0.23076923 -0.00000000       0.012
   0.30769231  0.23076923  0.00000000       0.024
   0.38461538  0.23076923  0.00000000       0.024
   0.46153846  0.23076923  0.00000000       0.024
  -0.46153846  0.23076923 -0.00000000       0.024
  -0.38461538  0.23076923  0.00000000       0.024
  -0.30769231  0.23076923  0.00000000       0.024
  -0.23076923  0.23076923  0.00000000       0.012
   0.30769231  0.30769231 -0.00000000       0.012
   0.38461538  0.30769231  0.00000000       0.024
   0.46153846  0.30769231  0.00000000       0.024
  -0.46153846  0.30769231 -0.00000000       0.024
  -0.38461538  0.30769231 -0.00000000       0.024
  -0.30769231  0.30769231 -0.00000000       0.012
   0.38461538  0.38461538  0.00000000       0.012
   0.46153846  0.38461538  0.00000000       0.024
  -0.46153846  0.38461538 -0.00000000       0.024
  -0.38461538  0.38461538 -0.00000000       0.012
   0.46153846  0.46153846 -0.00000000       0.012
  -0.46153846  0.46153846  0.00000000       0.012
 
 position of ions in fractional coordinates (direct lattice) 
   0.54636425  0.45363573  0.49624980
   0.51261049  0.48738950  0.60097638
   0.47959520  0.52040481  0.70590283
   0.22534682  0.77465316  0.46143085
   0.86793780  0.13206218  0.53114177
   0.19014054  0.80985945  0.56604043
   0.83494539  0.16505461  0.63595439
   0.15725279  0.84274722  0.67092964
   0.80148572  0.19851429  0.74080647
   0.56513163  0.43486835  0.44365880
   0.52888563  0.47111436  0.54867095
   0.49602516  0.50397484  0.65352229
   0.46203504  0.53796498  0.75914446
   0.88578450  0.11421549  0.47888429
   0.20706858  0.79293140  0.51376907
   0.85134200  0.14865799  0.58358384
   0.17375012  0.82624988  0.61854445
   0.81839933  0.18160068  0.68849589
   0.14056960  0.85943041  0.72345472
 
 position of ions in cartesian coordinates  (Angst):
   1.63686828  0.14704860 34.85310316
   1.59732048  0.21554730 42.20551704
   1.55977128  0.28058435 49.57201640
   0.79176210  1.61081063 32.38689430
   2.48344426 -1.31925920 37.32447582
   0.74840887  1.68590049 39.73099718
   2.44590237 -1.25423481 44.68298214
   0.71117217  1.75039628 47.09488896
   2.40717138 -1.18715086 52.04422928
   1.66142219  0.10452006 31.16102839
   1.61556627  0.18394470 38.53333435
   1.57838281  0.24834827 45.89456842
   1.53863190  0.31719878 53.30986127
   2.50577156 -1.35793115 33.65576315
   0.76835676  1.65134978 36.06124980
   2.46443231 -1.28632957 41.00623362
   0.72995564  1.71786239 43.41711895
   2.42706413 -1.22160607 48.37172647
   0.69197224  1.78365150 50.78247082
 


--------------------------------------------------------------------------------------------------------


 k-point  1 :   0.0000 0.0000 0.0000  plane waves:   11667
 k-point  2 :   0.0769-0.0000 0.0000  plane waves:   11632
 k-point  3 :   0.1538-0.0000 0.0000  plane waves:   11590
 k-point  4 :   0.2308-0.0000 0.0000  plane waves:   11697
 k-point  5 :   0.3077-0.0000 0.0000  plane waves:   11755
 k-point  6 :   0.3846 0.0000 0.0000  plane waves:   11774
 k-point  7 :   0.4615-0.0000 0.0000  plane waves:   11790
 k-point  8 :   0.0769 0.0769 0.0000  plane waves:   11601
 k-point  9 :   0.1538 0.0769 0.0000  plane waves:   11662
 k-point 10 :   0.2308 0.0769 0.0000  plane waves:   11725
 k-point 11 :   0.3077 0.0769 0.0000  plane waves:   11776
 k-point 12 :   0.3846 0.0769-0.0000  plane waves:   11787
 k-point 13 :   0.4615 0.0769-0.0000  plane waves:   11755
 k-point 14 :  -0.4615 0.0769-0.0000  plane waves:   11783
 k-point 15 :  -0.3846 0.0769-0.0000  plane waves:   11770
 k-point 16 :  -0.3077 0.0769 0.0000  plane waves:   11730
 k-point 17 :  -0.2308 0.0769 0.0000  plane waves:   11658
 k-point 18 :  -0.1538 0.0769-0.0000  plane waves:   11600
 k-point 19 :  -0.0769 0.0769-0.0000  plane waves:   11631
 k-point 20 :   0.1538 0.1538-0.0000  plane waves:   11679
 k-point 21 :   0.2308 0.1538-0.0000  plane waves:   11727
 k-point 22 :   0.3077 0.1538 0.0000  plane waves:   11763
 k-point 23 :   0.3846 0.1538 0.0000  plane waves:   11752
 k-point 24 :   0.4615 0.1538 0.0000  plane waves:   11757
 k-point 25 :  -0.4615 0.1538 0.0000  plane waves:   11767
 k-point 26 :  -0.3846 0.1538-0.0000  plane waves:   11723
 k-point 27 :  -0.3077 0.1538-0.0000  plane waves:   11681
 k-point 28 :  -0.2308 0.1538 0.0000  plane waves:   11660
 k-point 29 :  -0.1538 0.1538 0.0000  plane waves:   11591
 k-point 30 :   0.2308 0.2308-0.0000  plane waves:   11737
 k-point 31 :   0.3077 0.2308 0.0000  plane waves:   11735
 k-point 32 :   0.3846 0.2308 0.0000  plane waves:   11718
 k-point 33 :   0.4615 0.2308 0.0000  plane waves:   11739
 k-point 34 :  -0.4615 0.2308-0.0000  plane waves:   11740
 k-point 35 :  -0.3846 0.2308 0.0000  plane waves:   11719
 k-point 36 :  -0.3077 0.2308 0.0000  plane waves:   11728
 k-point 37 :  -0.2308 0.2308 0.0000  plane waves:   11703
 k-point 38 :   0.3077 0.3077-0.0000  plane waves:   11669
 k-point 39 :   0.3846 0.3077 0.0000  plane waves:   11681
 k-point 40 :   0.4615 0.3077 0.0000  plane waves:   11738
 k-point 41 :  -0.4615 0.3077-0.0000  plane waves:   11755
 k-point 42 :  -0.3846 0.3077-0.0000  plane waves:   11771
 k-point 43 :  -0.3077 0.3077-0.0000  plane waves:   11754
 k-point 44 :   0.3846 0.3846 0.0000  plane waves:   11731
 k-point 45 :   0.4615 0.3846 0.0000  plane waves:   11757
 k-point 46 :  -0.4615 0.3846-0.0000  plane waves:   11787
 k-point 47 :  -0.3846 0.3846-0.0000  plane waves:   11770
 k-point 48 :   0.4615 0.4615-0.0000  plane waves:   11768
 k-point 49 :  -0.4615 0.4615 0.0000  plane waves:   11778

 maximum and minimum number of plane-waves per node :      2963     2862

 maximum number of plane-waves:     11790
 maximum index in each direction: 
   IXMAX=    5   IYMAX=    5   IZMAX=  121
   IXMIN=   -5   IYMIN=   -5   IZMIN= -121


 parallel 3D FFT for wavefunctions:
    minimum data exchange during FFTs selected (reduces bandwidth)
 parallel 3D FFT for charge:
    minimum data exchange during FFTs selected (reduces bandwidth)


 total amount of memory used by VASP MPI-rank0   118884. kBytes
=======================================================================

   base      :      30000. kBytes
   nonl-proj :      30910. kBytes
   fftplans  :      22143. kBytes
   grid      :      12271. kBytes
   one-center:         40. kBytes
   wavefun   :      23520. kBytes
 
     INWAV:  cpu time    0.0000: real time    0.0000
 Broyden mixing: mesh for mixing (old mesh)
   NGX = 11   NGY = 11   NGZ =243
  (NGX  = 48   NGY  = 48   NGZ  =***)
  gives a total of  29403 points

 initial charge density was supplied:
 charge density of overlapping atoms calculated
 number of electron      74.0000000 magnetization 
 keeping initial charge density in first step


--------------------------------------------------------------------------------------------------------


 Maximum index for augmentation-charges        10780 (set IRDMAX)


--------------------------------------------------------------------------------------------------------


 First call to EWALD:  gamma=   0.218
 Maximum number of real-space cells 8x 8x 1
 Maximum number of reciprocal cells 1x 1x20

    FEWALD:  cpu time    0.0015: real time    0.0014


--------------------------------------- Iteration      1(   1)  ---------------------------------------


    POTLOK:  cpu time    0.0647: real time    0.0656
    SETDIJ:  cpu time    0.0964: real time    0.0968
     EDDAV:  cpu time    7.0123: real time    7.0191
       DOS:  cpu time    0.0014: real time    0.0021
    --------------------------------------------
      LOOP:  cpu time    7.1749: real time    7.1835

 eigenvalue-minimisations  :  5330
 total energy-change (2. order) : 0.6315631E+03  (-0.2844217E+04)
 number of electron      74.0000000 magnetization 
 augmentation part       74.0000000 magnetization 

 Free energy of the ion-electron system (eV)
  ---------------------------------------------------
  alpha Z        PSCENC =        59.29943541
  Ewald energy   TEWEN  =    169453.35608639
  -Hartree energ DENC   =   -173039.24089530
  -exchange      EXHF   =         0.00000000
  -V(xc)+E(xc)   XCENC  =      -233.59206506
  PAW double counting   =      3772.01224470    -3269.57291537
  entropy T*S    EENTRO =        -0.00521041
  eigenvalues    EBANDS =      -232.12051483
  atomic energy  EATOM  =      4121.42696706
  Solvation  Ediel_sol  =         0.00000000
  ---------------------------------------------------
  free energy    TOTEN  =       631.56313257 eV

  energy without entropy =      631.56834299  energy(sigma->0) =      631.56573778


--------------------------------------------------------------------------------------------------------




--------------------------------------- Iteration      1(   2)  ---------------------------------------


     EDDAV:  cpu time   11.9222: real time   12.1928
       DOS:  cpu time    0.0016: real time    0.0016
    --------------------------------------------
      LOOP:  cpu time   11.9238: real time   12.1943

 eigenvalue-minimisations  :  6860
 total energy-change (2. order) :-0.6431759E+03  (-0.6223029E+03)
 number of electron      74.0000000 magnetization 
 augmentation part       74.0000000 magnetization 

 Free energy of the ion-electron system (eV)
  ---------------------------------------------------
  alpha Z        PSCENC =        59.29943541
  Ewald energy   TEWEN  =    169453.35608639
  -Hartree energ DENC   =   -173039.24089530
  -exchange      EXHF   =         0.00000000
  -V(xc)+E(xc)   XCENC  =      -233.59206506
  PAW double counting   =      3772.01224470    -3269.57291537
  entropy T*S    EENTRO =        -0.00129503
  eigenvalues    EBANDS =      -875.30028082
  atomic energy  EATOM  =      4121.42696706
  Solvation  Ediel_sol  =         0.00000000
  ---------------------------------------------------
  free energy    TOTEN  =       -11.61271803 eV

  energy without entropy =      -11.61142300  energy(sigma->0) =      -11.61207051


--------------------------------------------------------------------------------------------------------




--------------------------------------- Iteration      1(   3)  ---------------------------------------


     EDDAV:  cpu time   10.5603: real time   11.2457
       DOS:  cpu time    0.0024: real time    0.0024
    --------------------------------------------
      LOOP:  cpu time   10.5627: real time   11.2481

 eigenvalue-minimisations  :  5760
 total energy-change (2. order) :-0.1076346E+03  (-0.1069392E+03)
 number of electron      74.0000000 magnetization 
 augmentation part       74.0000000 magnetization 

 Free energy of the ion-electron system (eV)
  ---------------------------------------------------
  alpha Z        PSCENC =        59.29943541
  Ewald energy   TEWEN  =    169453.35608639
  -Hartree energ DENC   =   -173039.24089530
  -exchange      EXHF   =         0.00000000
  -V(xc)+E(xc)   XCENC  =      -233.59206506
  PAW double counting   =      3772.01224470    -3269.57291537
  entropy T*S    EENTRO =        -0.00191958
  eigenvalues    EBANDS =      -982.93425017
  atomic energy  EATOM  =      4121.42696706
  Solvation  Ediel_sol  =         0.00000000
  ---------------------------------------------------
  free energy    TOTEN  =      -119.24731193 eV

  energy without entropy =     -119.24539235  energy(sigma->0) =     -119.24635214


--------------------------------------------------------------------------------------------------------




--------------------------------------- Iteration      1(   4)  ---------------------------------------


     EDDAV:  cpu time   11.9277: real time   12.1802
       DOS:  cpu time    0.0014: real time    0.0013
    --------------------------------------------
      LOOP:  cpu time   11.9290: real time   12.1815

 eigenvalue-minimisations  :  6450
 total energy-change (2. order) :-0.2659890E+01  (-0.2653162E+01)
 number of electron      74.0000000 magnetization 
 augmentation part       74.0000000 magnetization 

 Free energy of the ion-electron system (eV)
  ---------------------------------------------------
  alpha Z        PSCENC =        59.29943541
  Ewald energy   TEWEN  =    169453.35608639
  -Hartree energ DENC   =   -173039.24089530
  -exchange      EXHF   =         0.00000000
  -V(xc)+E(xc)   XCENC  =      -233.59206506
  PAW double counting   =      3772.01224470    -3269.57291537
  entropy T*S    EENTRO =        -0.00199716
  eigenvalues    EBANDS =      -985.59406269
  atomic energy  EATOM  =      4121.42696706
  Solvation  Ediel_sol  =         0.00000000
  ---------------------------------------------------
  free energy    TOTEN  =      -121.90720202 eV

  energy without entropy =     -121.90520487  energy(sigma->0) =     -121.90620344


--------------------------------------------------------------------------------------------------------




--------------------------------------- Iteration      1(   5)  ---------------------------------------


     EDDAV:  cpu time   11.3648: real time   12.2314
       DOS:  cpu time    0.0014: real time    0.0023
    CHARGE:  cpu time    0.6233: real time    0.6358
    MIXING:  cpu time    0.0046: real time    0.0056
    --------------------------------------------
      LOOP:  cpu time   11.9951: real time   12.8751

 eigenvalue-minimisations  :  6240
 total energy-change (2. order) :-0.4078503E-01  (-0.4076343E-01)
 number of electron      74.0000010 magnetization 
 augmentation part        7.2199066 magnetization 

 Broyden mixing:
  rms(total) = 0.22009E+01    rms(broyden)= 0.22004E+01
  rms(prec ) = 0.22215E+01
  weight for this iteration     100.00

 Free energy of the ion-electron system (eV)
  ---------------------------------------------------
  alpha Z        PSCENC =        59.29943541
  Ewald energy   TEWEN  =    169453.35608639
  -Hartree energ DENC   =   -173039.24089530
  -exchange      EXHF   =         0.00000000
  -V(xc)+E(xc)   XCENC  =      -233.59206506
  PAW double counting   =      3772.01224470    -3269.57291537
  entropy T*S    EENTRO =        -0.00199964
  eigenvalues    EBANDS =      -985.63484523
  atomic energy  EATOM  =      4121.42696706
  Solvation  Ediel_sol  =         0.00000000
  ---------------------------------------------------
  free energy    TOTEN  =      -121.94798705 eV

  energy without entropy =     -121.94598741  energy(sigma->0) =     -121.94698723


--------------------------------------------------------------------------------------------------------




--------------------------------------- Iteration      1(   6)  ---------------------------------------


    POTLOK:  cpu time    0.0908: real time    0.0933
    SETDIJ:  cpu time    0.1417: real time    0.1466
     EDDAV:  cpu time   10.7548: real time   11.2434
       DOS:  cpu time    0.0013: real time    0.0013
    CHARGE:  cpu time    0.6107: real time    0.6201
    MIXING:  cpu time    0.0079: real time    0.0098
    --------------------------------------------
      LOOP:  cpu time   11.6062: real time   12.1145

 eigenvalue-minimisations  :  5840
 total energy-change (2. order) : 0.1485171E+02  (-0.6923353E+01)
 number of electron      74.0000011 magnetization 
 augmentation part        5.9609633 magnetization 

 Broyden mixing:
  rms(total) = 0.68815E+00    rms(broyden)= 0.68713E+00
  rms(prec ) = 0.68964E+00
  weight for this iteration     100.00

 eigenvalues of (default mixing * dielectric matrix)
  average eigenvalue GAMMA=   0.8576
  0.8576

 Free energy of the ion-electron system (eV)
  ---------------------------------------------------
  alpha Z        PSCENC =        59.29943541
  Ewald energy   TEWEN  =    169453.35608639
  -Hartree energ DENC   =   -173228.82121379
  -exchange      EXHF   =         0.00000000
  -V(xc)+E(xc)   XCENC  =      -221.59501075
  PAW double counting   =      4441.97092383    -3942.60957661
  entropy T*S    EENTRO =        -0.00079729
  eigenvalues    EBANDS =      -790.12309131
  atomic energy  EATOM  =      4121.42696706
  Solvation  Ediel_sol  =         0.00000000
  ---------------------------------------------------
  free energy    TOTEN  =      -107.09627706 eV

  energy without entropy =     -107.09547977  energy(sigma->0) =     -107.09587842


--------------------------------------------------------------------------------------------------------




--------------------------------------- Iteration      1(   7)  ---------------------------------------


    POTLOK:  cpu time    0.0933: real time    0.1002
    SETDIJ:  cpu time    0.1399: real time    0.1454
     EDDAV:  cpu time   11.5861: real time   12.7176
       DOS:  cpu time    0.0012: real time    0.0011
    CHARGE:  cpu time    0.6369: real time    0.6410
    MIXING:  cpu time    0.0086: real time    0.0086
    --------------------------------------------
      LOOP:  cpu time   12.4660: real time   13.6139

 eigenvalue-minimisations  :  5790
 total energy-change (2. order) :-0.1398561E-01  (-0.2009160E+00)
 number of electron      74.0000012 magnetization 
 augmentation part        5.9553444 magnetization 

 Broyden mixing:
  rms(total) = 0.45434E+00    rms(broyden)= 0.45431E+00
  rms(prec ) = 0.45611E+00
  weight for this iteration     100.00

 eigenvalues of (default mixing * dielectric matrix)
  average eigenvalue GAMMA=   1.6963
  1.0131  2.3795

 Free energy of the ion-electron system (eV)
  ---------------------------------------------------
  alpha Z        PSCENC =        59.29943541
  Ewald energy   TEWEN  =    169453.35608639
  -Hartree energ DENC   =   -173233.73632259
  -exchange      EXHF   =         0.00000000
  -V(xc)+E(xc)   XCENC  =      -221.15736706
  PAW double counting   =      4647.01505521    -4147.34369511
  entropy T*S    EENTRO =        -0.00078378
  eigenvalues    EBANDS =      -785.96963819
  atomic energy  EATOM  =      4121.42696706
  Solvation  Ediel_sol  =         0.00000000
  ---------------------------------------------------
  free energy    TOTEN  =      -107.11026267 eV

  energy without entropy =     -107.10947889  energy(sigma->0) =     -107.10987078


--------------------------------------------------------------------------------------------------------




--------------------------------------- Iteration      1(   8)  ---------------------------------------


    POTLOK:  cpu time    0.0885: real time    0.0889
    SETDIJ:  cpu time    0.1463: real time    0.1465
     EDDAV:  cpu time   11.2667: real time   11.6677
       DOS:  cpu time    0.0014: real time    0.0022
    CHARGE:  cpu time    0.5880: real time    0.6062
    MIXING:  cpu time    0.0045: real time    0.0045
    --------------------------------------------
      LOOP:  cpu time   12.0955: real time   12.5161

 eigenvalue-minimisations  :  6110
 total energy-change (2. order) : 0.7748443E-01  (-0.5946776E-01)
 number of electron      74.0000012 magnetization 
 augmentation part        6.0340439 magnetization 

 Broyden mixing:
  rms(total) = 0.11592E+00    rms(broyden)= 0.11587E+00
  rms(prec ) = 0.11731E+00
  weight for this iteration     100.00

 eigenvalues of (default mixing * dielectric matrix)
  average eigenvalue GAMMA=   1.3665
  2.4868  0.9616  0.6511

 Free energy of the ion-electron system (eV)
  ---------------------------------------------------
  alpha Z        PSCENC =        59.29943541
  Ewald energy   TEWEN  =    169453.35608639
  -Hartree energ DENC   =   -173243.96148556
  -exchange      EXHF   =         0.00000000
  -V(xc)+E(xc)   XCENC  =      -220.20769887
  PAW double counting   =      5015.76880102    -4515.75503805
  entropy T*S    EENTRO =        -0.00077407
  eigenvalues    EBANDS =      -776.95907158
  atomic energy  EATOM  =      4121.42696706
  Solvation  Ediel_sol  =         0.00000000
  ---------------------------------------------------
  free energy    TOTEN  =      -107.03277824 eV

  energy without entropy =     -107.03200417  energy(sigma->0) =     -107.03239120


--------------------------------------------------------------------------------------------------------




--------------------------------------- Iteration      1(   9)  ---------------------------------------


    POTLOK:  cpu time    0.0843: real time    0.0906
    SETDIJ:  cpu time    0.1302: real time    0.1608
     EDDAV:  cpu time   10.9479: real time   11.7517
       DOS:  cpu time    0.0012: real time    0.0012
    CHARGE:  cpu time    0.5890: real time    0.6532
    MIXING:  cpu time    0.0040: real time    0.0041
    --------------------------------------------
      LOOP:  cpu time   11.7565: real time   12.6616

 eigenvalue-minimisations  :  6170
 total energy-change (2. order) : 0.2781131E-01  (-0.6552563E-02)
 number of electron      74.0000012 magnetization 
 augmentation part        6.0034028 magnetization 

 Broyden mixing:
  rms(total) = 0.56397E-01    rms(broyden)= 0.56392E-01
  rms(prec ) = 0.57721E-01
  weight for this iteration     100.00

 eigenvalues of (default mixing * dielectric matrix)
  average eigenvalue GAMMA=   1.3689
  2.4955  0.9779  0.9779  1.0240

 Free energy of the ion-electron system (eV)
  ---------------------------------------------------
  alpha Z        PSCENC =        59.29943541
  Ewald energy   TEWEN  =    169453.35608639
  -Hartree energ DENC   =   -173250.56658945
  -exchange      EXHF   =         0.00000000
  -V(xc)+E(xc)   XCENC  =      -219.82742930
  PAW double counting   =      5028.82050574    -4528.88781718
  entropy T*S    EENTRO =        -0.00077464
  eigenvalues    EBANDS =      -770.62535096
  atomic energy  EATOM  =      4121.42696706
  Solvation  Ediel_sol  =         0.00000000
  ---------------------------------------------------
  free energy    TOTEN  =      -107.00496693 eV

  energy without entropy =     -107.00419229  energy(sigma->0) =     -107.00457961


--------------------------------------------------------------------------------------------------------




--------------------------------------- Iteration      1(  10)  ---------------------------------------


    POTLOK:  cpu time    0.0826: real time    0.1080
    SETDIJ:  cpu time    0.1383: real time    0.1476
     EDDAV:  cpu time   10.9474: real time   11.4861
       DOS:  cpu time    0.0012: real time    0.0012
    CHARGE:  cpu time    0.6294: real time    0.6313
    MIXING:  cpu time    0.0060: real time    0.0061
    --------------------------------------------
      LOOP:  cpu time   11.8050: real time   12.3802

 eigenvalue-minimisations  :  5930
 total energy-change (2. order) : 0.4412561E-02  (-0.4856311E-02)
 number of electron      74.0000012 magnetization 
 augmentation part        5.9815097 magnetization 

 Broyden mixing:
  rms(total) = 0.18292E-01    rms(broyden)= 0.18250E-01
  rms(prec ) = 0.20692E-01
  weight for this iteration     100.00

 eigenvalues of (default mixing * dielectric matrix)
  average eigenvalue GAMMA=   1.3717
  2.5612  1.8497  0.9790  0.7343  0.7343

 Free energy of the ion-electron system (eV)
  ---------------------------------------------------
  alpha Z        PSCENC =        59.29943541
  Ewald energy   TEWEN  =    169453.35608639
  -Hartree energ DENC   =   -173255.66888357
  -exchange      EXHF   =         0.00000000
  -V(xc)+E(xc)   XCENC  =      -219.62525285
  PAW double counting   =      5016.59194953    -4516.70382799
  entropy T*S    EENTRO =        -0.00077547
  eigenvalues    EBANDS =      -765.67625289
  atomic energy  EATOM  =      4121.42696706
  Solvation  Ediel_sol  =         0.00000000
  ---------------------------------------------------
  free energy    TOTEN  =      -107.00055437 eV

  energy without entropy =     -106.99977890  energy(sigma->0) =     -107.00016664


--------------------------------------------------------------------------------------------------------




--------------------------------------- Iteration      1(  11)  ---------------------------------------


    POTLOK:  cpu time    0.0931: real time    0.0933
    SETDIJ:  cpu time    0.1411: real time    0.1413
     EDDAV:  cpu time   12.2132: real time   12.6804
       DOS:  cpu time    0.0014: real time    0.0014
    CHARGE:  cpu time    0.5973: real time    0.6469
    MIXING:  cpu time    0.0068: real time    0.0068
    --------------------------------------------
      LOOP:  cpu time   13.0528: real time   13.5700

 eigenvalue-minimisations  :  6450
 total energy-change (2. order) : 0.1070392E-02  (-0.3151667E-03)
 number of electron      74.0000012 magnetization 
 augmentation part        5.9757638 magnetization 

 Broyden mixing:
  rms(total) = 0.21044E-01    rms(broyden)= 0.21040E-01
  rms(prec ) = 0.22937E-01
  weight for this iteration     100.00

 eigenvalues of (default mixing * dielectric matrix)
  average eigenvalue GAMMA=   1.4771
  2.5819  2.5507  0.9764  0.9764  0.8886  0.8886

 Free energy of the ion-electron system (eV)
  ---------------------------------------------------
  alpha Z        PSCENC =        59.29943541
  Ewald energy   TEWEN  =    169453.35608639
  -Hartree energ DENC   =   -173259.36216048
  -exchange      EXHF   =         0.00000000
  -V(xc)+E(xc)   XCENC  =      -219.52423156
  PAW double counting   =      5006.02154540    -4506.15693316
  entropy T*S    EENTRO =        -0.00077659
  eigenvalues    EBANDS =      -762.05941644
  atomic energy  EATOM  =      4121.42696706
  Solvation  Ediel_sol  =         0.00000000
  ---------------------------------------------------
  free energy    TOTEN  =      -106.99948398 eV

  energy without entropy =     -106.99870739  energy(sigma->0) =     -106.99909568


--------------------------------------------------------------------------------------------------------




--------------------------------------- Iteration      1(  12)  ---------------------------------------


    POTLOK:  cpu time    0.0894: real time    0.0908
    SETDIJ:  cpu time    0.1420: real time    0.1496
     EDDAV:  cpu time   12.0576: real time   12.6002
       DOS:  cpu time    0.0017: real time    0.0022
    CHARGE:  cpu time    0.4728: real time    0.4880
    MIXING:  cpu time    0.0044: real time    0.0044
    --------------------------------------------
      LOOP:  cpu time   12.7679: real time   13.3353

 eigenvalue-minimisations  :  6710
 total energy-change (2. order) : 0.2826177E-02  (-0.2673977E-03)
 number of electron      74.0000012 magnetization 
 augmentation part        5.9795801 magnetization 

 Broyden mixing:
  rms(total) = 0.96640E-02    rms(broyden)= 0.96617E-02
  rms(prec ) = 0.12666E-01
  weight for this iteration     100.00

 eigenvalues of (default mixing * dielectric matrix)
  average eigenvalue GAMMA=   1.3845
  2.8485  2.4595  0.9301  0.9301  0.9423  0.7906  0.7906

 Free energy of the ion-electron system (eV)
  ---------------------------------------------------
  alpha Z        PSCENC =        59.29943541
  Ewald energy   TEWEN  =    169453.35608639
  -Hartree energ DENC   =   -173262.07578252
  -exchange      EXHF   =         0.00000000
  -V(xc)+E(xc)   XCENC  =      -219.54523216
  PAW double counting   =      4995.86862998    -4496.00345172
  entropy T*S    EENTRO =        -0.00077814
  eigenvalues    EBANDS =      -759.32253210
  atomic energy  EATOM  =      4121.42696706
  Solvation  Ediel_sol  =         0.00000000
  ---------------------------------------------------
  free energy    TOTEN  =      -106.99665780 eV

  energy without entropy =     -106.99587966  energy(sigma->0) =     -106.99626873


--------------------------------------------------------------------------------------------------------




--------------------------------------- Iteration      1(  13)  ---------------------------------------


    POTLOK:  cpu time    0.0655: real time    0.0702
    SETDIJ:  cpu time    0.1076: real time    0.1186
     EDDAV:  cpu time    8.1122: real time    8.3371
       DOS:  cpu time    0.0012: real time    0.0012
    CHARGE:  cpu time    0.4234: real time    0.4238
    MIXING:  cpu time    0.0033: real time    0.0033
    --------------------------------------------
      LOOP:  cpu time    8.7132: real time    8.9541

 eigenvalue-minimisations  :  6110
 total energy-change (2. order) : 0.1572760E-02  (-0.2371524E-03)
 number of electron      74.0000012 magnetization 
 augmentation part        5.9829877 magnetization 

 Broyden mixing:
  rms(total) = 0.61603E-02    rms(broyden)= 0.61531E-02
  rms(prec ) = 0.98177E-02
  weight for this iteration     100.00

 eigenvalues of (default mixing * dielectric matrix)
  average eigenvalue GAMMA=   1.4431
  3.0191  2.4407  1.2537  1.2537  0.8749  0.8749  0.9554  0.8721

 Free energy of the ion-electron system (eV)
  ---------------------------------------------------
  alpha Z        PSCENC =        59.29943541
  Ewald energy   TEWEN  =    169453.35608639
  -Hartree energ DENC   =   -173264.38846867
  -exchange      EXHF   =         0.00000000
  -V(xc)+E(xc)   XCENC  =      -219.56288858
  PAW double counting   =      4994.26391359    -4494.39640162
  entropy T*S    EENTRO =        -0.00077990
  eigenvalues    EBANDS =      -756.99294872
  atomic energy  EATOM  =      4121.42696706
  Solvation  Ediel_sol  =         0.00000000
  ---------------------------------------------------
  free energy    TOTEN  =      -106.99508504 eV

  energy without entropy =     -106.99430514  energy(sigma->0) =     -106.99469509


--------------------------------------------------------------------------------------------------------




--------------------------------------- Iteration      1(  14)  ---------------------------------------


    POTLOK:  cpu time    0.0630: real time    0.0630
    SETDIJ:  cpu time    0.0948: real time    0.0954
     EDDAV:  cpu time    7.8756: real time    7.8826
       DOS:  cpu time    0.0012: real time    0.0012
    CHARGE:  cpu time    0.4214: real time    0.4218
    MIXING:  cpu time    0.0043: real time    0.0043
    --------------------------------------------
      LOOP:  cpu time    8.4604: real time    8.4684

 eigenvalue-minimisations  :  6430
 total energy-change (2. order) : 0.3225071E-02  (-0.2429660E-03)
 number of electron      74.0000012 magnetization 
 augmentation part        5.9858929 magnetization 

 Broyden mixing:
  rms(total) = 0.11248E-01    rms(broyden)= 0.11246E-01
  rms(prec ) = 0.12934E-01
  weight for this iteration     100.00

 eigenvalues of (default mixing * dielectric matrix)
  average eigenvalue GAMMA=   1.5128
  3.4354  2.3716  2.3716  0.9592  0.9592  0.9161  0.9161  0.8430  0.8430

 Free energy of the ion-electron system (eV)
  ---------------------------------------------------
  alpha Z        PSCENC =        59.29943541
  Ewald energy   TEWEN  =    169453.35608639
  -Hartree energ DENC   =   -173270.88226766
  -exchange      EXHF   =         0.00000000
  -V(xc)+E(xc)   XCENC  =      -219.59505498
  PAW double counting   =      4994.21500268    -4494.34405929
  entropy T*S    EENTRO =        -0.00078515
  eigenvalues    EBANDS =      -750.46718443
  atomic energy  EATOM  =      4121.42696706
  Solvation  Ediel_sol  =         0.00000000
  ---------------------------------------------------
  free energy    TOTEN  =      -106.99185997 eV

  energy without entropy =     -106.99107482  energy(sigma->0) =     -106.99146740


--------------------------------------------------------------------------------------------------------




--------------------------------------- Iteration      1(  15)  ---------------------------------------


    POTLOK:  cpu time    0.0626: real time    0.0626
    SETDIJ:  cpu time    0.0948: real time    0.0948
     EDDAV:  cpu time    8.5166: real time    8.5241
       DOS:  cpu time    0.0011: real time    0.0011
    CHARGE:  cpu time    0.4083: real time    0.4086
    MIXING:  cpu time    0.0052: real time    0.0052
    --------------------------------------------
      LOOP:  cpu time    9.0884: real time    9.0964

 eigenvalue-minimisations  :  7190
 total energy-change (2. order) : 0.2266347E-02  (-0.1386595E-03)
 number of electron      74.0000012 magnetization 
 augmentation part        5.9864106 magnetization 

 Broyden mixing:
  rms(total) = 0.11379E-01    rms(broyden)= 0.11378E-01
  rms(prec ) = 0.12550E-01
  weight for this iteration     100.00

 eigenvalues of (default mixing * dielectric matrix)
  average eigenvalue GAMMA=   1.6768
  4.8201  2.7420  2.2901  1.0631  1.0631  1.0868  0.9205  0.9205  0.9307  0.9307

 Free energy of the ion-electron system (eV)
  ---------------------------------------------------
  alpha Z        PSCENC =        59.29943541
  Ewald energy   TEWEN  =    169453.35608639
  -Hartree energ DENC   =   -173276.66894653
  -exchange      EXHF   =         0.00000000
  -V(xc)+E(xc)   XCENC  =      -219.59554845
  PAW double counting   =      4995.12706859    -4495.25785927
  entropy T*S    EENTRO =        -0.00079138
  eigenvalues    EBANDS =      -744.67600544
  atomic energy  EATOM  =      4121.42696706
  Solvation  Ediel_sol  =         0.00000000
  ---------------------------------------------------
  free energy    TOTEN  =      -106.98959362 eV

  energy without entropy =     -106.98880225  energy(sigma->0) =     -106.98919794


--------------------------------------------------------------------------------------------------------




--------------------------------------- Iteration      1(  16)  ---------------------------------------


    POTLOK:  cpu time    0.0627: real time    0.0627
    SETDIJ:  cpu time    0.0950: real time    0.0952
     EDDAV:  cpu time    7.4833: real time    7.4907
       DOS:  cpu time    0.0013: real time    0.0013
    CHARGE:  cpu time    0.4193: real time    0.4197
    MIXING:  cpu time    0.0042: real time    0.0042
    --------------------------------------------
      LOOP:  cpu time    8.0658: real time    8.0736

 eigenvalue-minimisations  :  6160
 total energy-change (2. order) : 0.2651820E-02  (-0.2774433E-03)
 number of electron      74.0000012 magnetization 
 augmentation part        5.9829076 magnetization 

 Broyden mixing:
  rms(total) = 0.48278E-02    rms(broyden)= 0.48220E-02
  rms(prec ) = 0.61679E-02
  weight for this iteration     100.00

 eigenvalues of (default mixing * dielectric matrix)
  average eigenvalue GAMMA=   1.7486
  5.9349  2.7487  2.0359  2.0359  0.9668  0.9668  0.9036  0.9036  0.9646  0.8870
  0.8870

 Free energy of the ion-electron system (eV)
  ---------------------------------------------------
  alpha Z        PSCENC =        59.29943541
  Ewald energy   TEWEN  =    169453.35608639
  -Hartree energ DENC   =   -173285.57330214
  -exchange      EXHF   =         0.00000000
  -V(xc)+E(xc)   XCENC  =      -219.55872399
  PAW double counting   =      4995.08718770    -4495.22562890
  entropy T*S    EENTRO =        -0.00080167
  eigenvalues    EBANDS =      -735.79816167
  atomic energy  EATOM  =      4121.42696706
  Solvation  Ediel_sol  =         0.00000000
  ---------------------------------------------------
  free energy    TOTEN  =      -106.98694180 eV

  energy without entropy =     -106.98614014  energy(sigma->0) =     -106.98654097


--------------------------------------------------------------------------------------------------------




--------------------------------------- Iteration      1(  17)  ---------------------------------------


    POTLOK:  cpu time    0.0623: real time    0.0623
    SETDIJ:  cpu time    0.0957: real time    0.0957
     EDDAV:  cpu time    7.7822: real time    7.7893
       DOS:  cpu time    0.0012: real time    0.0012
    CHARGE:  cpu time    0.4145: real time    0.4148
    MIXING:  cpu time    0.0063: real time    0.0063
    --------------------------------------------
      LOOP:  cpu time    8.3621: real time    8.3696

 eigenvalue-minimisations  :  6450
 total energy-change (2. order) : 0.1017138E-02  (-0.1346205E-03)
 number of electron      74.0000012 magnetization 
 augmentation part        5.9814753 magnetization 

 Broyden mixing:
  rms(total) = 0.55638E-02    rms(broyden)= 0.55623E-02
  rms(prec ) = 0.64512E-02
  weight for this iteration     100.00

 eigenvalues of (default mixing * dielectric matrix)
  average eigenvalue GAMMA=   1.9731
  8.6591  2.8596  2.4312  2.4312  1.0244  1.0244  0.8936  0.8936  0.9472  0.9258
  0.9258  0.6614

 Free energy of the ion-electron system (eV)
  ---------------------------------------------------
  alpha Z        PSCENC =        59.29943541
  Ewald energy   TEWEN  =    169453.35608639
  -Hartree energ DENC   =   -173289.49605951
  -exchange      EXHF   =         0.00000000
  -V(xc)+E(xc)   XCENC  =      -219.55235465
  PAW double counting   =      4994.70234533    -4494.83956647
  entropy T*S    EENTRO =        -0.00080333
  eigenvalues    EBANDS =      -731.88197490
  atomic energy  EATOM  =      4121.42696706
  Solvation  Ediel_sol  =         0.00000000
  ---------------------------------------------------
  free energy    TOTEN  =      -106.98592467 eV

  energy without entropy =     -106.98512134  energy(sigma->0) =     -106.98552300


--------------------------------------------------------------------------------------------------------




--------------------------------------- Iteration      1(  18)  ---------------------------------------


    POTLOK:  cpu time    0.0623: real time    0.0623
    SETDIJ:  cpu time    0.0951: real time    0.0951
     EDDAV:  cpu time    9.7643: real time    9.7729
       DOS:  cpu time    0.0012: real time    0.0015
    CHARGE:  cpu time    0.4143: real time    0.4146
    MIXING:  cpu time    0.0041: real time    0.0041
    --------------------------------------------
      LOOP:  cpu time   10.3413: real time   10.3506

 eigenvalue-minimisations  :  8610
 total energy-change (2. order) : 0.1151026E-02  (-0.8827486E-04)
 number of electron      74.0000012 magnetization 
 augmentation part        5.9820127 magnetization 

 Broyden mixing:
  rms(total) = 0.27386E-02    rms(broyden)= 0.27369E-02
  rms(prec ) = 0.37378E-02
  weight for this iteration     100.00

 eigenvalues of (default mixing * dielectric matrix)
  average eigenvalue GAMMA=   2.1862
 11.0529  3.6889  2.7430  2.3996  1.0741  1.0741  0.9281  0.9281  1.0062  1.0062
  0.8731  0.8731  0.7727

 Free energy of the ion-electron system (eV)
  ---------------------------------------------------
  alpha Z        PSCENC =        59.29943541
  Ewald energy   TEWEN  =    169453.35608639
  -Hartree energ DENC   =   -173295.11951240
  -exchange      EXHF   =         0.00000000
  -V(xc)+E(xc)   XCENC  =      -219.55988113
  PAW double counting   =      4994.48581662    -4494.61554297
  entropy T*S    EENTRO =        -0.00080341
  eigenvalues    EBANDS =      -726.25733921
  atomic energy  EATOM  =      4121.42696706
  Solvation  Ediel_sol  =         0.00000000
  ---------------------------------------------------
  free energy    TOTEN  =      -106.98477364 eV

  energy without entropy =     -106.98397023  energy(sigma->0) =     -106.98437194


--------------------------------------------------------------------------------------------------------




--------------------------------------- Iteration      1(  19)  ---------------------------------------


    POTLOK:  cpu time    0.0648: real time    0.0662
    SETDIJ:  cpu time    0.0940: real time    0.0946
     EDDAV:  cpu time    7.6405: real time    7.6477
       DOS:  cpu time    0.0012: real time    0.0015
    CHARGE:  cpu time    0.4077: real time    0.4080
    MIXING:  cpu time    0.0065: real time    0.0065
    --------------------------------------------
      LOOP:  cpu time    8.2148: real time    8.2246

 eigenvalue-minimisations  :  6290
 total energy-change (2. order) : 0.5186857E-04  (-0.8674439E-04)
 number of electron      74.0000012 magnetization 
 augmentation part        5.9828031 magnetization 

 Broyden mixing:
  rms(total) = 0.30748E-02    rms(broyden)= 0.30728E-02
  rms(prec ) = 0.37022E-02
  weight for this iteration     100.00

 eigenvalues of (default mixing * dielectric matrix)
  average eigenvalue GAMMA=   2.1446
 11.7796  3.9148  2.7364  2.3909  1.0723  1.0723  0.8954  0.8954  1.0051  1.0051
  0.9724  0.9724  0.8382  0.4735

 Free energy of the ion-electron system (eV)
  ---------------------------------------------------
  alpha Z        PSCENC =        59.29943541
  Ewald energy   TEWEN  =    169453.35608639
  -Hartree energ DENC   =   -173298.98376408
  -exchange      EXHF   =         0.00000000
  -V(xc)+E(xc)   XCENC  =      -219.56228489
  PAW double counting   =      4994.36570534    -4494.49092122
  entropy T*S    EENTRO =        -0.00080082
  eigenvalues    EBANDS =      -722.39514495
  atomic energy  EATOM  =      4121.42696706
  Solvation  Ediel_sol  =         0.00000000
  ---------------------------------------------------
  free energy    TOTEN  =      -106.98472177 eV

  energy without entropy =     -106.98392095  energy(sigma->0) =     -106.98432136


--------------------------------------------------------------------------------------------------------




--------------------------------------- Iteration      1(  20)  ---------------------------------------


    POTLOK:  cpu time    0.0623: real time    0.0627
    SETDIJ:  cpu time    0.0950: real time    0.0954
     EDDAV:  cpu time    7.4448: real time    7.4518
       DOS:  cpu time    0.0012: real time    0.0012
    CHARGE:  cpu time    0.4156: real time    0.4159
    MIXING:  cpu time    0.0087: real time    0.0087
    --------------------------------------------
      LOOP:  cpu time    8.0275: real time    8.0356

 eigenvalue-minimisations  :  6080
 total energy-change (2. order) :-0.3544160E-03  (-0.5753049E-04)
 number of electron      74.0000012 magnetization 
 augmentation part        5.9815926 magnetization 

 Broyden mixing:
  rms(total) = 0.25560E-02    rms(broyden)= 0.25549E-02
  rms(prec ) = 0.31488E-02
  weight for this iteration     100.00

 eigenvalues of (default mixing * dielectric matrix)
  average eigenvalue GAMMA=   2.4905
 15.8077  5.4123  2.8196  2.3737  1.5894  1.0906  1.0906  1.0070  1.0070  0.9136
  0.9136  0.9285  0.9285  0.7377  0.7377

 Free energy of the ion-electron system (eV)
  ---------------------------------------------------
  alpha Z        PSCENC =        59.29943541
  Ewald energy   TEWEN  =    169453.35608639
  -Hartree energ DENC   =   -173300.80259441
  -exchange      EXHF   =         0.00000000
  -V(xc)+E(xc)   XCENC  =      -219.55048501
  PAW double counting   =      4994.79914523    -4494.93100547
  entropy T*S    EENTRO =        -0.00079939
  eigenvalues    EBANDS =      -720.58182600
  atomic energy  EATOM  =      4121.42696706
  Solvation  Ediel_sol  =         0.00000000
  ---------------------------------------------------
  free energy    TOTEN  =      -106.98507619 eV

  energy without entropy =     -106.98427679  energy(sigma->0) =     -106.98467649


--------------------------------------------------------------------------------------------------------




--------------------------------------- Iteration      1(  21)  ---------------------------------------


    POTLOK:  cpu time    0.0633: real time    0.0633
    SETDIJ:  cpu time    0.0956: real time    0.0957
     EDDAV:  cpu time    9.4059: real time    9.4144
       DOS:  cpu time    0.0012: real time    0.0012
    CHARGE:  cpu time    0.4150: real time    0.4153
    MIXING:  cpu time    0.0033: real time    0.0033
    --------------------------------------------
      LOOP:  cpu time    9.9842: real time    9.9931

 eigenvalue-minimisations  :  8210
 total energy-change (2. order) :-0.5485812E-04  (-0.1060076E-04)
 number of electron      74.0000012 magnetization 
 augmentation part        5.9819912 magnetization 

 Broyden mixing:
  rms(total) = 0.21939E-02    rms(broyden)= 0.21936E-02
  rms(prec ) = 0.27528E-02
  weight for this iteration     100.00

 eigenvalues of (default mixing * dielectric matrix)
  average eigenvalue GAMMA=   2.7255
 19.8182  5.8139  2.8079  2.4367  1.7592  1.7592  1.1097  1.1097  0.9394  0.9394
  0.9707  0.9707  0.8616  0.8616  0.7253  0.7253

 Free energy of the ion-electron system (eV)
  ---------------------------------------------------
  alpha Z        PSCENC =        59.29943541
  Ewald energy   TEWEN  =    169453.35608639
  -Hartree energ DENC   =   -173302.98975605
  -exchange      EXHF   =         0.00000000
  -V(xc)+E(xc)   XCENC  =      -219.55574505
  PAW double counting   =      4994.36666974    -4494.49741659
  entropy T*S    EENTRO =        -0.00079753
  eigenvalues    EBANDS =      -718.39057441
  atomic energy  EATOM  =      4121.42696706
  Solvation  Ediel_sol  =         0.00000000
  ---------------------------------------------------
  free energy    TOTEN  =      -106.98513105 eV

  energy without entropy =     -106.98433351  energy(sigma->0) =     -106.98473228


--------------------------------------------------------------------------------------------------------




--------------------------------------- Iteration      1(  22)  ---------------------------------------


    POTLOK:  cpu time    0.0624: real time    0.0625
    SETDIJ:  cpu time    0.0947: real time    0.0947
     EDDAV:  cpu time    7.9818: real time    7.9893
       DOS:  cpu time    0.0011: real time    0.0011
    CHARGE:  cpu time    0.4134: real time    0.4140
    MIXING:  cpu time    0.0044: real time    0.0044
    --------------------------------------------
      LOOP:  cpu time    8.5579: real time    8.5661

 eigenvalue-minimisations  :  6650
 total energy-change (2. order) :-0.1022245E-03  (-0.1075679E-04)
 number of electron      74.0000012 magnetization 
 augmentation part        5.9822994 magnetization 

 Broyden mixing:
  rms(total) = 0.12004E-02    rms(broyden)= 0.11999E-02
  rms(prec ) = 0.18958E-02
  weight for this iteration     100.00

 eigenvalues of (default mixing * dielectric matrix)
  average eigenvalue GAMMA=   2.6903
 20.7106  5.8211  2.8427  2.5518  1.9141  1.8778  1.0885  1.0885  0.9624  0.9624
  0.9820  0.9820  0.8944  0.8944  0.7267  0.7174  0.7174

 Free energy of the ion-electron system (eV)
  ---------------------------------------------------
  alpha Z        PSCENC =        59.29943541
  Ewald energy   TEWEN  =    169453.35608639
  -Hartree energ DENC   =   -173305.21362105
  -exchange      EXHF   =         0.00000000
  -V(xc)+E(xc)   XCENC  =      -219.55693093
  PAW double counting   =      4994.10280645    -4494.23486009
  entropy T*S    EENTRO =        -0.00079671
  eigenvalues    EBANDS =      -716.16431979
  atomic energy  EATOM  =      4121.42696706
  Solvation  Ediel_sol  =         0.00000000
  ---------------------------------------------------
  free energy    TOTEN  =      -106.98523327 eV

  energy without entropy =     -106.98443656  energy(sigma->0) =     -106.98483491


--------------------------------------------------------------------------------------------------------




--------------------------------------- Iteration      1(  23)  ---------------------------------------


    POTLOK:  cpu time    0.0621: real time    0.0621
    SETDIJ:  cpu time    0.0943: real time    0.0943
     EDDAV:  cpu time    7.4680: real time    7.4750
       DOS:  cpu time    0.0011: real time    0.0011
    CHARGE:  cpu time    0.4152: real time    0.4155
    MIXING:  cpu time    0.0102: real time    0.0102
    --------------------------------------------
      LOOP:  cpu time    8.0509: real time    8.0583

 eigenvalue-minimisations  :  6120
 total energy-change (2. order) :-0.1784457E-03  (-0.1473593E-04)
 number of electron      74.0000012 magnetization 
 augmentation part        5.9815996 magnetization 

 Broyden mixing:
  rms(total) = 0.25561E-02    rms(broyden)= 0.25555E-02
  rms(prec ) = 0.28927E-02
  weight for this iteration     100.00

 eigenvalues of (default mixing * dielectric matrix)
  average eigenvalue GAMMA=   2.6893
 20.9898  6.0501  3.0260  2.4483  2.2454  2.2454  1.0870  1.0870  1.2085  1.2085
  0.9393  0.9393  0.9578  0.8497  0.8497  0.7524  0.7618  0.7618

 Free energy of the ion-electron system (eV)
  ---------------------------------------------------
  alpha Z        PSCENC =        59.29943541
  Ewald energy   TEWEN  =    169453.35608639
  -Hartree energ DENC   =   -173306.20343827
[...]
     44       5.4960      0.00000
     45       5.8024      0.00000
     46       5.8600      0.00000
     47       6.1379      0.00000
     48       6.2728      0.00000
     49       6.5180      0.00000
     50       6.8269      0.00000

 k-point    45 :       0.4615    0.3846    0.0000
  band No.  band energies     occupation 
      1     -20.1913      2.00000
      2     -20.1043      2.00000
      3     -20.0580      2.00000
      4     -20.0268      2.00000
      5     -19.9950      2.00000
      6     -19.9565      2.00000
      7     -19.9168      2.00000
      8     -19.8747      2.00000
      9     -19.8273      2.00000
     10      -8.4511      2.00000
     11      -8.3249      2.00000
     12      -8.1625      2.00000
     13      -8.0027      2.00000
     14      -7.9578      2.00000
     15      -7.8899      2.00000
     16      -7.8244      2.00000
     17      -7.7635      2.00000
     18      -7.6882      2.00000
     19      -6.5459      2.00000
     20      -6.3804      2.00000
     21      -6.2263      2.00000
     22      -6.1621      2.00000
     23      -6.0891      2.00000
     24      -6.0550      2.00000
     25      -5.9492      2.00000
     26      -5.8489      2.00000
     27      -5.7428      2.00000
     28      -5.6669      2.00000
     29      -5.5849      2.00000
     30      -5.5031      2.00000
     31      -5.4779      2.00000
     32      -5.4046      2.00000
     33      -5.2722      2.00000
     34      -5.1248      2.00000
     35      -5.0146      2.00000
     36      -4.9316      2.00000
     37       0.7582      0.00000
     38       0.7949      0.00000
     39       2.5750      0.00000
     40       2.6285      0.00000
     41       4.5226      0.00000
     42       4.8450      0.00000
     43       5.2999      0.00000
     44       5.4906      0.00000
     45       5.7073      0.00000
     46       5.7611      0.00000
     47       5.9397      0.00000
     48       6.0709      0.00000
     49       6.2930      0.00000
     50       6.4029      0.00000

 k-point    46 :      -0.4615    0.3846   -0.0000
  band No.  band energies     occupation 
      1     -20.2986      2.00000
      2     -20.2166      2.00000
      3     -20.1661      2.00000
      4     -20.1222      2.00000
      5     -20.0683      2.00000
      6     -20.0079      2.00000
      7     -19.9498      2.00000
      8     -19.8955      2.00000
      9     -19.8381      2.00000
     10      -8.5092      2.00000
     11      -8.3816      2.00000
     12      -8.2160      2.00000
     13      -8.0865      2.00000
     14      -8.0177      2.00000
     15      -7.9570      2.00000
     16      -7.8770      2.00000
     17      -7.7839      2.00000
     18      -7.7358      2.00000
     19      -6.6614      2.00000
     20      -6.4362      2.00000
     21      -6.1334      2.00000
     22      -5.8413      2.00000
     23      -5.7074      2.00000
     24      -5.6448      2.00000
     25      -5.5907      2.00000
     26      -5.5402      2.00000
     27      -5.5357      2.00000
     28      -5.4603      2.00000
     29      -5.3543      2.00000
     30      -5.3219      2.00000
     31      -5.1969      2.00000
     32      -5.1404      2.00000
     33      -5.0308      2.00000
     34      -4.9812      2.00000
     35      -4.9143      2.00000
     36      -4.8327      2.00000
     37       0.0392      0.00000
     38       0.0826      0.00000
     39       2.8569      0.00000
     40       2.8826      0.00000
     41       3.9610      0.00000
     42       4.3395      0.00000
     43       4.8213      0.00000
     44       5.2663      0.00000
     45       5.3037      0.00000
     46       5.5440      0.00000
     47       5.5780      0.00000
     48       5.7486      0.00000
     49       5.7653      0.00000
     50       5.9587      0.00000

 k-point    47 :      -0.3846    0.3846   -0.0000
  band No.  band energies     occupation 
      1     -20.4177      2.00000
      2     -20.3362      2.00000
      3     -20.2808      2.00000
      4     -20.2188      2.00000
      5     -20.1440      2.00000
      6     -20.0628      2.00000
      7     -19.9856      2.00000
      8     -19.9180      2.00000
      9     -19.8514      2.00000
     10      -8.3715      2.00000
     11      -8.2440      2.00000
     12      -8.0809      2.00000
     13      -8.0320      2.00000
     14      -7.9177      2.00000
     15      -7.8626      2.00000
     16      -7.7628      2.00000
     17      -7.6607      2.00000
     18      -7.6013      2.00000
     19      -6.9119      2.00000
     20      -6.6262      2.00000
     21      -6.2550      2.00000
     22      -5.8804      2.00000
     23      -5.5805      2.00000
     24      -5.4437      2.00000
     25      -5.4288      2.00000
     26      -5.3579      2.00000
     27      -5.3514      2.00000
     28      -5.2925      2.00000
     29      -5.2085      2.00000
     30      -5.1087      2.00000
     31      -5.0936      2.00000
     32      -5.0019      2.00000
     33      -4.8999      2.00000
     34      -4.8536      2.00000
     35      -4.8125      2.00000
     36      -4.7327      2.00000
     37      -0.5273      0.00000
     38      -0.4804      0.00000
     39       3.2753      0.00000
     40       3.2962      0.00000
     41       3.7381      0.00000
     42       4.1366      0.00000
     43       4.5958      0.00000
     44       4.9957      0.00000
     45       5.2428      0.00000
     46       5.3493      0.00000
     47       5.3933      0.00000
     48       5.5610      0.00000
     49       5.6261      0.00000
     50       5.8584      0.00000

 k-point    48 :       0.4615    0.4615   -0.0000
  band No.  band energies     occupation 
      1     -20.2079      2.00000
      2     -20.1209      2.00000
      3     -20.0753      2.00000
      4     -20.0445      2.00000
      5     -20.0146      2.00000
      6     -19.9770      2.00000
      7     -19.9374      2.00000
      8     -19.8948      2.00000
      9     -19.8467      2.00000
     10      -8.6652      2.00000
     11      -8.5363      2.00000
     12      -8.3682      2.00000
     13      -8.1865      2.00000
     14      -8.1411      2.00000
     15      -8.0527      2.00000
     16      -7.9968      2.00000
     17      -7.9083      2.00000
     18      -7.8656      2.00000
     19      -6.2728      2.00000
     20      -6.1666      2.00000
     21      -6.0542      2.00000
     22      -5.9802      2.00000
     23      -5.8257      2.00000
     24      -5.7147      2.00000
     25      -5.6668      2.00000
     26      -5.6125      2.00000
     27      -5.5722      2.00000
     28      -5.5077      2.00000
     29      -5.3961      2.00000
     30      -5.3692      2.00000
     31      -5.2384      2.00000
     32      -5.1824      2.00000
     33      -5.0588      2.00000
     34      -5.0332      2.00000
     35      -4.9346      2.00000
     36      -4.8883      2.00000
     37       0.7549      0.00000
     38       0.7804      0.00000
     39       2.0275      0.00000
     40       2.0903      0.00000
     41       3.9883      0.00000
     42       4.3690      0.00000
     43       4.8713      0.00000
     44       5.1579      0.00000
     45       5.3335      0.00000
     46       5.4269      0.00000
     47       5.5848      0.00000
     48       5.7498      0.00000
     49       5.7828      0.00000
     50       5.9363      0.00000

 k-point    49 :      -0.4615    0.4615    0.0000
  band No.  band energies     occupation 
      1     -20.2469      2.00000
      2     -20.1627      2.00000
      3     -20.1147      2.00000
      4     -20.0807      2.00000
      5     -20.0414      2.00000
      6     -19.9947      2.00000
      7     -19.9481      2.00000
      8     -19.9010      2.00000
      9     -19.8491      2.00000
     10      -8.6852      2.00000
     11      -8.5559      2.00000
     12      -8.3867      2.00000
     13      -8.2114      2.00000
     14      -8.1657      2.00000
     15      -8.0790      2.00000
     16      -8.0145      2.00000
     17      -7.9230      2.00000
     18      -7.8787      2.00000
     19      -6.4116      2.00000
     20      -6.2423      2.00000
     21      -6.0224      2.00000
     22      -5.8373      2.00000
     23      -5.7797      2.00000
     24      -5.6044      2.00000
     25      -5.5330      2.00000
     26      -5.5136      2.00000
     27      -5.4278      2.00000
     28      -5.3623      2.00000
     29      -5.2783      2.00000
     30      -5.1968      2.00000
     31      -5.1782      2.00000
     32      -5.0710      2.00000
     33      -4.9688      2.00000
     34      -4.9327      2.00000
     35      -4.8813      2.00000
     36      -4.8013      2.00000
     37       0.4156      0.00000
     38       0.4491      0.00000
     39       2.2142      0.00000
     40       2.2617      0.00000
     41       3.7782      0.00000
     42       4.1766      0.00000
     43       4.6851      0.00000
     44       5.0336      0.00000
     45       5.1635      0.00000
     46       5.2465      0.00000
     47       5.4469      0.00000
     48       5.4801      0.00000
     49       5.6523      0.00000
     50       5.7246      0.00000


--------------------------------------------------------------------------------------------------------


 soft charge-density along one line, spin component           1
         0         1         2         3         4         5         6         7         8         9
 total charge-density along one line
 
 pseudopotential strength for first ion, spin component:           1
 13.267 -16.227  -0.000   0.000   0.000   0.000  -0.000  -0.000
-16.227  19.876   0.000  -0.000  -0.000  -0.000   0.000   0.000
 -0.000   0.000  -9.738   0.000   0.000  11.946  -0.000  -0.000
  0.000  -0.000   0.000  -9.739  -0.000  -0.000  11.948   0.000
  0.000  -0.000   0.000  -0.000  -9.738  -0.000   0.000  11.946
  0.000  -0.000  11.946  -0.000  -0.000 -14.556   0.000   0.000
 -0.000   0.000  -0.000  11.948   0.000   0.000 -14.558  -0.000
 -0.000   0.000  -0.000   0.000  11.946   0.000  -0.000 -14.556
 total augmentation occupancy for first ion, spin component:           1
  2.704   0.411   0.000  -0.001  -0.000   0.000  -0.001  -0.000
  0.411   0.080   0.000  -0.001  -0.000   0.000  -0.000  -0.000
  0.000   0.000   2.184  -0.000   0.000   0.269  -0.000  -0.000
 -0.001  -0.001  -0.000   2.183   0.000  -0.000   0.270   0.000
 -0.000  -0.000   0.000   0.000   2.184  -0.000   0.000   0.269
  0.000   0.000   0.269  -0.000  -0.000   0.036  -0.000  -0.000
 -0.001  -0.000  -0.000   0.270   0.000  -0.000   0.036   0.000
 -0.000  -0.000  -0.000   0.000   0.269  -0.000   0.000   0.036


------------------------ aborting loop because EDIFF is reached ----------------------------------------


    CHARGE:  cpu time    0.4160: real time    0.4169
    FORLOC:  cpu time    0.0109: real time    0.0109
    FORNL :  cpu time    2.2150: real time    2.2160
    STRESS:  cpu time    4.8397: real time    4.8425
    FORCOR:  cpu time    0.0739: real time    0.0740
    FORHAR:  cpu time    0.0257: real time    0.0257
    MIXING:  cpu time    0.0060: real time    0.0060
    OFIELD:  cpu time    0.0001: real time    0.0001

  FORCE on cell =-STRESS in cart. coord.  units (eV):
  Direction    XX          YY          ZZ          XY          YZ          ZX
  --------------------------------------------------------------------------------------
  Alpha Z    59.29944    59.29944    59.29944
  Ewald  171594.64047171567.71751************    23.31795 -3782.59959  2183.88175
  Hartree172454.69068172426.81427************    24.14092 -3769.00315  2176.03404
  E(xc)    -331.71185  -331.71931  -331.68415     0.00635    -0.00767     0.00443
  Local  ************************344360.86613   -47.50438  7551.59566 -4359.91241
  n-local  -155.93293  -165.63373  -161.25917    -2.88202     1.43298     2.40375
  augment    61.45896    61.44786    61.31004     0.00927     0.00364    -0.00208
  Kinetic  1260.33877  1302.73048  1281.90296    12.44616     0.67538     0.89967
  Fock        0.00000     0.00000     0.00000     0.00000     0.00000     0.00000
  -------------------------------------------------------------------------------------
  Total       2.72281     2.64808    -0.08495     0.06470     0.14007    -0.08087
  in kB       8.06487     7.84353    -0.25162     0.19164     0.41490    -0.23954
  external pressure =        5.22 kB  Pullay stress =        0.00 kB


 VOLUME and BASIS-vectors are now :
 -----------------------------------------------------------------------------
  energy-cutoff  :      450.00
  volume of cell :      540.92
      direct lattice vectors                 reciprocal lattice vectors
     2.582945031 -1.491599475  0.032681260     0.387192928  0.000010777 -0.002508275
    -0.000294730  2.982688461 -0.032681217     0.193605797  0.335314616  0.002508270
     0.454958667 -0.788008040 70.226874913    -0.000090089  0.000156039  0.014241897

  length of vectors
     2.982874803  2.982867513 70.232769446     0.387201052  0.387201998  0.014243037


 FORCES acting on ions
    electron-ion (+dipol)            ewald-force                    non-local-force                 convergence-correction
 -----------------------------------------------------------------------------------------------
   -.145E+02 0.251E+02 0.229E+04   0.145E+02 -.251E+02 -.229E+04   0.110E-02 -.190E-02 -.510E-01   -.152E-04 0.262E-04 0.230E-02
   0.738E-02 -.128E-01 -.504E+00   -.901E-02 0.156E-01 0.611E+00   0.617E-03 -.107E-02 -.796E-01   0.132E-04 -.229E-04 -.226E-02
   0.145E+02 -.251E+02 -.229E+04   -.145E+02 0.251E+02 0.229E+04   0.604E-03 -.105E-02 -.169E+00   0.165E-04 -.286E-04 -.258E-02
   -.193E+02 0.334E+02 0.305E+04   0.193E+02 -.334E+02 -.305E+04   -.137E-01 0.237E-01 0.183E+01   -.140E-04 0.243E-04 0.226E-02
   -.966E+01 0.167E+02 0.153E+04   0.966E+01 -.167E+02 -.153E+04   0.209E-02 -.362E-02 -.969E-01   -.540E-05 0.935E-05 0.843E-03
   -.483E+01 0.836E+01 0.762E+03   0.482E+01 -.836E+01 -.762E+03   0.163E-02 -.283E-02 -.809E-01   0.381E-05 -.659E-05 -.557E-03
   0.483E+01 -.837E+01 -.763E+03   -.483E+01 0.837E+01 0.763E+03   0.104E-02 -.180E-02 -.992E-01   0.219E-04 -.379E-04 -.337E-02
   0.965E+01 -.167E+02 -.153E+04   -.965E+01 0.167E+02 0.153E+04   0.895E-03 -.155E-02 -.102E+00   0.189E-04 -.327E-04 -.294E-02
   0.193E+02 -.334E+02 -.304E+04   -.193E+02 0.334E+02 0.305E+04   0.747E-02 -.129E-01 -.170E+01   0.692E-05 -.120E-04 -.116E-02
   -.711E+01 0.123E+02 0.113E+04   0.711E+01 -.123E+02 -.113E+04   0.142E-02 -.246E-02 -.912E+00   -.201E-05 0.348E-05 0.316E-03
   -.243E+01 0.420E+01 0.381E+03   0.242E+01 -.420E+01 -.381E+03   0.500E-02 -.866E-02 -.766E-01   0.812E-06 -.141E-05 -.128E-03
   0.241E+01 -.417E+01 -.382E+03   -.241E+01 0.417E+01 0.382E+03   0.226E-02 -.392E-02 -.780E-01   0.602E-05 -.104E-04 -.952E-03
   0.713E+01 -.124E+02 -.113E+04   -.713E+01 0.123E+02 0.113E+04   -.714E-02 0.124E-01 0.689E+00   -.697E-06 0.121E-05 0.110E-03
   -.564E+01 0.977E+01 0.890E+03   0.564E+01 -.976E+01 -.890E+03   0.256E-02 -.443E-02 -.108E+00   -.533E-05 0.924E-05 0.846E-03
   -.403E+01 0.698E+01 0.636E+03   0.403E+01 -.697E+01 -.636E+03   0.255E-02 -.442E-02 -.737E-01   -.251E-05 0.435E-05 0.397E-03
   -.803E+00 0.139E+01 0.127E+03   0.802E+00 -.139E+01 -.127E+03   0.965E-03 -.167E-02 -.716E-01   0.332E-05 -.575E-05 -.526E-03
   0.806E+00 -.140E+01 -.128E+03   -.807E+00 0.140E+01 0.128E+03   0.712E-03 -.123E-02 -.757E-01   0.620E-05 -.107E-04 -.979E-03
   0.402E+01 -.697E+01 -.636E+03   -.402E+01 0.697E+01 0.636E+03   0.585E-03 -.101E-02 -.770E-01   0.517E-05 -.895E-05 -.817E-03
   0.564E+01 -.977E+01 -.890E+03   -.564E+01 0.977E+01 0.890E+03   -.207E-02 0.358E-02 -.105E-01   0.439E-05 -.760E-05 -.692E-03
 -----------------------------------------------------------------------------------------------
   -.860E-02 0.150E-01 0.135E+01   -.488E-13 -.888E-14 0.341E-12   0.863E-02 -.150E-01 -.134E+01   0.619E-04 -.107E-03 -.990E-02
 
 
 POSITION                                       TOTAL-FORCE (eV/Angst)
 -----------------------------------------------------------------------------------
      1.63687      0.14705     34.85310         0.002006     -0.003475      0.010537
      1.59732      0.21555     42.20552        -0.001006      0.001742      0.024860
      1.55977      0.28058     49.57202        -0.002070      0.003585      0.006272
      0.79176      1.61081     32.38689        -0.000854      0.001479      0.166513
      2.48344     -1.31926     37.32448         0.001687     -0.002922      0.011729
      0.74841      1.68590     39.73100         0.000092     -0.000160      0.023692
      2.44590     -1.25423     44.68298        -0.000714      0.001236      0.013279
      0.71117      1.75040     47.09489        -0.000436      0.000755      0.014162
      2.40717     -1.18715     52.04423        -0.002199      0.003809      0.040006
      1.66142      0.10452     31.16103         0.000187     -0.000324     -0.300258
      1.61557      0.18394     38.53333         0.002486     -0.004306     -0.011682
      1.57838      0.24835     45.89457         0.000991     -0.001717     -0.015953
      1.53863      0.31720     53.30986        -0.001649      0.002857     -0.007190
      2.50577     -1.35793     33.65576         0.000781     -0.001353      0.058490
      0.76836      1.65135     36.06125         0.001285     -0.002226     -0.000967
      2.46443     -1.28633     41.00623         0.000289     -0.000500     -0.001074
      0.72996      1.71786     43.41712         0.000154     -0.000268     -0.010505
      2.42706     -1.22161     48.37173         0.000107     -0.000185     -0.018608
      0.69197      1.78365     50.78247        -0.001139      0.001974     -0.003302
 -----------------------------------------------------------------------------------
    total drift:                                0.000095     -0.000035     -0.000265


--------------------------------------------------------------------------------------------------------



  FREE ENERGIE OF THE ION-ELECTRON SYSTEM (eV)
  ---------------------------------------------------
  free  energy   TOTEN  =      -106.98586338 eV

  energy  without entropy=     -106.98507082  energy(sigma->0) =     -106.98546710
 


--------------------------------------------------------------------------------------------------------


    POTLOK:  cpu time    0.1602: real time    0.1603


--------------------------------------------------------------------------------------------------------


 stress matrix after NEB project (eV)
      2.72281      0.06470     -0.08087
      0.06470      2.64808      0.14007
     -0.08087      0.14007     -0.08495
  FORCES: max atom, RMS     0.300258    0.081366
  FORCE total and by dimension    0.354665    0.300258
  Stress total and by dimension    3.807090    2.722809
     LOOP+:  cpu time  415.1129: real time  422.3601
    4ORBIT:  cpu time    0.0000: real time    0.0000

 total amount of memory used by VASP MPI-rank0   118884. kBytes
=======================================================================

   base      :      30000. kBytes
   nonl-proj :      30910. kBytes
   fftplans  :      22143. kBytes
   grid      :      12271. kBytes
   one-center:         40. kBytes
   wavefun   :      23520. kBytes
 
  
  
 General timing and accounting informations for this job:
 ========================================================
  
                  Total CPU time used (sec):      421.307
                            User time (sec):      417.598
                          System time (sec):        3.710
                         Elapsed time (sec):      428.547
  
                   Maximum memory used (kb):      274020.
                   Average memory used (kb):           0.
  
                          Minor page faults:       394247
                          Major page faults:            0
                 Voluntary context switches:          581
