       N       E                     dE             d eps       ncg     rms          rms(c)
DAV:   1     0.495933864226E+03    0.49593E+03   -0.44463E+04  2704   0.135E+03
DAV:   2    -0.105202149879E+03   -0.60114E+03   -0.57168E+03  3448   0.261E+02
DAV:   3    -0.157893455711E+03   -0.52691E+02   -0.52420E+02  3136   0.840E+01
DAV:   4    -0.158525009312E+03   -0.63155E+00   -0.63047E+00  3144   0.100E+01
DAV:   5    -0.158534394468E+03   -0.93852E-02   -0.93830E-02  3192   0.120E+00    0.236E+01
DAV:   6    -0.141733860363E+03    0.16801E+02   -0.92573E+01  3192   0.333E+01    0.790E+00
DAV:   7    -0.141730444184E+03    0.34162E-02   -0.29969E+00  2992   0.629E+00    0.493E+00
DAV:   8    -0.141582208623E+03    0.14824E+00   -0.67406E-01  3112   0.445E+00    0.123E+00
DAV:   9    -0.141548737487E+03    0.33471E-01   -0.14239E-01  3104   0.187E+00    0.635E-01
DAV:  10    -0.141543214266E+03    0.55232E-02   -0.72113E-02  3072   0.998E-01    0.275E-01
DAV:  11    -0.141537091407E+03    0.61229E-02   -0.64974E-03  3336   0.649E-01    0.204E-01
DAV:  12    -0.141533309074E+03    0.37823E-02   -0.42984E-03  3424   0.439E-01    0.151E-01
DAV:  13    -0.141525654475E+03    0.76546E-02   -0.48548E-03  4200   0.762E-01    0.815E-02
DAV:  14    -0.141520087563E+03    0.55669E-02   -0.84321E-03  3760   0.830E-01    0.114E-01
DAV:  15    -0.141511132150E+03    0.89554E-02   -0.10721E-02  4232   0.160E+00    0.915E-02
DAV:  16    -0.141509962513E+03    0.11696E-02   -0.10784E-02  3040   0.643E-01    0.743E-02
DAV:  17    -0.141508450012E+03    0.15125E-02   -0.34559E-03  3272   0.524E-01    0.783E-02
DAV:  18    -0.141506814565E+03    0.16354E-02   -0.22923E-03  4320   0.767E-01    0.681E-02
DAV:  19    -0.141506246554E+03    0.56801E-03   -0.33912E-03  3888   0.627E-01    0.476E-02
DAV:  20    -0.141506330858E+03   -0.84304E-04   -0.32106E-03  3320   0.417E-01    0.666E-02
DAV:  21    -0.141506320985E+03    0.98727E-05   -0.13432E-03  3000   0.162E-01    0.514E-02
DAV:  22    -0.141506278259E+03    0.42726E-04   -0.26887E-04  2984   0.840E-02    0.233E-02
DAV:  23    -0.141506268222E+03    0.10037E-04   -0.71759E-05  2912   0.578E-02    0.173E-02
DAV:  24    -0.141506262323E+03    0.58995E-05   -0.22402E-05  2104   0.318E-02
   1 F= -.14150626E+03 E0= -.14150406E+03  d E =-.141506E+03
       N       E                     dE             d eps       ncg     rms          rms(c)
DAV:   1    -0.141502021304E+03    0.42469E-02   -0.19020E+00  2688   0.527E+00    0.293E-01
DAV:   2    -0.141506634490E+03   -0.46132E-02   -0.72229E-02  2968   0.854E-01    0.223E-01
DAV:   3    -0.141505411467E+03    0.12230E-02   -0.14715E-03  3136   0.212E-01    0.145E-01
DAV:   4    -0.141504286899E+03    0.11246E-02   -0.29990E-03  3104   0.303E-01    0.423E-02
DAV:   5    -0.141504212053E+03    0.74847E-04   -0.11203E-03  3040   0.149E-01    0.299E-02
DAV:   6    -0.141504070911E+03    0.14114E-03   -0.12402E-04  3320   0.772E-02    0.233E-02
DAV:   7    -0.141503990489E+03    0.80422E-04   -0.66469E-05  3112   0.624E-02    0.154E-02
DAV:   8    -0.141503807631E+03    0.18286E-03   -0.18997E-04  3784   0.150E-01    0.117E-02
DAV:   9    -0.141503771990E+03    0.35642E-04   -0.14253E-04  3120   0.640E-02    0.973E-03
DAV:  10    -0.141503722861E+03    0.49128E-04   -0.78405E-05  3104   0.869E-02    0.248E-02
DAV:  11    -0.141503658745E+03    0.64117E-04   -0.75653E-05  3400   0.107E-01    0.121E-02
DAV:  12    -0.141503624332E+03    0.34412E-04   -0.10124E-04  3488   0.106E-01    0.660E-03
DAV:  13    -0.141503600249E+03    0.24083E-04   -0.59584E-05  2904   0.925E-02    0.458E-03
DAV:  14    -0.141503578864E+03    0.21385E-04   -0.40875E-05  2736   0.118E-01    0.489E-03
DAV:  15    -0.141503580138E+03   -0.12743E-05   -0.72993E-05  2560   0.570E-02
   2 F= -.14150358E+03 E0= -.14150128E+03  d E =0.268218E-02
       N       E                     dE             d eps       ncg     rms          rms(c)
DAV:   1    -0.141510034260E+03   -0.64554E-02   -0.59045E-01  2704   0.296E+00    0.165E-01
DAV:   2    -0.141511346715E+03   -0.13125E-02   -0.21719E-02  3000   0.481E-01    0.121E-01
DAV:   3    -0.141510952453E+03    0.39426E-03   -0.43777E-04  3144   0.120E-01    0.781E-02
DAV:   4    -0.141510600681E+03    0.35177E-03   -0.85909E-04  3096   0.175E-01    0.209E-02
DAV:   5    -0.141510578147E+03    0.22534E-04   -0.36237E-04  3024   0.863E-02    0.176E-02
DAV:   6    -0.141510536185E+03    0.41962E-04   -0.32778E-05  2784   0.427E-02    0.122E-02
DAV:   7    -0.141510508899E+03    0.27286E-04   -0.19798E-05  2344   0.388E-02    0.793E-03
DAV:   8    -0.141510456246E+03    0.52653E-04   -0.50621E-05  3112   0.843E-02    0.586E-03
DAV:   9    -0.141510444325E+03    0.11921E-04   -0.47637E-05  2808   0.414E-02    0.507E-03
DAV:  10    -0.141510426513E+03    0.17812E-04   -0.76057E-06  1936   0.538E-02    0.770E-03
DAV:  11    -0.141510414643E+03    0.11869E-04   -0.22658E-05  2320   0.499E-02    0.500E-03
DAV:  12    -0.141510404044E+03    0.10599E-04   -0.18646E-05  2280   0.609E-02    0.459E-03
DAV:  13    -0.141510398608E+03    0.54359E-05   -0.27908E-05  2336   0.485E-02
   3 F= -.14151040E+03 E0= -.14150815E+03  d E =-.413629E-02
       N       E                     dE             d eps       ncg     rms          rms(c)
DAV:   1    -0.141511025052E+03   -0.62101E-03   -0.10175E-01  2728   0.129E+00    0.523E-02
DAV:   2    -0.141511225195E+03   -0.20014E-03   -0.25380E-03  3024   0.177E-01    0.313E-02
DAV:   3    -0.141511201847E+03    0.23348E-04   -0.47974E-05  3000   0.341E-02    0.201E-02
DAV:   4    -0.141511186364E+03    0.15483E-04   -0.21865E-05  2456   0.254E-02    0.951E-03
DAV:   5    -0.141511177273E+03    0.90915E-05   -0.10895E-05  1864   0.248E-02    0.409E-03
DAV:   6    -0.141511169643E+03    0.76300E-05   -0.71144E-06  1752   0.245E-02
   4 F= -.14151117E+03 E0= -.14150891E+03  d E =-.771034E-03
       N       E                     dE             d eps       ncg     rms          rms(c)
DAV:   1    -0.141511264602E+03   -0.87330E-04   -0.26959E-01  2696   0.208E+00    0.846E-02
DAV:   2    -0.141511772183E+03   -0.50758E-03   -0.65806E-03  3024   0.283E-01    0.492E-02
DAV:   3    -0.141511703925E+03    0.68259E-04   -0.11083E-04  3096   0.500E-02    0.323E-02
DAV:   4    -0.141511647795E+03    0.56129E-04   -0.55197E-05  2960   0.465E-02    0.150E-02
DAV:   5    -0.141511611584E+03    0.36211E-04   -0.38169E-05  2824   0.455E-02    0.699E-03
DAV:   6    -0.141511578447E+03    0.33137E-04   -0.17327E-05  2192   0.441E-02    0.577E-03
DAV:   7    -0.141511549136E+03    0.29311E-04   -0.11083E-05  2000   0.429E-02    0.533E-03
DAV:   8    -0.141511467572E+03    0.81564E-04   -0.69092E-05  3488   0.143E-01    0.699E-03
DAV:   9    -0.141511436806E+03    0.30766E-04   -0.86017E-05  3248   0.967E-02    0.709E-03
DAV:  10    -0.141511425047E+03    0.11759E-04   -0.50024E-05  2712   0.718E-02    0.488E-03
DAV:  11    -0.141511419288E+03    0.57592E-05   -0.22653E-05  2184   0.602E-02
   5 F= -.14151142E+03 E0= -.14150915E+03  d E =-.102068E-02
       N       E                     dE             d eps       ncg     rms          rms(c)
DAV:   1    -0.141511752160E+03   -0.32711E-03   -0.56990E-02  2816   0.932E-01    0.387E-02
DAV:   2    -0.141511861734E+03   -0.10957E-03   -0.13313E-03  3008   0.127E-01    0.213E-02
DAV:   3    -0.141511852718E+03    0.90156E-05   -0.21222E-05  2296   0.255E-02    0.141E-02
DAV:   4    -0.141511848698E+03    0.40200E-05   -0.19591E-05  2056   0.240E-02    0.578E-03
DAV:   5    -0.141511848448E+03    0.25043E-06   -0.64062E-06  1656   0.134E-02    0.355E-03
DAV:   6    -0.141511847868E+03    0.57957E-06   -0.24084E-06  1680   0.116E-02
   6 F= -.14151185E+03 E0= -.14150957E+03  d E =-.428581E-03
       N       E                     dE             d eps       ncg     rms          rms(c)
DAV:   1    -0.141511723147E+03    0.12530E-03   -0.51302E-01  2712   0.280E+00    0.114E-01
DAV:   2    -0.141512705828E+03   -0.98268E-03   -0.11902E-02  2976   0.377E-01    0.619E-02
DAV:   3    -0.141512626161E+03    0.79667E-04   -0.18014E-04  3120   0.747E-02    0.415E-02
DAV:   4    -0.141512588364E+03    0.37797E-04   -0.14066E-04  3064   0.689E-02    0.178E-02
DAV:   5    -0.141512582622E+03    0.57421E-05   -0.50494E-05  2760   0.391E-02    0.896E-03
DAV:   6    -0.141512576687E+03    0.59353E-05   -0.14225E-05  1784   0.294E-02
   7 F= -.14151258E+03 E0= -.14151031E+03  d E =-.115740E-02
       N       E                     dE             d eps       ncg     rms          rms(c)
DAV:   1    -0.141512542045E+03    0.40577E-04   -0.55442E-02  2728   0.921E-01    0.382E-02
DAV:   2    -0.141512644199E+03   -0.10215E-03   -0.12842E-03  3000   0.125E-01    0.199E-02
DAV:   3    -0.141512632410E+03    0.11789E-04   -0.19297E-05  2160   0.299E-02    0.133E-02
DAV:   4    -0.141512622557E+03    0.98528E-05   -0.17310E-05  2000   0.346E-02    0.563E-03
DAV:   5    -0.141512617904E+03    0.46536E-05   -0.10936E-05  1712   0.267E-02    0.394E-03
DAV:   6    -0.141512612757E+03    0.51464E-05   -0.39282E-06  1728   0.235E-02
   8 F= -.14151261E+03 E0= -.14151035E+03  d E =-.119347E-02
       N       E                     dE             d eps       ncg     rms          rms(c)
DAV:   1    -0.141513197011E+03   -0.57911E-03   -0.33672E-02  2808   0.788E-01    0.258E-02
DAV:   2    -0.141513255407E+03   -0.58395E-04   -0.91001E-04  3080   0.125E-01    0.216E-02
DAV:   3    -0.141513242476E+03    0.12931E-04   -0.21473E-05  2256   0.240E-02    0.161E-02
DAV:   4    -0.141513222693E+03    0.19783E-04   -0.42829E-05  2728   0.370E-02    0.772E-03
DAV:   5    -0.141513214439E+03    0.82537E-05   -0.92769E-06  1760   0.214E-02    0.822E-03
DAV:   6    -0.141513198867E+03    0.15572E-04   -0.11637E-05  2016   0.323E-02    0.483E-03
DAV:   7    -0.141513188854E+03    0.10013E-04   -0.14615E-05  2000   0.285E-02    0.531E-03
DAV:   8    -0.141513178685E+03    0.10170E-04   -0.61094E-06  1744   0.317E-02    0.387E-03
DAV:   9    -0.141513158000E+03    0.20685E-04   -0.38748E-05  2872   0.910E-02    0.120E-02
DAV:  10    -0.141513152315E+03    0.56854E-05   -0.31732E-05  2448   0.380E-02
   9 F= -.14151315E+03 E0= -.14151090E+03  d E =-.539558E-03
       N       E                     dE             d eps       ncg     rms          rms(c)
DAV:   1    -0.141513321902E+03   -0.16390E-03   -0.31476E-02  2816   0.765E-01    0.256E-02
DAV:   2    -0.141513390913E+03   -0.69011E-04   -0.94892E-04  3072   0.126E-01    0.236E-02
DAV:   3    -0.141513379558E+03    0.11355E-04   -0.20182E-05  2080   0.247E-02    0.174E-02
DAV:   4    -0.141513366764E+03    0.12794E-04   -0.55026E-05  2832   0.382E-02    0.771E-03
DAV:   5    -0.141513363391E+03    0.33730E-05   -0.84789E-06  1712   0.172E-02    0.777E-03
DAV:   6    -0.141513355433E+03    0.79583E-05   -0.56772E-06  1768   0.224E-02
  10 F= -.14151336E+03 E0= -.14151111E+03  d E =-.742676E-03
       N       E                     dE             d eps       ncg     rms          rms(c)
DAV:   1    -0.141513618737E+03   -0.25535E-03   -0.12513E-01  2736   0.153E+00    0.491E-02
DAV:   2    -0.141513885241E+03   -0.26650E-03   -0.29933E-03  3000   0.219E-01    0.319E-02
DAV:   3    -0.141513863014E+03    0.22227E-04   -0.36705E-05  2696   0.342E-02    0.206E-02
DAV:   4    -0.141513849054E+03    0.13960E-04   -0.69165E-05  2960   0.453E-02    0.767E-03
DAV:   5    -0.141513849268E+03   -0.21439E-06   -0.16948E-05  1992   0.195E-02    0.589E-03
DAV:   6    -0.141513848378E+03    0.89024E-06   -0.58026E-06  1664   0.120E-02
  11 F= -.14151385E+03 E0= -.14151162E+03  d E =-.492945E-03
       N       E                     dE             d eps       ncg     rms          rms(c)
DAV:   1    -0.141513755811E+03    0.93457E-04   -0.15498E-01  2712   0.170E+00    0.539E-02
DAV:   2    -0.141514077773E+03   -0.32196E-03   -0.36124E-03  3000   0.241E-01    0.346E-02
DAV:   3    -0.141514050464E+03    0.27309E-04   -0.39119E-05  2776   0.368E-02    0.227E-02
DAV:   4    -0.141514031710E+03    0.18755E-04   -0.95861E-05  3024   0.556E-02    0.845E-03
DAV:   5    -0.141514032385E+03   -0.67518E-06   -0.26449E-05  2368   0.229E-02    0.674E-03
DAV:   6    -0.141514031285E+03    0.10997E-05   -0.81009E-06  1640   0.127E-02
  12 F= -.14151403E+03 E0= -.14151182E+03  d E =-.675852E-03
       N       E                     dE             d eps       ncg     rms          rms(c)
DAV:   1    -0.141514231562E+03   -0.19918E-03   -0.86146E-02  2760   0.125E+00    0.353E-02
DAV:   2    -0.141514386797E+03   -0.15523E-03   -0.17282E-03  3024   0.165E-01    0.214E-02
DAV:   3    -0.141514374256E+03    0.12541E-04   -0.14781E-05  2048   0.233E-02    0.150E-02
DAV:   4    -0.141514361835E+03    0.12421E-04   -0.52788E-05  2800   0.465E-02    0.580E-03
DAV:   5    -0.141514362241E+03   -0.40573E-06   -0.18466E-05  2024   0.186E-02    0.650E-03
DAV:   6    -0.141514361943E+03    0.29818E-06   -0.15163E-06  1640   0.509E-03
  13 F= -.14151436E+03 E0= -.14151216E+03  d E =-.330658E-03
       N       E                     dE             d eps       ncg     rms          rms(c)
DAV:   1    -0.141513793268E+03    0.56897E-03   -0.57991E-01  2736   0.324E+00    0.920E-02
DAV:   2    -0.141514847793E+03   -0.10545E-02   -0.11835E-02  3024   0.434E-01    0.563E-02
DAV:   3    -0.141514762474E+03    0.85319E-04   -0.11313E-04  3112   0.618E-02    0.399E-02
DAV:   4    -0.141514679103E+03    0.83371E-04   -0.33440E-04  3168   0.116E-01    0.165E-02
DAV:   5    -0.141514680473E+03   -0.13696E-05   -0.12866E-04  2800   0.487E-02    0.189E-02
DAV:   6    -0.141514677065E+03    0.34075E-05   -0.87172E-06  1672   0.127E-02
  14 F= -.14151468E+03 E0= -.14151250E+03  d E =-.645780E-03
       N       E                     dE             d eps       ncg     rms          rms(c)
DAV:   1    -0.141514916100E+03   -0.23563E-03   -0.47394E-02  2752   0.970E-01    0.306E-02
DAV:   2    -0.141514998169E+03   -0.82070E-04   -0.10241E-03  3024   0.135E-01    0.194E-02
DAV:   3    -0.141514985782E+03    0.12387E-04   -0.16334E-05  1872   0.269E-02    0.133E-02
DAV:   4    -0.141514967603E+03    0.18179E-04   -0.20640E-05  2240   0.392E-02    0.550E-03
DAV:   5    -0.141514959675E+03    0.79282E-05   -0.14663E-05  1704   0.283E-02    0.510E-03
DAV:   6    -0.141514952629E+03    0.70460E-05   -0.66302E-06  1720   0.222E-02
  15 F= -.14151495E+03 E0= -.14151278E+03  d E =-.275563E-03
       N       E                     dE             d eps       ncg     rms          rms(c)
DAV:   1    -0.141514863668E+03    0.96007E-04   -0.42537E-01  2704   0.290E+00    0.867E-02
DAV:   2    -0.141515660387E+03   -0.79672E-03   -0.89539E-03  3024   0.385E-01    0.509E-02
DAV:   3    -0.141515603589E+03    0.56798E-04   -0.11451E-04  3200   0.569E-02    0.342E-02
DAV:   4    -0.141515563749E+03    0.39840E-04   -0.10317E-04  2976   0.651E-02    0.136E-02
DAV:   5    -0.141515558275E+03    0.54739E-05   -0.52762E-05  2808   0.398E-02    0.901E-03
DAV:   6    -0.141515553214E+03    0.50615E-05   -0.12569E-05  1704   0.204E-02
  16 F= -.14151555E+03 E0= -.14151340E+03  d E =-.876148E-03
       N       E                     dE             d eps       ncg     rms          rms(c)
DAV:   1    -0.141512245271E+03    0.33130E-02   -0.17050E+00  2688   0.581E+00    0.177E-01
DAV:   2    -0.141515463407E+03   -0.32181E-02   -0.36275E-02  3032   0.776E-01    0.102E-01
DAV:   3    -0.141515242432E+03    0.22097E-03   -0.48631E-04  3192   0.117E-01    0.691E-02
DAV:   4    -0.141515099063E+03    0.14337E-03   -0.45224E-04  3112   0.130E-01    0.275E-02
DAV:   5    -0.141515090347E+03    0.87162E-05   -0.20512E-04  3016   0.744E-02    0.199E-02
DAV:   6    -0.141515079388E+03    0.10958E-04   -0.59944E-05  2784   0.389E-02    0.856E-03
DAV:   7    -0.141515071188E+03    0.82005E-05   -0.65997E-06  1728   0.250E-02
  17 F= -.14151507E+03 E0= -.14151295E+03  d E =-.394123E-03
       N       E                     dE             d eps       ncg     rms          rms(c)
DAV:   1    -0.141514321017E+03    0.75837E-03   -0.77486E-01  2688   0.392E+00    0.120E-01
DAV:   2    -0.141515779022E+03   -0.14580E-02   -0.16614E-02  3024   0.526E-01    0.683E-02
DAV:   3    -0.141515683487E+03    0.95536E-04   -0.23358E-04  3192   0.772E-02    0.471E-02
DAV:   4    -0.141515625087E+03    0.58399E-04   -0.24698E-04  3112   0.849E-02    0.191E-02
DAV:   5    -0.141515623317E+03    0.17706E-05   -0.75428E-05  2896   0.402E-02    0.149E-02
DAV:   6    -0.141515619986E+03    0.33306E-05   -0.37675E-05  2512   0.307E-02
  18 F= -.14151562E+03 E0= -.14151348E+03  d E =-.942921E-03
       N       E                     dE             d eps       ncg     rms          rms(c)
DAV:   1    -0.141515812442E+03   -0.18913E-03   -0.20159E-02  2752   0.618E-01    0.208E-02
DAV:   2    -0.141515849666E+03   -0.37224E-04   -0.46703E-04  2984   0.862E-02    0.120E-02
DAV:   3    -0.141515846452E+03    0.32133E-05   -0.93538E-06  1752   0.155E-02    0.844E-03
DAV:   4    -0.141515843938E+03    0.25147E-05   -0.60966E-06  1736   0.137E-02    0.364E-03
DAV:   5    -0.141515843195E+03    0.74245E-06   -0.34613E-06  1688   0.113E-02    0.226E-03
DAV:   6    -0.141515843006E+03    0.18927E-06   -0.16997E-06  1672   0.645E-03
  19 F= -.14151584E+03 E0= -.14151370E+03  d E =-.223020E-03
       N       E                     dE             d eps       ncg     rms          rms(c)
DAV:   1    -0.141515994588E+03   -0.15139E-03   -0.18146E-01  2688   0.186E+00    0.633E-02
DAV:   2    -0.141516356442E+03   -0.36185E-03   -0.42292E-03  2968   0.255E-01    0.338E-02
DAV:   3    -0.141516332092E+03    0.24350E-04   -0.69200E-05  3168   0.414E-02    0.233E-02
DAV:   4    -0.141516316556E+03    0.15537E-04   -0.47808E-05  2848   0.333E-02    0.969E-03
DAV:   5    -0.141516313885E+03    0.26710E-05   -0.13677E-05  2208   0.246E-02    0.533E-03
DAV:   6    -0.141516312739E+03    0.11455E-05   -0.10088E-05  1792   0.230E-02
  20 F= -.14151631E+03 E0= -.14151418E+03  d E =-.692753E-03
       N       E                     dE             d eps       ncg     rms          rms(c)
DAV:   1    -0.141515033061E+03    0.12808E-02   -0.72614E-01  2688   0.372E+00    0.127E-01
DAV:   2    -0.141516475488E+03   -0.14424E-02   -0.16933E-02  2968   0.512E-01    0.675E-02
DAV:   3    -0.141516375562E+03    0.99926E-04   -0.28838E-04  3248   0.853E-02    0.464E-02
DAV:   4    -0.141516308822E+03    0.66741E-04   -0.17566E-04  3064   0.659E-02    0.195E-02
DAV:   5    -0.141516292712E+03    0.16110E-04   -0.57445E-05  2992   0.542E-02    0.108E-02
DAV:   6    -0.141516283812E+03    0.89002E-05   -0.40612E-05  2600   0.506E-02
  21 F= -.14151628E+03 E0= -.14151418E+03  d E =-.663826E-03
       N       E                     dE             d eps       ncg     rms          rms(c)
DAV:   1    -0.141516132273E+03    0.16044E-03   -0.18114E-01  2688   0.186E+00    0.624E-02
DAV:   2    -0.141516486446E+03   -0.35417E-03   -0.41686E-03  2968   0.253E-01    0.346E-02
DAV:   3    -0.141516463657E+03    0.22789E-04   -0.67384E-05  3144   0.388E-02    0.241E-02
DAV:   4    -0.141516449040E+03    0.14618E-04   -0.52383E-05  2856   0.359E-02    0.100E-02
DAV:   5    -0.141516447082E+03    0.19581E-05   -0.14706E-05  2152   0.197E-02    0.585E-03
DAV:   6    -0.141516446323E+03    0.75842E-06   -0.82806E-06  1704   0.154E-02
  22 F= -.14151645E+03 E0= -.14151433E+03  d E =-.826337E-03
       N       E                     dE             d eps       ncg     rms          rms(c)
DAV:   1    -0.141516718996E+03   -0.27191E-03   -0.30654E-02  2720   0.786E-01    0.243E-02
DAV:   2    -0.141516777407E+03   -0.58411E-04   -0.67524E-04  3000   0.109E-01    0.134E-02
DAV:   3    -0.141516772956E+03    0.44510E-05   -0.11482E-05  1768   0.190E-02    0.937E-03
DAV:   4    -0.141516767567E+03    0.53886E-05   -0.95410E-06  1760   0.235E-02    0.388E-03
DAV:   5    -0.141516765883E+03    0.16843E-05   -0.74677E-06  1712   0.177E-02    0.479E-03
DAV:   6    -0.141516765310E+03    0.57346E-06   -0.35540E-06  1672   0.904E-03
  23 F= -.14151677E+03 E0= -.14151465E+03  d E =-.318987E-03
       N       E                     dE             d eps       ncg     rms          rms(c)
DAV:   1    -0.141516936172E+03   -0.17029E-03   -0.27619E-01  2696   0.236E+00    0.744E-02
DAV:   2    -0.141517471240E+03   -0.53507E-03   -0.61271E-03  3000   0.328E-01    0.400E-02
DAV:   3    -0.141517432885E+03    0.38355E-04   -0.11076E-04  3200   0.585E-02    0.283E-02
DAV:   4    -0.141517390789E+03    0.42096E-04   -0.82648E-05  3088   0.668E-02    0.135E-02
DAV:   5    -0.141517372907E+03    0.17882E-04   -0.45138E-05  2848   0.539E-02    0.135E-02
DAV:   6    -0.141517359570E+03    0.13337E-04   -0.41390E-05  2576   0.429E-02    0.677E-03
DAV:   7    -0.141517339409E+03    0.20161E-04   -0.40294E-06  1824   0.462E-02    0.517E-03
DAV:   8    -0.141517316348E+03    0.23061E-04   -0.11792E-05  2096   0.594E-02    0.450E-03
DAV:   9    -0.141517284629E+03    0.31719E-04   -0.33620E-05  2864   0.108E-01    0.380E-03
DAV:  10    -0.141517264586E+03    0.20044E-04   -0.59694E-05  3200   0.134E-01    0.542E-03
DAV:  11    -0.141517270153E+03   -0.55673E-05   -0.88595E-05  2608   0.418E-02
  24 F= -.14151727E+03 E0= -.14151517E+03  d E =-.823830E-03
       N       E                     dE             d eps       ncg     rms          rms(c)
DAV:   1    -0.141517268527E+03   -0.39411E-05   -0.25273E-02  2832   0.714E-01    0.216E-02
DAV:   2    -0.141517316525E+03   -0.47999E-04   -0.54912E-04  3016   0.975E-02    0.126E-02
DAV:   3    -0.141517312944E+03    0.35816E-05   -0.71411E-06  1688   0.148E-02    0.886E-03
DAV:   4    -0.141517308679E+03    0.42645E-05   -0.10180E-05  1760   0.230E-02    0.332E-03
DAV:   5    -0.141517308138E+03    0.54174E-06   -0.63959E-06  1680   0.131E-02    0.443E-03
DAV:   6    -0.141517307503E+03    0.63438E-06   -0.16827E-06  1648   0.672E-03
  25 F= -.14151731E+03 E0= -.14151521E+03  d E =-.861180E-03
       N       E                     dE             d eps       ncg     rms          rms(c)
DAV:   1    -0.141517485762E+03   -0.17762E-03   -0.20026E-01  2760   0.199E+00    0.590E-02
DAV:   2    -0.141517900664E+03   -0.41490E-03   -0.45202E-03  2976   0.277E-01    0.340E-02
DAV:   3    -0.141517874561E+03    0.26103E-04   -0.43152E-05  2664   0.349E-02    0.234E-02
DAV:   4    -0.141517857218E+03    0.17343E-04   -0.10884E-04  3008   0.604E-02    0.935E-03
DAV:   5    -0.141517858664E+03   -0.14461E-05   -0.30860E-05  2408   0.242E-02    0.991E-03
DAV:   6    -0.141517857558E+03    0.11057E-05   -0.45586E-06  1608   0.967E-03
  26 F= -.14151786E+03 E0= -.14151577E+03  d E =-.550055E-03
       N       E                     dE             d eps       ncg     rms          rms(c)
DAV:   1    -0.141515518575E+03    0.23401E-02   -0.16252E+00  2752   0.567E+00    0.166E-01
DAV:   2    -0.141518857215E+03   -0.33386E-02   -0.36443E-02  2984   0.788E-01    0.985E-02
DAV:   3    -0.141518629192E+03    0.22802E-03   -0.34248E-04  3216   0.103E-01    0.684E-02
DAV:   4    -0.141518440807E+03    0.18838E-03   -0.81677E-04  3112   0.177E-01    0.258E-02
DAV:   5    -0.141518446527E+03   -0.57198E-05   -0.29660E-04  2936   0.767E-02    0.276E-02
DAV:   6    -0.141518435580E+03    0.10947E-04   -0.40470E-05  2776   0.273E-02    0.158E-02
DAV:   7    -0.141518405725E+03    0.29855E-04   -0.29724E-05  2608   0.416E-02    0.730E-03
DAV:   8    -0.141518385282E+03    0.20443E-04   -0.25793E-05  2288   0.452E-02    0.135E-02
DAV:   9    -0.141518359446E+03    0.25836E-04   -0.31489E-05  2472   0.638E-02    0.140E-02
DAV:  10    -0.141518322829E+03    0.36617E-04   -0.41046E-05  2800   0.942E-02    0.131E-02
DAV:  11    -0.141518288543E+03    0.34286E-04   -0.83183E-05  3328   0.111E-01    0.167E-02
DAV:  12    -0.141518272376E+03    0.16167E-04   -0.89668E-05  2952   0.947E-02    0.260E-02
DAV:  13    -0.141518255710E+03    0.16666E-04   -0.45369E-05  2768   0.878E-02    0.198E-02
DAV:  14    -0.141518254955E+03    0.75551E-06   -0.99869E-05  2568   0.401E-02
  27 F= -.14151825E+03 E0= -.14151618E+03  d E =-.947452E-03
       N       E                     dE             d eps       ncg     rms          rms(c)
DAV:   1    -0.141518120778E+03    0.13493E-03   -0.11479E-01  2816   0.151E+00    0.455E-02
DAV:   2    -0.141518357578E+03   -0.23680E-03   -0.25845E-03  2992   0.209E-01    0.255E-02
DAV:   3    -0.141518341456E+03    0.16123E-04   -0.22699E-05  2256   0.275E-02    0.174E-02
DAV:   4    -0.141518328438E+03    0.13017E-04   -0.57500E-05  2784   0.499E-02    0.639E-03
DAV:   5    -0.141518329125E+03   -0.68615E-06   -0.23445E-05  2176   0.214E-02    0.722E-03
DAV:   6    -0.141518328760E+03    0.36451E-06   -0.21817E-06  1608   0.621E-03
  28 F= -.14151833E+03 E0= -.14151625E+03  d E =-.102126E-02
       N       E                     dE             d eps       ncg     rms          rms(c)
DAV:   1    -0.141518368413E+03   -0.39288E-04   -0.81210E-02  2712   0.127E+00    0.378E-02
DAV:   2    -0.141518526848E+03   -0.15844E-03   -0.17704E-03  3040   0.174E-01    0.226E-02
DAV:   3    -0.141518517292E+03    0.95552E-05   -0.27187E-05  2192   0.257E-02    0.159E-02
DAV:   4    -0.141518509810E+03    0.74823E-05   -0.33657E-05  2472   0.300E-02    0.695E-03
DAV:   5    -0.141518508664E+03    0.11466E-05   -0.76946E-06  1680   0.162E-02    0.652E-03
DAV:   6    -0.141518506606E+03    0.20571E-05   -0.79557E-06  1680   0.192E-02
  29 F= -.14151851E+03 E0= -.14151644E+03  d E =-.177846E-03
       N       E                     dE             d eps       ncg     rms          rms(c)
DAV:   1    -0.141518456014E+03    0.52649E-04   -0.50186E-02  2712   0.999E-01    0.311E-02
DAV:   2    -0.141518555262E+03   -0.99248E-04   -0.11115E-03  3040   0.138E-01    0.177E-02
DAV:   3    -0.141518548424E+03    0.68380E-05   -0.15993E-05  1928   0.216E-02    0.122E-02
DAV:   4    -0.141518542173E+03    0.62510E-05   -0.25210E-05  2392   0.296E-02    0.600E-03
DAV:   5    -0.141518541221E+03    0.95164E-06   -0.83654E-06  1672   0.165E-02    0.623E-03
DAV:   6    -0.141518540169E+03    0.10528E-05   -0.41866E-06  1680   0.108E-02
  30 F= -.14151854E+03 E0= -.14151647E+03  d E =-.211408E-03
       N       E                     dE             d eps       ncg     rms          rms(c)
DAV:   1    -0.141518507098E+03    0.34123E-04   -0.13742E-01  2688   0.165E+00    0.537E-02
DAV:   2    -0.141518781186E+03   -0.27409E-03   -0.32424E-03  2976   0.234E-01    0.287E-02
DAV:   3    -0.141518763208E+03    0.17978E-04   -0.58517E-05  3080   0.355E-02    0.206E-02
DAV:   4    -0.141518749537E+03    0.13671E-04   -0.39012E-05  2648   0.281E-02    0.879E-03
DAV:   5    -0.141518745811E+03    0.37263E-05   -0.90891E-06  1864   0.228E-02    0.635E-03
DAV:   6    -0.141518742656E+03    0.31546E-05   -0.10008E-05  1824   0.265E-02
  31 F= -.14151874E+03 E0= -.14151669E+03  d E =-.202487E-03
       N       E                     dE             d eps       ncg     rms          rms(c)
DAV:   1    -0.141518714429E+03    0.31381E-04   -0.25941E-02  2720   0.719E-01    0.240E-02
DAV:   2    -0.141518765755E+03   -0.51326E-04   -0.62020E-04  2984   0.102E-01    0.124E-02
DAV:   3    -0.141518760955E+03    0.48000E-05   -0.90552E-06  1704   0.165E-02    0.864E-03
DAV:   4    -0.141518755144E+03    0.58111E-05   -0.10050E-05  1840   0.220E-02    0.343E-03
DAV:   5    -0.141518754125E+03    0.10188E-05   -0.58126E-06  1704   0.139E-02    0.359E-03
DAV:   6    -0.141518752877E+03    0.12482E-05   -0.25707E-06  1680   0.116E-02
  32 F= -.14151875E+03 E0= -.14151670E+03  d E =-.212709E-03
       N       E                     dE             d eps       ncg     rms          rms(c)
DAV:   1    -0.141518720398E+03    0.33727E-04   -0.12828E-01  2712   0.157E+00    0.463E-02
DAV:   2    -0.141518967318E+03   -0.24692E-03   -0.27414E-03  3016   0.213E-01    0.268E-02
DAV:   3    -0.141518951922E+03    0.15396E-04   -0.35337E-05  2536   0.308E-02    0.186E-02
DAV:   4    -0.141518940174E+03    0.11748E-04   -0.61689E-05  2880   0.457E-02    0.857E-03
DAV:   5    -0.141518940331E+03   -0.15676E-06   -0.19490E-05  2152   0.206E-02    0.892E-03
DAV:   6    -0.141518939039E+03    0.12922E-05   -0.47040E-06  1672   0.103E-02
  33 F= -.14151894E+03 E0= -.14151689E+03  d E =-.186161E-03
       N       E                     dE             d eps       ncg     rms          rms(c)
DAV:   1    -0.141518805495E+03    0.13484E-03   -0.10276E-01  2696   0.141E+00    0.420E-02
DAV:   2    -0.141519003494E+03   -0.19800E-03   -0.22022E-03  3008   0.192E-01    0.241E-02
DAV:   3    -0.141518990612E+03    0.12882E-04   -0.30258E-05  2344   0.299E-02    0.167E-02
DAV:   4    -0.141518979809E+03    0.10803E-04   -0.43875E-05  2624   0.414E-02    0.750E-03
DAV:   5    -0.141518979527E+03    0.28211E-06   -0.17443E-05  2072   0.211E-02    0.784E-03
DAV:   6    -0.141518978279E+03    0.12476E-05   -0.57036E-06  1672   0.122E-02
  34 F= -.14151898E+03 E0= -.14151694E+03  d E =-.225402E-03
       N       E                     dE             d eps       ncg     rms          rms(c)
DAV:   1    -0.141518643858E+03    0.33567E-03   -0.26533E-01  2728   0.230E+00    0.683E-02
DAV:   2    -0.141519199429E+03   -0.55557E-03   -0.60239E-03  2968   0.321E-01    0.385E-02
DAV:   3    -0.141519164182E+03    0.35247E-04   -0.54192E-05  2896   0.386E-02    0.263E-02
DAV:   4    -0.141519135577E+03    0.28605E-04   -0.11430E-04  3024   0.677E-02    0.850E-03
DAV:   5    -0.141519137566E+03   -0.19890E-05   -0.45492E-05  2648   0.288E-02    0.975E-03
DAV:   6    -0.141519136058E+03    0.15078E-05   -0.34772E-06  1680   0.841E-03
  35 F= -.14151914E+03 E0= -.14151711E+03  d E =-.157779E-03
       N       E                     dE             d eps       ncg     rms          rms(c)
DAV:   1    -0.141519100869E+03    0.36697E-04   -0.21354E-02  2760   0.654E-01    0.196E-02
DAV:   2    -0.141519142842E+03   -0.41973E-04   -0.48739E-04  2984   0.927E-02    0.120E-02
DAV:   3    -0.141519137658E+03    0.51841E-05   -0.48358E-06  1672   0.156E-02    0.844E-03
DAV:   4    -0.141519129301E+03    0.83573E-05   -0.82303E-06  1784   0.277E-02    0.309E-03
DAV:   5    -0.141519127117E+03    0.21837E-05   -0.99601E-06  1672   0.175E-02    0.391E-03
DAV:   6    -0.141519126009E+03    0.11084E-05   -0.29054E-06  1680   0.910E-03
  36 F= -.14151913E+03 E0= -.14151710E+03  d E =-.147730E-03
       N       E                     dE             d eps       ncg     rms          rms(c)
DAV:   1    -0.141519096324E+03    0.30793E-04   -0.64477E-02  2792   0.110E+00    0.314E-02
DAV:   2    -0.141519201473E+03   -0.10515E-03   -0.13063E-03  3048   0.150E-01    0.203E-02
DAV:   3    -0.141519190351E+03    0.11122E-04   -0.19976E-05  2008   0.234E-02    0.146E-02
DAV:   4    -0.141519178778E+03    0.11573E-04   -0.23425E-05  2344   0.304E-02    0.584E-03
DAV:   5    -0.141519176393E+03    0.23853E-05   -0.12258E-05  1680   0.209E-02    0.459E-03
DAV:   6    -0.141519175034E+03    0.13587E-05   -0.49313E-06  1680   0.128E-02
  37 F= -.14151918E+03 E0= -.14151715E+03  d E =-.490252E-04
