 vasp.5.3.5 31Mar14 (build Apr 08 2024 10:12:10) complex                        
  
 executed on             LinuxIFC date 2024.07.29  18:14:07
 running on    8 total cores
 distrk:  each k-point on    8 cores,    1 groups
 distr:  one band on NCORES_PER_BAND=   4 cores,    2 groups


--------------------------------------------------------------------------------------------------------


 INCAR:
 POTCAR:    PAW_PBE O 08Apr2002                   
 POTCAR:    PAW_PBE Mg 13Apr2007                  
 POTCAR:    PAW_PBE Al 04Jan2001                  
 POTCAR:    PAW_PBE O 08Apr2002                   
   VRHFIN =O: s2p4                                                              
   LEXCH  = PE                                                                  
   EATOM  =   432.3788 eV,   31.7789 Ry                                         
                                                                                
   TITEL  = PAW_PBE O 08Apr2002                                                 
   LULTRA =        F    use ultrasoft PP ?                                      
   IUNSCR =        1    unscreen: 0-lin 1-nonlin 2-no                           
   RPACOR =    1.200    partial core radius                                     
   POMASS =   16.000; ZVAL   =    6.000    mass and valenz                      
   RCORE  =    1.520    outmost cutoff radius                                   
   RWIGS  =    1.550; RWIGS  =    0.820    wigner-seitz radius (au A)           
   ENMAX  =  400.000; ENMIN  =  300.000 eV                                      
   ICORE  =        2    local potential                                         
   LCOR   =        T    correct aug charges                                     
   LPAW   =        T    paw PP                                                  
   EAUG   =  605.392                                                            
   DEXC   =    0.000                                                            
   RMAX   =    1.553    core radius for proj-oper                               
   RAUG   =    1.300    factor for augmentation sphere                          
   RDEP   =    1.550    radius for radial grids                                 
   RDEPT  =    1.329    core radius for aug-charge                              
                                                                                
   Atomic configuration                                                         
    4 entries                                                                   
     n  l   j            E        occ.                                          
     1  0  0.50      -514.6923   2.0000                                         
     2  0  0.50       -23.9615   2.0000                                         
     2  1  0.50        -9.0305   4.0000                                         
     3  2  1.50        -9.5241   0.0000                                         
   Description                                                                  
     l       E           TYP  RCUT    TYP  RCUT                                 
     0    -23.9615318     23  1.200                                             
     0     -9.5240782     23  1.200                                             
     1     -9.0304911     23  1.520                                             
     1      8.1634956     23  1.520                                             
     2     -9.5240782      7  1.500                                             
  local pseudopotential read in
  partial core-charges read in
  partial kinetic energy density read in
  kinetic energy density of atom read in
  atomic valenz-charges read in
  non local Contribution for L=           0  read in
    real space projection operators read in
  non local Contribution for L=           0  read in
    real space projection operators read in
  non local Contribution for L=           1  read in
    real space projection operators read in
  non local Contribution for L=           1  read in
    real space projection operators read in
    PAW grid and wavefunctions read in
 
   number of l-projection  operators is LMAX  =           4
   number of lm-projection operators is LMMAX =           8
 
 POTCAR:    PAW_PBE Mg 13Apr2007                  
   VRHFIN =Mg: s2p0                                                             
   LEXCH  = PE                                                                  
   EATOM  =    23.0369 eV,    1.6932 Ry                                         
                                                                                
   TITEL  = PAW_PBE Mg 13Apr2007                                                
   LULTRA =        F    use ultrasoft PP ?                                      
   IUNSCR =        1    unscreen: 0-lin 1-nonlin 2-no                           
   RPACOR =    1.500    partial core radius                                     
   POMASS =   24.305; ZVAL   =    2.000    mass and valenz                      
   RCORE  =    2.000    outmost cutoff radius                                   
   RWIGS  =    2.880; RWIGS  =    1.524    wigner-seitz radius (au A)           
   ENMAX  =  200.000; ENMIN  =  100.000 eV                                      
   RCLOC  =    1.506    cutoff for local pot                                    
   LCOR   =        T    correct aug charges                                     
   LPAW   =        T    paw PP                                                  
   EAUG   =  454.734                                                            
   DEXC   =    0.000                                                            
   RMAX   =    2.045    core radius for proj-oper                               
   RAUG   =    1.300    factor for augmentation sphere                          
   RDEP   =    2.025    radius for radial grids                                 
   RDEPT  =    1.942    core radius for aug-charge                              
                                                                                
   Atomic configuration                                                         
    6 entries                                                                   
     n  l   j            E        occ.                                          
     1  0  0.50     -1259.6230   2.0000                                         
     2  0  0.50       -79.8442   2.0000                                         
     2  1  1.50       -46.6121   6.0000                                         
     3  0  0.50        -4.7055   2.0000                                         
     3  1  0.50        -1.3660   0.0000                                         
     3  2  1.50        -1.3606   0.0000                                         
   Description                                                                  
     l       E           TYP  RCUT    TYP  RCUT                                 
     0     -4.7054661     23  2.000                                             
     0     27.2116520     23  2.000                                             
     1      1.3605826     23  2.000                                             
     1     27.2116520     23  2.000                                             
     2     -1.3605826     23  2.000                                             
  local pseudopotential read in
  partial core-charges read in
  partial kinetic energy density read in
  atomic valenz-charges read in
  non local Contribution for L=           0  read in
    real space projection operators read in
  non local Contribution for L=           0  read in
    real space projection operators read in
  non local Contribution for L=           1  read in
    real space projection operators read in
  non local Contribution for L=           1  read in
    real space projection operators read in
  non local Contribution for L=           2  read in
    real space projection operators read in
    PAW grid and wavefunctions read in
 
   number of l-projection  operators is LMAX  =           5
   number of lm-projection operators is LMMAX =          13
 
 POTCAR:    PAW_PBE Al 04Jan2001                  
   VRHFIN =Al: s2p1                                                             
   LEXCH  = PE                                                                  
   EATOM  =    53.5387 eV,    3.9350 Ry                                         
                                                                                
   TITEL  = PAW_PBE Al 04Jan2001                                                
   LULTRA =        F    use ultrasoft PP ?                                      
   IUNSCR =        1    unscreen: 0-lin 1-nonlin 2-no                           
   RPACOR =    1.500    partial core radius                                     
   POMASS =   26.981; ZVAL   =    3.000    mass and valenz                      
   RCORE  =    1.900    outmost cutoff radius                                   
   RWIGS  =    2.650; RWIGS  =    1.402    wigner-seitz radius (au A)           
   ENMAX  =  240.300; ENMIN  =  180.225 eV                                      
   ICORE  =        2    local potential                                         
   LCOR   =        T    correct aug charges                                     
   LPAW   =        T    paw PP                                                  
   EAUG   =  291.052                                                            
   DEXC   =    0.000                                                            
   RMAX   =    1.939    core radius for proj-oper                               
   RAUG   =    1.300    factor for augmentation sphere                          
   RDEP   =    1.966    radius for radial grids                                 
   RDEPT  =    1.856    core radius for aug-charge                              
                                                                                
   Atomic configuration                                                         
    6 entries                                                                   
     n  l   j            E        occ.                                          
     1  0  0.50     -1511.1048   2.0000                                         
     2  0  0.50      -108.1629   2.0000                                         
     2  1  1.50       -69.6402   6.0000                                         
     3  0  0.50        -7.7528   2.0000                                         
     3  1  1.50        -2.7121   1.0000                                         
     3  2  2.50        -2.7212   0.0000                                         
   Description                                                                  
     l       E           TYP  RCUT    TYP  RCUT                                 
     0     -7.7528455     23  1.900                                             
     0     -3.3096929     23  1.900                                             
     1     -2.7120682     23  1.900                                             
     1     13.6058260     23  1.900                                             
     2     -2.7211652      7  1.900                                             
  local pseudopotential read in
  partial core-charges read in
  partial kinetic energy density read in
  atomic valenz-charges read in
  non local Contribution for L=           0  read in
    real space projection operators read in
  non local Contribution for L=           0  read in
    real space projection operators read in
  non local Contribution for L=           1  read in
    real space projection operators read in
  non local Contribution for L=           1  read in
    real space projection operators read in
    PAW grid and wavefunctions read in
 
   number of l-projection  operators is LMAX  =           4
   number of lm-projection operators is LMMAX =           8
 

 ----------------------------------------------------------------------------- 
|                                                                             |
|  ADVICE TO THIS USER RUNNING 'VASP/VAMP'   (HEAR YOUR MASTER'S VOICE ...):  |
|                                                                             |
|      You have a (more or less) 'large supercell' and for larger cells       |
|      it might be more efficient to use real space projection opertators     |
|      So try LREAL= Auto  in the INCAR   file.                               |
|      Mind: At the moment your POTCAR file does not contain real space       |
|       projectors, and has to be modified,  BUT if you                       |
|      want to do an extremely  accurate calculation you might also keep the  |
|      reciprocal projection scheme          (i.e. LREAL=.FALSE.)             |
|                                                                             |
 ----------------------------------------------------------------------------- 

  PAW_PBE O 08Apr2002                   :
 energy of atom  1       EATOM= -432.3788
 kinetic energy error for atom=    0.0208 (will be added to EATOM!!)
  PAW_PBE Mg 13Apr2007                  :
 energy of atom  2       EATOM=  -23.0369
 kinetic energy error for atom=    0.0000 (will be added to EATOM!!)
  PAW_PBE Al 04Jan2001                  :
 energy of atom  3       EATOM=  -53.5387
 kinetic energy error for atom=    0.0002 (will be added to EATOM!!)
 
 
 POSCAR: Layer                                   
  positions in direct lattice
  velocities in cartesian coordinates
 exchange correlation table for  LEXCH =        8
   RHO(1)=    0.500       N(1)  =     2000
   RHO(2)=  100.500       N(2)  =     4000
 


--------------------------------------------------------------------------------------------------------


 ion  position               nearest neighbor table
   1  0.000  0.000  0.246-  21 1.75  14 2.08  14 2.08  14 2.08
   2  0.333  0.667  0.306-  11 2.14  11 2.14  11 2.14  14 2.14  14 2.14  14 2.14
   3  0.000  0.000  0.432-  17 2.14  17 2.14  17 2.14  15 2.14  15 2.14  15 2.14
   4  0.333  0.667  0.495-  15 2.14  15 2.14  15 2.14  12 2.14  12 2.14  12 2.14
   5  0.000  0.000  0.620-  16 2.14  16 2.14  16 2.14  18 2.14  18 2.14  18 2.14
   6  0.333  0.667  0.683-  16 2.14  16 2.14  16 2.14  13 2.14  13 2.14  13 2.14
   7  0.000  0.000  0.806-  24 1.75  19 2.08  19 2.08  19 2.08
   8  0.667  0.333  0.369-  17 2.14  17 2.14  17 2.14  11 2.14  11 2.14  11 2.14
   9  0.667  0.333  0.557-  12 2.14  12 2.14  12 2.14  18 2.14  18 2.14  18 2.14
  10  0.667  0.333  0.746-  13 2.14  13 2.14  13 2.14  19 2.14  19 2.14  19 2.14
  11  0.000  0.000  0.338-   8 2.14   8 2.14   8 2.14   2 2.14   2 2.14   2 2.14  17 3.06  17 3.06
                            17 3.06  14 3.06  14 3.06  14 3.06
  12  0.000  0.000  0.526-   9 2.14   9 2.14   9 2.14   4 2.14   4 2.14   4 2.14  18 3.06  18 3.06
                            18 3.06  15 3.06  15 3.06  15 3.06
  13  0.000  0.000  0.714-   6 2.14   6 2.14   6 2.14  10 2.14  10 2.14  10 2.14  16 3.06  16 3.06
                            16 3.06  19 3.06  19 3.06  19 3.06
  14  0.667  0.333  0.275-   1 2.08   1 2.08   1 2.08   2 2.14   2 2.14   2 2.14  11 3.06  11 3.06
                            11 3.06  21 3.38  21 3.38  21 3.38
  15  0.667  0.333  0.463-   4 2.14   4 2.14   4 2.14   3 2.14   3 2.14   3 2.14  17 3.06  17 3.06
                            17 3.06  12 3.06  12 3.06  12 3.06
  16  0.667  0.333  0.652-   6 2.14   6 2.14   6 2.14   5 2.14   5 2.14   5 2.14  13 3.06  13 3.06
                            13 3.06  18 3.06  18 3.06  18 3.06
  17  0.333  0.667  0.400-   3 2.14   3 2.14   3 2.14   8 2.14   8 2.14   8 2.14  15 3.06  15 3.06
                            15 3.06  11 3.06  11 3.06  11 3.06
  18  0.333  0.667  0.589-   5 2.14   5 2.14   5 2.14   9 2.14   9 2.14   9 2.14  16 3.06  16 3.06
                            16 3.06  12 3.06  12 3.06  12 3.06
  19  0.333  0.667  0.777-   7 2.08   7 2.08   7 2.08  10 2.14  10 2.14  10 2.14  13 3.06  13 3.06
                            13 3.06  24 3.38  24 3.38  24 3.38
  20  0.000  0.000  0.026-  23 2.93  23 2.93  23 2.93  25 2.93  25 2.93  25 2.93
  21  0.000  0.000  0.202-   1 1.75  22 2.89  22 2.89  22 2.89  14 3.38  14 3.38  14 3.38
  22  0.667  0.333  0.145-  21 2.89  21 2.89  21 2.89  23 2.95  23 2.95  23 2.95
  23  0.333  0.667  0.085-  20 2.93  20 2.93  20 2.93  22 2.95  22 2.95  22 2.95
  24  0.000  0.000  0.850-   7 1.75  26 2.89  26 2.89  26 2.89  19 3.38  19 3.38  19 3.38
  25  0.667  0.333  0.967-  20 2.93  20 2.93  20 2.93  26 2.95  26 2.95  26 2.95
  26  0.333  0.667  0.907-  24 2.89  24 2.89  24 2.89  25 2.95  25 2.95  25 2.95
 
  LATTYP: Found a hexagonal cell.
 ALAT       =     3.0027496481
 C/A-ratio  =    13.3491878513
  
  Lattice vectors:
  
 A1 = (   2.6004576727,  -1.5013744842,   0.0000000000)
 A2 = (   0.0000000000,   3.0027489684,   0.0000000000)
 A3 = (   0.0000000000,  -0.0000000000,  40.0842691233)


Analysis of symmetry for initial positions (statically):
=====================================================================
 Subroutine PRICEL returns:
 Original cell was already a primitive cell.
 

 Routine SETGRP: Setting up the symmetry group for a 
 hexagonal supercell.


 Subroutine GETGRP returns: Found  6 space group operations
 (whereof  6 operations were pure point group operations)
 out of a pool of 24 trial point group operations.


The static configuration has the point symmetry C_3v.


Analysis of symmetry for dynamics (positions and initial velocities):
=====================================================================
 Subroutine PRICEL returns:
 Original cell was already a primitive cell.
 

 Routine SETGRP: Setting up the symmetry group for a 
 hexagonal supercell.


 Subroutine GETGRP returns: Found  6 space group operations
 (whereof  6 operations were pure point group operations)
 out of a pool of 24 trial point group operations.


The dynamic configuration has the point symmetry C_3v.


Analysis of constrained symmetry for selective dynamics:
=====================================================================
 Subroutine PRICEL returns:
 Original cell was already a primitive cell.
 

 Routine SETGRP: Setting up the symmetry group for a 
 hexagonal supercell.


 Subroutine GETGRP returns: Found  6 space group operations
 (whereof  6 operations were pure point group operations)
 out of a pool of 24 trial point group operations.


The constrained configuration has the point symmetry C_3v.
 
 
 KPOINTS: K-Spacing Value to Generate K-Mesh: 0.02

Automatic generation of k-mesh.
Space group operators:
 irot       det(A)        alpha          n_x          n_y          n_z        tau_x        tau_y        tau_z
    1     1.000000     0.000000     1.000000     0.000000     0.000000     0.000000     0.000000     0.000000
    2     1.000000   120.000000    -0.000000    -0.000000    -1.000000     0.000000     0.000000     0.000000
    3     1.000000   120.000000     0.000000    -0.000000     1.000000     0.000000     0.000000     0.000000
    4    -1.000000   180.000000    -0.866025     0.500000     0.000000     0.000000     0.000000     0.000000
    5    -1.000000   179.999999     0.000000     1.000000     0.000000     0.000000     0.000000     0.000000
    6    -1.000000   180.000000    -0.866025    -0.500000     0.000000     0.000000     0.000000     0.000000
 
 Subroutine IBZKPT returns following result:
 ===========================================
 
 Found     21 irreducible k-points:
 
 Following reciprocal coordinates:
            Coordinates               Weight
  0.000000  0.000000  0.000000      1.000000
  0.076923  0.000000  0.000000      6.000000
  0.153846  0.000000 -0.000000      6.000000
  0.230769  0.000000 -0.000000      6.000000
  0.307692  0.000000 -0.000000      6.000000
  0.384615  0.000000 -0.000000      6.000000
  0.461538  0.000000 -0.000000      6.000000
  0.076923  0.076923 -0.000000      6.000000
  0.153846  0.076923 -0.000000     12.000000
  0.230769  0.076923 -0.000000     12.000000
  0.307692  0.076923 -0.000000     12.000000
  0.384615  0.076923 -0.000000     12.000000
  0.461538  0.076923 -0.000000      6.000000
  0.153846  0.153846 -0.000000      6.000000
  0.230769  0.153846  0.000000     12.000000
  0.307692  0.153846 -0.000000     12.000000
  0.384615  0.153846 -0.000000     12.000000
  0.230769  0.230769 -0.000000      6.000000
  0.307692  0.230769 -0.000000     12.000000
  0.384615  0.230769 -0.000000      6.000000
  0.307692  0.307692 -0.000000      6.000000
 
 Following cartesian coordinates:
            Coordinates               Weight
  0.000000  0.000000  0.000000      1.000000
  0.029581  0.000000 -0.000000      6.000000
  0.059161  0.000000 -0.000000      6.000000
  0.088742  0.000000 -0.000000      6.000000
  0.118322  0.000000 -0.000000      6.000000
  0.147903  0.000000 -0.000000      6.000000
  0.177484  0.000000 -0.000000      6.000000
  0.044371  0.025618 -0.000000      6.000000
  0.073951  0.025618 -0.000000     12.000000
  0.103532  0.025618 -0.000000     12.000000
  0.133113  0.025618 -0.000000     12.000000
  0.162693  0.025618 -0.000000     12.000000
  0.192274  0.025618 -0.000000      6.000000
  0.088742  0.051235 -0.000000      6.000000
  0.118322  0.051235 -0.000000     12.000000
  0.147903  0.051235 -0.000000     12.000000
  0.177484  0.051235 -0.000000     12.000000
  0.133113  0.076853 -0.000000      6.000000
  0.162693  0.076853 -0.000000     12.000000
  0.192274  0.076853 -0.000000      6.000000
  0.177484  0.102470 -0.000000      6.000000
 


--------------------------------------------------------------------------------------------------------




 Dimension of arrays:
   k-points           NKPTS =     21   k-points in BZ     NKDIM =     21   number of bands    NBANDS=     64
   number of dos      NEDOS =    301   number of ions     NIONS =     26
   non local maximal  LDIM  =      5   non local SUM 2l+1 LMDIM =     13
   total plane-waves  NPLWV = 172800
   max r-space proj   IRMAX =      1   max aug-charges    IRDMAX= 187795
   dimension x,y,z NGX =    24 NGY =   24 NGZ =  300
   dimension x,y,z NGXF=    48 NGYF=   48 NGZF=  600
   support grid    NGXF=    96 NGYF=   96 NGZF= 1200
   ions per type =              10   9   7
 NGX,Y,Z   is equivalent  to a cutoff of  13.29, 13.29, 12.44 a.u.
 NGXF,Y,Z  is equivalent  to a cutoff of  26.57, 26.57, 24.88 a.u.


 I would recommend the setting:
   dimension x,y,z NGX =    22 NGY =   22 NGZ =  298
 SYSTEM =  unknown system                          
 POSCAR =  Layer                                   

 Startparameter for this run:
   NWRITE =      2    write-flag & timer
   PREC   = accura    normal or accurate (medium, high low for compatibility)
   ISTART =      0    job   : 0-new  1-cont  2-samecut
   ICHARG =      2    charge: 1-file 2-atom 10-const
   ISPIN  =      1    spin polarized calculation?
   LNONCOLLINEAR =      F non collinear calculations
   LSORBIT =      F    spin-orbit coupling
   INIWAV =      1    electr: 0-lowe 1-rand  2-diag
   LASPH  =      F    aspherical Exc in radial PAW
   METAGGA=      F    non-selfconsistent MetaGGA calc.

 Electronic Relaxation 1
   ENCUT  =  520.0 eV  38.22 Ry    6.18 a.u.   5.58  5.58 74.53*2*pi/ulx,y,z
   ENINI  =  520.0     initial cutoff
   ENAUG  =  605.4 eV  augmentation charge cutoff
   NELM   =    100;   NELMIN=  6; NELMDL=  0     # of ELM steps 
   EDIFF  = 0.1E-04   stopping-criterion for ELM
   LREAL  =      F    real-space projection
   NLSPLINE    = F    spline interpolate recip. space projectors
   LCOMPAT=      F    compatible to vasp.4.4
   GGA_COMPAT  = T    GGA compatible to vasp.4.4-vasp.4.6
   LMAXPAW     = -100 max onsite density
   LMAXMIX     =    2 max onsite mixed and CHGCAR
   VOSKOWN=      0    Vosko Wilk Nusair interpolation
   ROPT   =    0.00000   0.00000   0.00000
 Ionic relaxation
   EDIFFG = -.2E-01   stopping-criterion for IOM
   NSW    =    500    number of steps for IOM
   NBLOCK =      1;   KBLOCK =    500    inner block; outer block 
   IBRION =      2    ionic relax: 0-MD 1-quasi-New 2-CG
   NFREE  =      1    steps in history (QN), initial steepest desc. (CG)
   ISIF   =      2    stress and relaxation
   IWAVPR =     11    prediction:  0-non 1-charg 2-wave 3-comb
   ISYM   =      2    0-nonsym 1-usesym 2-fastsym
   LCORR  =      T    Harris-Foulkes like correction to forces

   POTIM  = 0.5000    time-step for ionic-motion
   TEIN   =    0.0    initial temperature
   TEBEG  =    0.0;   TEEND  =   0.0 temperature during run
   SMASS  =  -3.00    Nose mass-parameter (am)
   estimated Nose-frequenzy (Omega)   =  0.10E-29 period in steps =****** mass=  -0.206E-27a.u.
   SCALEE = 1.0000    scale energy and forces
   NPACO  =    256;   APACO  = 16.0  distance and # of slots for P.C.
   PSTRESS=    0.0 pullay stress

  Mass of Ions in am
   POMASS =  16.00 24.30 26.98
  Ionic Valenz
   ZVAL   =   6.00  2.00  3.00
  Atomic Wigner-Seitz radii
   RWIGS  =  -1.00 -1.00 -1.00
  virtual crystal weights 
   VCA    =   1.00  1.00  1.00
   NELECT =      99.0000    total number of electrons
   NUPDOWN=      -1.0000    fix difference up-down

 DOS related values:
   EMIN   =  10.00;   EMAX   =-10.00  energy-range for DOS
   EFERMI =   0.00
   ISMEAR =     0;   SIGMA  =   0.05  broadening in eV -4-tet -1-fermi 0-gaus

 Electronic relaxation 2 (details)
   IALGO  =     38    algorithm
   LDIAG  =      T    sub-space diagonalisation (order eigenvalues)
   LSUBROT=      F    optimize rotation matrix (better conditioning)
   TURBO    =      0    0=normal 1=particle mesh
   IRESTART =      0    0=no restart 2=restart with 2 vectors
   NREBOOT  =      0    no. of reboots
   NMIN     =      0    reboot dimension
   EREF     =   0.00    reference energy to select bands
   IMIX   =      4    mixing-type and parameters
     AMIX     =   0.40;   BMIX     =  1.00
     AMIX_MAG =   1.60;   BMIX_MAG =  1.00
     AMIN     =   0.01
     WC   =   100.;   INIMIX=   1;  MIXPRE=   1;  MAXMIX= -45

 Intra band minimization:
   WEIMIN = 0.0010     energy-eigenvalue tresh-hold
   EBREAK =  0.39E-07  absolut break condition
   DEPER  =   0.30     relativ break condition  

   TIME   =   0.40     timestep for ELM

  volume/ion in A,a.u.               =      12.04        81.24
  Fermi-wavevector in a.u.,A,eV,Ry     =   1.115421  2.107841 16.927891  1.244165
  Thomas-Fermi vector in A             =   2.252026
 
 Write flags
   LWAVE  =      F    write WAVECAR
   LCHARG =      T    write CHGCAR
   LVTOT  =      F    write LOCPOT, total local potential
   LVHAR  =      F    write LOCPOT, Hartree potential only
   LELF   =      F    write electronic localiz. function (ELF)
   LORBIT =      0    0 simple, 1 ext, 2 COOP (PROOUT)


 Dipole corrections
   LMONO  =      F    monopole corrections only (constant potential shift)
   LDIPOL =      F    correct potential (dipole corrections)
   IDIPOL =      0    1-x, 2-y, 3-z, 4-all directions 
   EPSILON=  1.0000000 bulk dielectric constant

 Exchange correlation treatment:
   GGA     =    --    GGA type
   LEXCH   =     8    internal setting for exchange type
   VOSKOWN=      0    Vosko Wilk Nusair interpolation
   LHFCALC =     F    Hartree Fock is set to
   LHFONE  =     F    Hartree Fock one center treatment
   AEXX    =    0.0000 exact exchange contribution

 Linear response parameters
   LEPSILON=     F    determine dielectric tensor
   LRPA    =     F    only Hartree local field effects (RPA)
   LNABLA  =     F    use nabla operator in PAW spheres
   LVEL    =     F    velocity operator in full k-point grid
   LINTERFAST=   F  fast interpolation
   KINTER  =     0    interpolate to denser k-point grid
   CSHIFT  =0.1000    complex shift for real part using Kramers Kronig
   OMEGAMAX=  -1.0    maximum frequency
   DEG_THRESHOLD= 0.2000000E-02 threshold for treating states as degnerate
   RTIME   =    0.100 relaxation time in fs

 Orbital magnetization related:
   ORBITALMAG=     F  switch on orbital magnetization
   LCHIMAG   =     F  perturbation theory with respect to B field
   DQ        =  0.001000  dq finite difference perturbation B field



--------------------------------------------------------------------------------------------------------


 conjugate gradient relaxation of ions
   using selective dynamics as specified on POSCAR
 charge density and potential will be updated during run
 non-spin polarized calculation
 Variant of blocked Davidson
 Davidson routine will perform the subspace rotation
 perform sub-space diagonalisation
    after iterative eigenvector-optimisation
 modified Broyden-mixing scheme, WC =      100.0
 initial mixing is a Kerker type mixing with AMIX =  0.4000 and BMIX =      1.0000
 Hartree-type preconditioning will be used
 using additional bands           14
 reciprocal scheme for non local part
 use partial core corrections
 calculate Harris-corrections to forces 
   (improved forces if not selfconsistent)
 use gradient corrections 
 use of overlap-Matrix (Vanderbilt PP)
 Gauss-broadening in eV      SIGMA  =   0.05


--------------------------------------------------------------------------------------------------------


  energy-cutoff  :      520.00
  volume of cell :      313.00
      direct lattice vectors                 reciprocal lattice vectors
     2.600457673 -1.501374484  0.000000000     0.384547693  0.000000000 -0.000000000
     0.000000000  3.002748968  0.000000000     0.192273847  0.333028172 -0.000000000
     0.000000000 -0.000000000 40.084269123     0.000000000  0.000000000  0.024947443

  length of vectors
     3.002749648  3.002748968 40.084269123     0.384547693  0.384547781  0.024947443


 
 k-points in units of 2pi/SCALE and weight: K-Spacing Value to Generate K-Mesh: 0.02
   0.00000000  0.00000000  0.00000000       0.006
   0.02958059  0.00000000 -0.00000000       0.036
   0.05916118  0.00000000 -0.00000000       0.036
   0.08874178  0.00000000 -0.00000000       0.036
   0.11832237  0.00000000 -0.00000000       0.036
   0.14790296  0.00000000 -0.00000000       0.036
   0.17748355  0.00000000 -0.00000000       0.036
   0.04437089  0.02561755 -0.00000000       0.036
   0.07395148  0.02561755 -0.00000000       0.071
   0.10353207  0.02561755 -0.00000000       0.071
   0.13311266  0.02561755 -0.00000000       0.071
   0.16269325  0.02561755 -0.00000000       0.071
   0.19227385  0.02561755 -0.00000000       0.036
   0.08874178  0.05123510 -0.00000000       0.036
   0.11832237  0.05123510 -0.00000000       0.071
   0.14790296  0.05123510 -0.00000000       0.071
   0.17748355  0.05123510 -0.00000000       0.071
   0.13311266  0.07685266 -0.00000000       0.036
   0.16269325  0.07685266 -0.00000000       0.071
   0.19227385  0.07685266 -0.00000000       0.036
   0.17748355  0.10247021 -0.00000000       0.036
 
 k-points in reciprocal lattice and weights: K-Spacing Value to Generate K-Mesh: 0.02
   0.00000000  0.00000000  0.00000000       0.006
   0.07692308  0.00000000  0.00000000       0.036
   0.15384615  0.00000000 -0.00000000       0.036
   0.23076923  0.00000000 -0.00000000       0.036
   0.30769231  0.00000000 -0.00000000       0.036
   0.38461538  0.00000000 -0.00000000       0.036
   0.46153846  0.00000000 -0.00000000       0.036
   0.07692308  0.07692308 -0.00000000       0.036
   0.15384615  0.07692308 -0.00000000       0.071
   0.23076923  0.07692308 -0.00000000       0.071
   0.30769231  0.07692308 -0.00000000       0.071
   0.38461538  0.07692308 -0.00000000       0.071
   0.46153846  0.07692308 -0.00000000       0.036
   0.15384615  0.15384615 -0.00000000       0.036
   0.23076923  0.15384615  0.00000000       0.071
   0.30769231  0.15384615 -0.00000000       0.071
   0.38461538  0.15384615 -0.00000000       0.071
   0.23076923  0.23076923 -0.00000000       0.036
   0.30769231  0.23076923 -0.00000000       0.071
   0.38461538  0.23076923 -0.00000000       0.036
   0.30769231  0.30769231 -0.00000000       0.036
 
 position of ions in fractional coordinates (direct lattice) 
   0.00000000  0.00000000  0.24592909
   0.33333300  0.66666700  0.30622682
   0.00000000  0.00000000  0.43180119
   0.33333300  0.66666700  0.49462067
   0.00000000  0.00000000  0.62026470
   0.33333300  0.66666700  0.68304271
   0.00000000  0.00000000  0.80615761
   0.66666700  0.33333300  0.36903311
   0.66666700  0.33333300  0.55743927
   0.66666700  0.33333300  0.74585957
   0.00000000  0.00000000  0.33763051
   0.00000000  0.00000000  0.52604639
   0.00000000  0.00000000  0.71443952
   0.66666700  0.33333300  0.27475398
   0.66666700  0.33333300  0.46322112
   0.66666700  0.33333300  0.65165564
   0.33333300  0.66666700  0.40042718
   0.33333300  0.66666700  0.58886704
   0.33333300  0.66666700  0.77730800
   0.00000000  0.00000000  0.02603335
   0.00000000  0.00000000  0.20231505
   0.66666700  0.33333300  0.14458297
   0.33333300  0.66666700  0.08489880
   0.00000000  0.00000000  0.84975798
   0.66666700  0.33333300  0.96716777
   0.33333300  0.66666700  0.90748694
 
 position of ions in cartesian coordinates  (Angst):
   0.00000000 -0.00000000  9.85788764
   0.86681836  1.50137599 12.27487811
   0.00000000 -0.00000000 17.30843520
   0.86681836  1.50137599 19.82650791
   0.00000000 -0.00000000 24.86285725
   0.86681836  1.50137599 27.37926772
   0.00000000 -0.00000000 32.31423869
   1.73363932 -0.00000150 14.79242260
   1.73363932 -0.00000150 22.34454587
   1.73363932 -0.00000150 29.89723588
   0.00000000 -0.00000000 13.53367239
   0.00000000 -0.00000000 21.08618522
   0.00000000 -0.00000000 28.63778589
   1.73363932 -0.00000150 11.01331261
   1.73363932 -0.00000150 18.56787997
   1.73363932 -0.00000150 26.12114004
   0.86681836  1.50137599 16.05083087
   0.86681836  1.50137599 23.60430510
   0.86681836  1.50137599 31.15782322
   0.00000000 -0.00000000  1.04352797
   0.00000000 -0.00000000  8.10965078
   1.73363932 -0.00000150  5.79550279
   0.86681836  1.50137599  3.40310642
   0.00000000 -0.00000000 34.06192740
   1.73363932 -0.00000150 38.76821305
   0.86681836  1.50137599 36.37595088
 


--------------------------------------------------------------------------------------------------------


 k-point  1 :   0.0000 0.0000 0.0000  plane waves:    8513
 k-point  2 :   0.0769 0.0000 0.0000  plane waves:    8515
 k-point  3 :   0.1538 0.0000-0.0000  plane waves:    8501
 k-point  4 :   0.2308 0.0000-0.0000  plane waves:    8478
 k-point  5 :   0.3077 0.0000-0.0000  plane waves:    8410
 k-point  6 :   0.3846 0.0000-0.0000  plane waves:    8390
 k-point  7 :   0.4615 0.0000-0.0000  plane waves:    8400
 k-point  8 :   0.0769 0.0769-0.0000  plane waves:    8499
 k-point  9 :   0.1538 0.0769-0.0000  plane waves:    8486
 k-point 10 :   0.2308 0.0769-0.0000  plane waves:    8445
 k-point 11 :   0.3077 0.0769-0.0000  plane waves:    8412
 k-point 12 :   0.3846 0.0769-0.0000  plane waves:    8397
 k-point 13 :   0.4615 0.0769-0.0000  plane waves:    8384
 k-point 14 :   0.1538 0.1538-0.0000  plane waves:    8453
 k-point 15 :   0.2308 0.1538 0.0000  plane waves:    8410
 k-point 16 :   0.3077 0.1538-0.0000  plane waves:    8402
 k-point 17 :   0.3846 0.1538-0.0000  plane waves:    8374
 k-point 18 :   0.2308 0.2308-0.0000  plane waves:    8406
 k-point 19 :   0.3077 0.2308-0.0000  plane waves:    8411
 k-point 20 :   0.3846 0.2308-0.0000  plane waves:    8402
 k-point 21 :   0.3077 0.3077-0.0000  plane waves:    8416

 maximum and minimum number of plane-waves per node :      2150     2070

 maximum number of plane-waves:      8515
 maximum index in each direction: 
   IXMAX=    5   IYMAX=    5   IZMAX=   74
   IXMIN=   -6   IYMIN=   -5   IZMIN=  -74

 NGX is ok and might be reduce to  24
 NGY is ok and might be reduce to  22
 NGZ is ok and might be reduce to 298

 parallel 3D FFT for wavefunctions:
    minimum data exchange during FFTs selected (reduces bandwidth)
 parallel 3D FFT for charge:
    minimum data exchange during FFTs selected (reduces bandwidth)


 total amount of memory used by VASP on root node   140546. kBytes
========================================================================

   base      :      30000. kBytes
   nonl-proj :      14674. kBytes
   fftplans  :      51727. kBytes
   grid      :      20736. kBytes
   one-center:         56. kBytes
   wavefun   :      23353. kBytes
 
     INWAV:  cpu time    0.00: real time    0.00
 Broyden mixing: mesh for mixing (old mesh)
   NGX = 11   NGY = 11   NGZ =149
  (NGX  = 48   NGY  = 48   NGZ  =600)
  gives a total of  18029 points

 initial charge density was supplied:
 charge density of overlapping atoms calculated
 number of electron      99.0000000 magnetization 
 keeping initial charge density in first step


--------------------------------------------------------------------------------------------------------


 Maximum index for augmentation-charges        22628 (set IRDMAX)


--------------------------------------------------------------------------------------------------------


 First call to EWALD:  gamma=   0.261
 Maximum number of real-space cells 6x 6x 1
 Maximum number of reciprocal cells 1x 1x14

 FEWALD executed in parallel
    FEWALD:  cpu time    0.00: real time    0.00


----------------------------------------- Iteration    1(   1)  ---------------------------------------


    POTLOK:  cpu time    0.10: real time    0.10
    SETDIJ:  cpu time    0.10: real time    0.10
     EDDAV:  cpu time    4.32: real time    4.36
       DOS:  cpu time    0.00: real time    0.00
    --------------------------------------------
      LOOP:  cpu time    4.52: real time    4.55

 eigenvalue-minimisations  :  2704
 total energy-change (2. order) : 0.4959339E+03  (-0.4446320E+04)
 number of electron      99.0000000 magnetization 
 augmentation part       99.0000000 magnetization 

 Free energy of the ion-electron system (eV)
  ---------------------------------------------------
  alpha Z        PSCENC =       134.83001543
  Ewald energy   TEWEN  =      8725.94318531
  -Hartree energ DENC   =    -13908.19472867
  -exchange      EXHF   =         0.00000000
  -V(xc)+E(xc)   XCENC  =      -342.45879097
  PAW double counting   =      4516.65612620    -3844.19644948
  entropy T*S    EENTRO =        -0.00300006
  eigenvalues    EBANDS =       307.67666790
  atomic energy  EATOM  =      4905.68083858
  ---------------------------------------------------
  free energy    TOTEN  =       495.93386423 eV

  energy without entropy =      495.93686428  energy(sigma->0) =      495.93536425


--------------------------------------------------------------------------------------------------------




----------------------------------------- Iteration    1(   2)  ---------------------------------------


     EDDAV:  cpu time    4.90: real time    4.91
       DOS:  cpu time    0.00: real time    0.00
    --------------------------------------------
      LOOP:  cpu time    4.90: real time    4.91

 eigenvalue-minimisations  :  3448
 total energy-change (2. order) :-0.6011360E+03  (-0.5716800E+03)
 number of electron      99.0000000 magnetization 
 augmentation part       99.0000000 magnetization 

 Free energy of the ion-electron system (eV)
  ---------------------------------------------------
  alpha Z        PSCENC =       134.83001543
  Ewald energy   TEWEN  =      8725.94318531
  -Hartree energ DENC   =    -13908.19472867
  -exchange      EXHF   =         0.00000000
  -V(xc)+E(xc)   XCENC  =      -342.45879097
  PAW double counting   =      4516.65612620    -3844.19644948
  entropy T*S    EENTRO =        -0.00411094
  eigenvalues    EBANDS =      -293.45823533
  atomic energy  EATOM  =      4905.68083858
  ---------------------------------------------------
  free energy    TOTEN  =      -105.20214988 eV

  energy without entropy =     -105.19803894  energy(sigma->0) =     -105.20009441


--------------------------------------------------------------------------------------------------------




----------------------------------------- Iteration    1(   3)  ---------------------------------------


     EDDAV:  cpu time    4.53: real time    4.54
       DOS:  cpu time    0.00: real time    0.00
    --------------------------------------------
      LOOP:  cpu time    4.53: real time    4.54

 eigenvalue-minimisations  :  3136
 total energy-change (2. order) :-0.5269131E+02  (-0.5241959E+02)
 number of electron      99.0000000 magnetization 
 augmentation part       99.0000000 magnetization 

 Free energy of the ion-electron system (eV)
  ---------------------------------------------------
  alpha Z        PSCENC =       134.83001543
  Ewald energy   TEWEN  =      8725.94318531
  -Hartree energ DENC   =    -13908.19472867
  -exchange      EXHF   =         0.00000000
  -V(xc)+E(xc)   XCENC  =      -342.45879097
  PAW double counting   =      4516.65612620    -3844.19644948
  entropy T*S    EENTRO =        -0.00470437
  eigenvalues    EBANDS =      -346.14894773
  atomic energy  EATOM  =      4905.68083858
  ---------------------------------------------------
  free energy    TOTEN  =      -157.89345571 eV

  energy without entropy =     -157.88875134  energy(sigma->0) =     -157.89110353


--------------------------------------------------------------------------------------------------------




----------------------------------------- Iteration    1(   4)  ---------------------------------------


     EDDAV:  cpu time    4.65: real time    4.66
       DOS:  cpu time    0.00: real time    0.00
    --------------------------------------------
      LOOP:  cpu time    4.66: real time    4.66

 eigenvalue-minimisations  :  3144
 total energy-change (2. order) :-0.6315536E+00  (-0.6304725E+00)
 number of electron      99.0000000 magnetization 
 augmentation part       99.0000000 magnetization 

 Free energy of the ion-electron system (eV)
  ---------------------------------------------------
  alpha Z        PSCENC =       134.83001543
  Ewald energy   TEWEN  =      8725.94318531
  -Hartree energ DENC   =    -13908.19472867
  -exchange      EXHF   =         0.00000000
  -V(xc)+E(xc)   XCENC  =      -342.45879097
  PAW double counting   =      4516.65612620    -3844.19644948
  entropy T*S    EENTRO =        -0.00459026
  eigenvalues    EBANDS =      -346.78061544
  atomic energy  EATOM  =      4905.68083858
  ---------------------------------------------------
  free energy    TOTEN  =      -158.52500931 eV

  energy without entropy =     -158.52041905  energy(sigma->0) =     -158.52271418


--------------------------------------------------------------------------------------------------------




----------------------------------------- Iteration    1(   5)  ---------------------------------------


     EDDAV:  cpu time    4.61: real time    4.62
       DOS:  cpu time    0.00: real time    0.00
    CHARGE:  cpu time    0.36: real time    0.36
    MIXING:  cpu time    0.00: real time    0.00
    --------------------------------------------
      LOOP:  cpu time    4.98: real time    4.99

 eigenvalue-minimisations  :  3192
 total energy-change (2. order) :-0.9385156E-02  (-0.9383006E-02)
 number of electron      99.0000001 magnetization 
 augmentation part        7.8039176 magnetization 

 Broyden mixing:
  rms(total) = 0.23643E+01    rms(broyden)= 0.23637E+01
  rms(prec ) = 0.24312E+01
  weight for this iteration     100.00

 Free energy of the ion-electron system (eV)
  ---------------------------------------------------
  alpha Z        PSCENC =       134.83001543
  Ewald energy   TEWEN  =      8725.94318531
  -Hartree energ DENC   =    -13908.19472867
  -exchange      EXHF   =         0.00000000
  -V(xc)+E(xc)   XCENC  =      -342.45879097
  PAW double counting   =      4516.65612620    -3844.19644948
  entropy T*S    EENTRO =        -0.00458342
  eigenvalues    EBANDS =      -346.79000744
  atomic energy  EATOM  =      4905.68083858
  ---------------------------------------------------
  free energy    TOTEN  =      -158.53439447 eV

  energy without entropy =     -158.52981105  energy(sigma->0) =     -158.53210276


--------------------------------------------------------------------------------------------------------




----------------------------------------- Iteration    1(   6)  ---------------------------------------


    POTLOK:  cpu time    0.10: real time    0.10
    SETDIJ:  cpu time    0.10: real time    0.10
     EDDAV:  cpu time    4.61: real time    4.62
       DOS:  cpu time    0.00: real time    0.00
    CHARGE:  cpu time    0.35: real time    0.35
    MIXING:  cpu time    0.00: real time    0.00
    --------------------------------------------
      LOOP:  cpu time    5.16: real time    5.17

 eigenvalue-minimisations  :  3192
 total energy-change (2. order) : 0.1680053E+02  (-0.9257344E+01)
 number of electron      99.0000001 magnetization 
 augmentation part        6.2926708 magnetization 

 Broyden mixing:
  rms(total) = 0.78959E+00    rms(broyden)= 0.78855E+00
  rms(prec ) = 0.79790E+00
  weight for this iteration     100.00

 eigenvalues of (default mixing * dielectric matrix)
  average eigenvalue GAMMA=   0.8472
  0.8472

 Free energy of the ion-electron system (eV)
  ---------------------------------------------------
  alpha Z        PSCENC =       134.83001543
  Ewald energy   TEWEN  =      8725.94318531
  -Hartree energ DENC   =    -14109.17430412
  -exchange      EXHF   =         0.00000000
  -V(xc)+E(xc)   XCENC  =      -328.84414152
  PAW double counting   =      5405.84494146    -4736.92975453
  entropy T*S    EENTRO =        -0.00413265
  eigenvalues    EBANDS =      -139.08050832
  atomic energy  EATOM  =      4905.68083858
  ---------------------------------------------------
  free energy    TOTEN  =      -141.73386036 eV

  energy without entropy =     -141.72972771  energy(sigma->0) =     -141.73179404


--------------------------------------------------------------------------------------------------------




----------------------------------------- Iteration    1(   7)  ---------------------------------------


    POTLOK:  cpu time    0.09: real time    0.09
    SETDIJ:  cpu time    0.09: real time    0.09
     EDDAV:  cpu time    4.38: real time    4.39
       DOS:  cpu time    0.00: real time    0.00
    CHARGE:  cpu time    0.37: real time    0.37
    MIXING:  cpu time    0.01: real time    0.01
    --------------------------------------------
      LOOP:  cpu time    4.95: real time    4.96

 eigenvalue-minimisations  :  2992
 total energy-change (2. order) : 0.3416179E-02  (-0.2996892E+00)
 number of electron      99.0000001 magnetization 
 augmentation part        6.3089719 magnetization 

 Broyden mixing:
  rms(total) = 0.49344E+00    rms(broyden)= 0.49341E+00
  rms(prec ) = 0.50162E+00
  weight for this iteration     100.00

 eigenvalues of (default mixing * dielectric matrix)
  average eigenvalue GAMMA=   1.4649
  1.0225  1.9074

 Free energy of the ion-electron system (eV)
  ---------------------------------------------------
  alpha Z        PSCENC =       134.83001543
  Ewald energy   TEWEN  =      8725.94318531
  -Hartree energ DENC   =    -14110.51151328
  -exchange      EXHF   =         0.00000000
  -V(xc)+E(xc)   XCENC  =      -328.45946618
  PAW double counting   =      5751.94013230    -5082.56788327
  entropy T*S    EENTRO =        -0.00414253
  eigenvalues    EBANDS =      -138.58161053
  atomic energy  EATOM  =      4905.68083858
  ---------------------------------------------------
  free energy    TOTEN  =      -141.73044418 eV

  energy without entropy =     -141.72630165  energy(sigma->0) =     -141.72837292


--------------------------------------------------------------------------------------------------------




----------------------------------------- Iteration    1(   8)  ---------------------------------------


    POTLOK:  cpu time    0.10: real time    0.10
    SETDIJ:  cpu time    0.10: real time    0.10
     EDDAV:  cpu time    4.59: real time    4.60
       DOS:  cpu time    0.00: real time    0.00
    CHARGE:  cpu time    0.37: real time    0.37
    MIXING:  cpu time    0.00: real time    0.00
    --------------------------------------------
      LOOP:  cpu time    5.17: real time    5.18

 eigenvalue-minimisations  :  3112
 total energy-change (2. order) : 0.1482356E+00  (-0.6740599E-01)
 number of electron      99.0000001 magnetization 
 augmentation part        6.3768688 magnetization 

 Broyden mixing:
  rms(total) = 0.12304E+00    rms(broyden)= 0.12298E+00
  rms(prec ) = 0.13218E+00
  weight for this iteration     100.00

 eigenvalues of (default mixing * dielectric matrix)
  average eigenvalue GAMMA=   1.3712
  2.4014  0.9035  0.8088

 Free energy of the ion-electron system (eV)
  ---------------------------------------------------
  alpha Z        PSCENC =       134.83001543
  Ewald energy   TEWEN  =      8725.94318531
  -Hartree energ DENC   =    -14117.62496375
  -exchange      EXHF   =         0.00000000
  -V(xc)+E(xc)   XCENC  =      -327.45839776
  PAW double counting   =      6220.32812123    -5550.60805866
  entropy T*S    EENTRO =        -0.00453235
  eigenvalues    EBANDS =      -132.66841665
  atomic energy  EATOM  =      4905.68083858
  ---------------------------------------------------
  free energy    TOTEN  =      -141.58220862 eV

  energy without entropy =     -141.57767627  energy(sigma->0) =     -141.57994245


--------------------------------------------------------------------------------------------------------




----------------------------------------- Iteration    1(   9)  ---------------------------------------


    POTLOK:  cpu time    0.10: real time    0.10
    SETDIJ:  cpu time    0.10: real time    0.10
     EDDAV:  cpu time    4.51: real time    4.52
       DOS:  cpu time    0.00: real time    0.00
    CHARGE:  cpu time    0.36: real time    0.36
    MIXING:  cpu time    0.01: real time    0.01
    --------------------------------------------
      LOOP:  cpu time    5.07: real time    5.08

 eigenvalue-minimisations  :  3104
 total energy-change (2. order) : 0.3347114E-01  (-0.1423872E-01)
 number of electron      99.0000001 magnetization 
 augmentation part        6.3433159 magnetization 

 Broyden mixing:
  rms(total) = 0.63474E-01    rms(broyden)= 0.63466E-01
  rms(prec ) = 0.72387E-01
  weight for this iteration     100.00

 eigenvalues of (default mixing * dielectric matrix)
  average eigenvalue GAMMA=   1.3049
  2.4057  0.9068  0.9068  1.0003

 Free energy of the ion-electron system (eV)
  ---------------------------------------------------
  alpha Z        PSCENC =       134.83001543
  Ewald energy   TEWEN  =      8725.94318531
  -Hartree energ DENC   =    -14126.06274135
  -exchange      EXHF   =         0.00000000
  -V(xc)+E(xc)   XCENC  =      -326.79483566
  PAW double counting   =      6331.50519851    -5661.82112012
  entropy T*S    EENTRO =        -0.00429879
  eigenvalues    EBANDS =      -124.82497940
  atomic energy  EATOM  =      4905.68083858
  ---------------------------------------------------
  free energy    TOTEN  =      -141.54873749 eV

  energy without entropy =     -141.54443870  energy(sigma->0) =     -141.54658809


--------------------------------------------------------------------------------------------------------




----------------------------------------- Iteration    1(  10)  ---------------------------------------


    POTLOK:  cpu time    0.10: real time    0.10
    SETDIJ:  cpu time    0.10: real time    0.10
     EDDAV:  cpu time    4.49: real time    4.50
       DOS:  cpu time    0.00: real time    0.00
    CHARGE:  cpu time    0.35: real time    0.35
    MIXING:  cpu time    0.01: real time    0.01
    --------------------------------------------
      LOOP:  cpu time    5.04: real time    5.05

 eigenvalue-minimisations  :  3072
 total energy-change (2. order) : 0.5523221E-02  (-0.7211272E-02)
 number of electron      99.0000001 magnetization 
 augmentation part        6.3266549 magnetization 

 Broyden mixing:
  rms(total) = 0.27486E-01    rms(broyden)= 0.27453E-01
  rms(prec ) = 0.38976E-01
  weight for this iteration     100.00

 eigenvalues of (default mixing * dielectric matrix)
  average eigenvalue GAMMA=   1.3586
  2.5487  1.6823  0.9762  0.7930  0.7930

 Free energy of the ion-electron system (eV)
  ---------------------------------------------------
  alpha Z        PSCENC =       134.83001543
  Ewald energy   TEWEN  =      8725.94318531
  -Hartree energ DENC   =    -14128.45793247
  -exchange      EXHF   =         0.00000000
  -V(xc)+E(xc)   XCENC  =      -326.67783822
  PAW double counting   =      6316.84634226    -5647.18264989
  entropy T*S    EENTRO =        -0.00445356
  eigenvalues    EBANDS =      -122.52072170
  atomic energy  EATOM  =      4905.68083858
  ---------------------------------------------------
  free energy    TOTEN  =      -141.54321427 eV

  energy without entropy =     -141.53876070  energy(sigma->0) =     -141.54098748


--------------------------------------------------------------------------------------------------------




----------------------------------------- Iteration    1(  11)  ---------------------------------------


    POTLOK:  cpu time    0.09: real time    0.09
    SETDIJ:  cpu time    0.09: real time    0.09
     EDDAV:  cpu time    4.77: real time    4.77
       DOS:  cpu time    0.00: real time    0.00
    CHARGE:  cpu time    0.37: real time    0.37
    MIXING:  cpu time    0.01: real time    0.01
    --------------------------------------------
      LOOP:  cpu time    5.33: real time    5.34

 eigenvalue-minimisations  :  3336
 total energy-change (2. order) : 0.6122859E-02  (-0.6497362E-03)
 number of electron      99.0000001 magnetization 
 augmentation part        6.3222781 magnetization 

 Broyden mixing:
  rms(total) = 0.20350E-01    rms(broyden)= 0.20347E-01
  rms(prec ) = 0.34109E-01
  weight for this iteration     100.00

 eigenvalues of (default mixing * dielectric matrix)
  average eigenvalue GAMMA=   1.4187
  2.5723  2.3377  0.9553  0.9553  0.8458  0.8458

 Free energy of the ion-electron system (eV)
  ---------------------------------------------------
  alpha Z        PSCENC =       134.83001543
  Ewald energy   TEWEN  =      8725.94318531
  -Hartree energ DENC   =    -14130.96295731
  -exchange      EXHF   =         0.00000000
  -V(xc)+E(xc)   XCENC  =      -326.56773113
  PAW double counting   =      6293.30817790    -5623.65933025
  entropy T*S    EENTRO =        -0.00432532
  eigenvalues    EBANDS =      -120.10496461
  atomic energy  EATOM  =      4905.68083858
  ---------------------------------------------------
  free energy    TOTEN  =      -141.53709141 eV

  energy without entropy =     -141.53276608  energy(sigma->0) =     -141.53492875


--------------------------------------------------------------------------------------------------------




----------------------------------------- Iteration    1(  12)  ---------------------------------------


    POTLOK:  cpu time    0.10: real time    0.10
    SETDIJ:  cpu time    0.10: real time    0.10
     EDDAV:  cpu time    4.91: real time    4.91
       DOS:  cpu time    0.00: real time    0.00
    CHARGE:  cpu time    0.35: real time    0.35
    MIXING:  cpu time    0.01: real time    0.01
    --------------------------------------------
      LOOP:  cpu time    5.46: real time    5.47

 eigenvalue-minimisations  :  3424
 total energy-change (2. order) : 0.3782333E-02  (-0.4298410E-03)
 number of electron      99.0000001 magnetization 
 augmentation part        6.3212375 magnetization 

 Broyden mixing:
  rms(total) = 0.15148E-01    rms(broyden)= 0.15148E-01
  rms(prec ) = 0.28661E-01
  weight for this iteration     100.00

 eigenvalues of (default mixing * dielectric matrix)
  average eigenvalue GAMMA=   1.3711
  2.7495  2.5520  0.9833  0.9833  0.8781  0.8781  0.5737

 Free energy of the ion-electron system (eV)
  ---------------------------------------------------
  alpha Z        PSCENC =       134.83001543
  Ewald energy   TEWEN  =      8725.94318531
  -Hartree energ DENC   =    -14131.88749622
  -exchange      EXHF   =         0.00000000
  -V(xc)+E(xc)   XCENC  =      -326.56126342
  PAW double counting   =      6281.30488952    -5611.65747056
  entropy T*S    EENTRO =        -0.00439233
  eigenvalues    EBANDS =      -119.18161539
  atomic energy  EATOM  =      4905.68083858
  ---------------------------------------------------
  free energy    TOTEN  =      -141.53330907 eV

  energy without entropy =     -141.52891675  energy(sigma->0) =     -141.53111291


--------------------------------------------------------------------------------------------------------




----------------------------------------- Iteration    1(  13)  ---------------------------------------


    POTLOK:  cpu time    0.09: real time    0.09
    SETDIJ:  cpu time    0.09: real time    0.09
     EDDAV:  cpu time    5.70: real time    5.71
       DOS:  cpu time    0.00: real time    0.00
    CHARGE:  cpu time    0.37: real time    0.37
    MIXING:  cpu time    0.01: real time    0.01
    --------------------------------------------
      LOOP:  cpu time    6.27: real time    6.28

 eigenvalue-minimisations  :  4200
 total energy-change (2. order) : 0.7654599E-02  (-0.4854848E-03)
 number of electron      99.0000001 magnetization 
 augmentation part        6.3240768 magnetization 

 Broyden mixing:
  rms(total) = 0.81518E-02    rms(broyden)= 0.81494E-02
  rms(prec ) = 0.22895E-01
  weight for this iteration     100.00

 eigenvalues of (default mixing * dielectric matrix)
  average eigenvalue GAMMA=   1.3757
  2.8275  2.4693  1.2672  0.8492  0.8492  0.9801  0.9801  0.7830

 Free energy of the ion-electron system (eV)
  ---------------------------------------------------
  alpha Z        PSCENC =       134.83001543
  Ewald energy   TEWEN  =      8725.94318531
  -Hartree energ DENC   =    -14133.50805219
  -exchange      EXHF   =         0.00000000
  -V(xc)+E(xc)   XCENC  =      -326.60346005
  PAW double counting   =      6258.38931576    -5588.73362757
  entropy T*S    EENTRO =        -0.00433353
  eigenvalues    EBANDS =      -117.51953622
  atomic energy  EATOM  =      4905.68083858
  ---------------------------------------------------
  free energy    TOTEN  =      -141.52565448 eV

  energy without entropy =     -141.52132094  energy(sigma->0) =     -141.52348771


--------------------------------------------------------------------------------------------------------




----------------------------------------- Iteration    1(  14)  ---------------------------------------


    POTLOK:  cpu time    0.10: real time    0.10
    SETDIJ:  cpu time    0.10: real time    0.10
     EDDAV:  cpu time    5.26: real time    5.27
       DOS:  cpu time    0.00: real time    0.00
    CHARGE:  cpu time    0.37: real time    0.37
    MIXING:  cpu time    0.01: real time    0.01
    --------------------------------------------
      LOOP:  cpu time    5.84: real time    5.85

 eigenvalue-minimisations  :  3760
 total energy-change (2. order) : 0.5566912E-02  (-0.8432116E-03)
 number of electron      99.0000001 magnetization 
 augmentation part        6.3271442 magnetization 

 Broyden mixing:
  rms(total) = 0.11437E-01    rms(broyden)= 0.11433E-01
  rms(prec ) = 0.21414E-01
  weight for this iteration     100.00

 eigenvalues of (default mixing * dielectric matrix)
  average eigenvalue GAMMA=   1.4561
  3.2410  2.5018  1.8305  1.1207  1.1207  0.8589  0.8589  0.8565  0.7161

 Free energy of the ion-electron system (eV)
  ---------------------------------------------------
  alpha Z        PSCENC =       134.83001543
  Ewald energy   TEWEN  =      8725.94318531
  -Hartree energ DENC   =    -14135.49247451
  -exchange      EXHF   =         0.00000000
  -V(xc)+E(xc)   XCENC  =      -326.63214734
  PAW double counting   =      6258.59191614    -5588.92662731
  entropy T*S    EENTRO =        -0.00433375
  eigenvalues    EBANDS =      -115.51046011
  atomic energy  EATOM  =      4905.68083858
  ---------------------------------------------------
  free energy    TOTEN  =      -141.52008756 eV

  energy without entropy =     -141.51575382  energy(sigma->0) =     -141.51792069


--------------------------------------------------------------------------------------------------------




----------------------------------------- Iteration    1(  15)  ---------------------------------------


    POTLOK:  cpu time    0.10: real time    0.10
    SETDIJ:  cpu time    0.11: real time    0.11
     EDDAV:  cpu time    5.72: real time    5.73
       DOS:  cpu time    0.00: real time    0.00
    CHARGE:  cpu time    0.35: real time    0.35
    MIXING:  cpu time    0.01: real time    0.01
    --------------------------------------------
      LOOP:  cpu time    6.29: real time    6.30

 eigenvalue-minimisations  :  4232
 total energy-change (2. order) : 0.8955413E-02  (-0.1072083E-02)
 number of electron      99.0000001 magnetization 
 augmentation part        6.3226464 magnetization 

 Broyden mixing:
  rms(total) = 0.91497E-02    rms(broyden)= 0.91461E-02
  rms(prec ) = 0.13970E-01
  weight for this iteration     100.00

 eigenvalues of (default mixing * dielectric matrix)
  average eigenvalue GAMMA=   1.5890
  4.3198  2.7987  2.3163  1.1003  1.1003  0.8339  0.8339  0.9357  0.9357  0.7150

 Free energy of the ion-electron system (eV)
  ---------------------------------------------------
  alpha Z        PSCENC =       134.83001543
  Ewald energy   TEWEN  =      8725.94318531
  -Hartree energ DENC   =    -14140.96036797
  -exchange      EXHF   =         0.00000000
  -V(xc)+E(xc)   XCENC  =      -326.63083746
  PAW double counting   =      6259.49162383    -5589.82877306
  entropy T*S    EENTRO =        -0.00437582
  eigenvalues    EBANDS =      -110.03244100
  atomic energy  EATOM  =      4905.68083858
  ---------------------------------------------------
  free energy    TOTEN  =      -141.51113215 eV

  energy without entropy =     -141.50675633  energy(sigma->0) =     -141.50894424


--------------------------------------------------------------------------------------------------------




----------------------------------------- Iteration    1(  16)  ---------------------------------------


    POTLOK:  cpu time    0.09: real time    0.09
    SETDIJ:  cpu time    0.09: real time    0.09
     EDDAV:  cpu time    4.35: real time    4.35
       DOS:  cpu time    0.00: real time    0.00
    CHARGE:  cpu time    0.37: real time    0.37
    MIXING:  cpu time    0.01: real time    0.01
    --------------------------------------------
      LOOP:  cpu time    4.92: real time    4.92

 eigenvalue-minimisations  :  3040
 total energy-change (2. order) : 0.1169637E-02  (-0.1078372E-02)
 number of electron      99.0000001 magnetization 
 augmentation part        6.3227324 magnetization 

 Broyden mixing:
  rms(total) = 0.74284E-02    rms(broyden)= 0.74268E-02
  rms(prec ) = 0.10961E-01
  weight for this iteration     100.00

 eigenvalues of (default mixing * dielectric matrix)
  average eigenvalue GAMMA=   1.5110
  4.4828  2.8127  2.3447  1.1637  1.1637  0.8407  0.8407  0.9520  0.9520  0.7110
  0.3574

 Free energy of the ion-electron system (eV)
  ---------------------------------------------------
  alpha Z        PSCENC =       134.83001543
  Ewald energy   TEWEN  =      8725.94318531
  -Hartree energ DENC   =    -14142.30952377
  -exchange      EXHF   =         0.00000000
  -V(xc)+E(xc)   XCENC  =      -326.65686229
  PAW double counting   =      6261.46775158    -5591.80071807
  entropy T*S    EENTRO =        -0.00438705
  eigenvalues    EBANDS =      -108.66026222
  atomic energy  EATOM  =      4905.68083858
  ---------------------------------------------------
  free energy    TOTEN  =      -141.50996251 eV

  energy without entropy =     -141.50557546  energy(sigma->0) =     -141.50776899


--------------------------------------------------------------------------------------------------------




----------------------------------------- Iteration    1(  17)  ---------------------------------------


    POTLOK:  cpu time    0.10: real time    0.10
    SETDIJ:  cpu time    0.10: real time    0.10
     EDDAV:  cpu time    4.63: real time    4.63
       DOS:  cpu time    0.00: real time    0.00
    CHARGE:  cpu time    0.35: real time    0.35
    MIXING:  cpu time    0.01: real time    0.01
    --------------------------------------------
      LOOP:  cpu time    5.19: real time    5.19

 eigenvalue-minimisations  :  3272
 total energy-change (2. order) : 0.1512501E-02  (-0.3455894E-03)
 number of electron      99.0000001 magnetization 
 augmentation part        6.3223196 magnetization 

 Broyden mixing:
  rms(total) = 0.78286E-02    rms(broyden)= 0.78264E-02
  rms(prec ) = 0.10139E-01
  weight for this iteration     100.00

 eigenvalues of (default mixing * dielectric matrix)
  average eigenvalue GAMMA=   1.7692
  5.9741  3.2738  2.3874  2.3874  1.0069  1.0069  0.8522  0.8522  0.9900  0.9900
  0.7548  0.7548

 Free energy of the ion-electron system (eV)
  ---------------------------------------------------
  alpha Z        PSCENC =       134.83001543
  Ewald energy   TEWEN  =      8725.94318531
  -Hartree energ DENC   =    -14143.12665746
  -exchange      EXHF   =         0.00000000
  -V(xc)+E(xc)   XCENC  =      -326.66202200
  PAW double counting   =      6266.19761311    -5596.52891134
  entropy T*S    EENTRO =        -0.00439683
  eigenvalues    EBANDS =      -107.83811481
  atomic energy  EATOM  =      4905.68083858
  ---------------------------------------------------
  free energy    TOTEN  =      -141.50845001 eV

  energy without entropy =     -141.50405318  energy(sigma->0) =     -141.50625160


--------------------------------------------------------------------------------------------------------




----------------------------------------- Iteration    1(  18)  ---------------------------------------


    POTLOK:  cpu time    0.09: real time    0.09
    SETDIJ:  cpu time    0.09: real time    0.09
     EDDAV:  cpu time    5.92: real time    5.93
       DOS:  cpu time    0.00: real time    0.00
    CHARGE:  cpu time    0.35: real time    0.35
    MIXING:  cpu time    0.01: real time    0.01
    --------------------------------------------
      LOOP:  cpu time    6.47: real time    6.48

 eigenvalue-minimisations  :  4320
 total energy-change (2. order) : 0.1635447E-02  (-0.2292262E-03)
 number of electron      99.0000001 magnetization 
 augmentation part        6.3213263 magnetization 

 Broyden mixing:
  rms(total) = 0.68148E-02    rms(broyden)= 0.68136E-02
  rms(prec ) = 0.79687E-02
  weight for this iteration     100.00

 eigenvalues of (default mixing * dielectric matrix)
  average eigenvalue GAMMA=   1.8349
  7.4629  3.4027  2.4669  2.4669  1.0539  1.0539  0.8525  0.8525  1.0196  1.0196
  0.8450  0.7189  0.6387

 Free energy of the ion-electron system (eV)
  ---------------------------------------------------
  alpha Z        PSCENC =       134.83001543
  Ewald energy   TEWEN  =      8725.94318531
  -Hartree energ DENC   =    -14144.87831397
  -exchange      EXHF   =         0.00000000
  -V(xc)+E(xc)   XCENC  =      -326.64907084
  PAW double counting   =      6267.03291155    -5597.36964932
  entropy T*S    EENTRO =        -0.00440151
  eigenvalues    EBANDS =      -106.09232979
  atomic energy  EATOM  =      4905.68083858
  ---------------------------------------------------
  free energy    TOTEN  =      -141.50681456 eV

  energy without entropy =     -141.50241306  energy(sigma->0) =     -141.50461381


--------------------------------------------------------------------------------------------------------




----------------------------------------- Iteration    1(  19)  ---------------------------------------


    POTLOK:  cpu time    0.09: real time    0.09
    SETDIJ:  cpu time    0.09: real time    0.09
     EDDAV:  cpu time    5.44: real time    5.45
       DOS:  cpu time    0.00: real time    0.00
    CHARGE:  cpu time    0.36: real time    0.36
    MIXING:  cpu time    0.01: real time    0.01
    --------------------------------------------
      LOOP:  cpu time    5.99: real time    6.00

 eigenvalue-minimisations  :  3888
 total energy-change (2. order) : 0.5680110E-03  (-0.3391247E-03)
 number of electron      99.0000001 magnetization 
 augmentation part        6.3203215 magnetization 

 Broyden mixing:
  rms(total) = 0.47634E-02    rms(broyden)= 0.47613E-02
  rms(prec ) = 0.52417E-02
  weight for this iteration     100.00

 eigenvalues of (default mixing * dielectric matrix)
  average eigenvalue GAMMA=   1.9719
  8.9286  4.2028  2.5732  2.4749  1.2596  1.2596  0.9761  0.9761  0.8466  0.8466
  0.9184  0.9184  0.7131  0.7131

 Free energy of the ion-electron system (eV)
  ---------------------------------------------------
  alpha Z        PSCENC =       134.83001543
  Ewald energy   TEWEN  =      8725.94318531
  -Hartree energ DENC   =    -14146.05604750
  -exchange      EXHF   =         0.00000000
  -V(xc)+E(xc)   XCENC  =      -326.64057060
  PAW double counting   =      6266.61768248    -5596.95849246
  entropy T*S    EENTRO =        -0.00440417
  eigenvalues    EBANDS =      -104.91845362
  atomic energy  EATOM  =      4905.68083858
  ---------------------------------------------------
  free energy    TOTEN  =      -141.50624655 eV

  energy without entropy =     -141.50184239  energy(sigma->0) =     -141.50404447


--------------------------------------------------------------------------------------------------------




----------------------------------------- Iteration    1(  20)  ---------------------------------------


    POTLOK:  cpu time    0.09: real time    0.09
    SETDIJ:  cpu time    0.10: real time    0.10
     EDDAV:  cpu time    4.75: real time    4.76
       DOS:  cpu time    0.00: real time    0.00
    CHARGE:  cpu time    0.36: real time    0.36
    MIXING:  cpu time    0.01: real time    0.01
    --------------------------------------------
      LOOP:  cpu time    5.31: real time    5.32

 eigenvalue-minimisations  :  3320
 total energy-change (2. order) :-0.8430412E-04  (-0.3210569E-03)
 number of electron      99.0000001 magnetization 
 augmentation part        6.3198615 magnetization 

 Broyden mixing:
  rms(total) = 0.66585E-02    rms(broyden)= 0.66562E-02
  rms(prec ) = 0.68323E-02
  weight for this iteration     100.00

 eigenvalues of (default mixing * dielectric matrix)
  average eigenvalue GAMMA=   2.0204
  9.5103  4.7943  2.8439  2.4908  1.0866  1.0866  1.2355  1.2355  0.8489  0.8489
  0.9749  0.9749  0.9499  0.7123  0.7123

 Free energy of the ion-electron system (eV)
  ---------------------------------------------------
  alpha Z        PSCENC =       134.83001543
  Ewald energy   TEWEN  =      8725.94318531
  -Hartree energ DENC   =    -14146.48030966
  -exchange      EXHF   =         0.00000000
  -V(xc)+E(xc)   XCENC  =      -326.63631634
  PAW double counting   =      6264.81289544    -5595.15439212
  entropy T*S    EENTRO =        -0.00439984
  eigenvalues    EBANDS =      -104.49784765
  atomic energy  EATOM  =      4905.68083858
  ---------------------------------------------------
  free energy    TOTEN  =      -141.50633086 eV

  energy without entropy =     -141.50193102  energy(sigma->0) =     -141.50413094


--------------------------------------------------------------------------------------------------------




----------------------------------------- Iteration    1(  21)  ---------------------------------------


    POTLOK:  cpu time    0.09: real time    0.09
    SETDIJ:  cpu time    0.10: real time    0.10
     EDDAV:  cpu time    4.42: real time    4.43
       DOS:  cpu time    0.00: real time    0.00
    CHARGE:  cpu time    0.36: real time    0.36
    MIXING:  cpu time    0.01: real time    0.01
    --------------------------------------------
      LOOP:  cpu time    4.98: real time    4.99

 eigenvalue-minimisations  :  3000
 total energy-change (2. order) : 0.9872653E-05  (-0.1343227E-03)
 number of electron      99.0000001 magnetization 
 augmentation part        6.3206854 magnetization 

 Broyden mixing:
  rms(total) = 0.51378E-02    rms(broyden)= 0.51368E-02
  rms(prec ) = 0.52562E-02
  weight for this iteration     100.00

 eigenvalues of (default mixing * dielectric matrix)
  average eigenvalue GAMMA=   1.9797
 10.4170  4.8956  2.8868  2.5066  1.0710  1.0710  1.2530  1.2530  0.8483  0.8483
  0.9675  0.9675  0.8983  0.7301  0.6863  0.3755

 Free energy of the ion-electron system (eV)
  ---------------------------------------------------
  alpha Z        PSCENC =       134.83001543
  Ewald energy   TEWEN  =      8725.94318531
  -Hartree energ DENC   =    -14146.34193415
  -exchange      EXHF   =         0.00000000
  -V(xc)+E(xc)   XCENC  =      -326.64295039
  PAW double counting   =      6262.06108272    -5592.39918940
  entropy T*S    EENTRO =        -0.00439721
  eigenvalues    EBANDS =      -104.63297188
  atomic energy  EATOM  =      4905.68083858
  ---------------------------------------------------
  free energy    TOTEN  =      -141.50632099 eV

  energy without entropy =     -141.50192377  energy(sigma->0) =     -141.50412238


--------------------------------------------------------------------------------------------------------




----------------------------------------- Iteration    1(  22)  ---------------------------------------


    POTLOK:  cpu time    0.09: real time    0.09
    SETDIJ:  cpu time    0.10: real time    0.10
     EDDAV:  cpu time    4.40: real time    4.41
       DOS:  cpu time    0.00: real time    0.00
    CHARGE:  cpu time    0.36: real time    0.36
    MIXING:  cpu time    0.01: real time    0.01
    --------------------------------------------
      LOOP:  cpu time    4.96: real time    4.96

 eigenvalue-minimisations  :  2984
 total energy-change (2. order) : 0.4272593E-04  (-0.2688697E-04)
 number of electron      99.0000001 magnetization 
 augmentation part        6.3209266 magnetization 

 Broyden mixing:
  rms(total) = 0.23304E-02    rms(broyden)= 0.23297E-02
  rms(prec ) = 0.23874E-02
  weight for this iteration     100.00

 eigenvalues of (default mixing * dielectric matrix)
  average eigenvalue GAMMA=   2.7183
 21.2787  6.3473  2.8413  2.5336  1.9857  0.9850  0.9850  0.9322  0.9322  0.8523
  0.8523  1.1919  1.0968  0.9851  0.9851  0.7130  0.7130

 Free energy of the ion-electron system (eV)
  ---------------------------------------------------
  alpha Z        PSCENC =       134.83001543
  Ewald energy   TEWEN  =      8725.94318531
  -Hartree energ DENC   =    -14146.19012165
  -exchange      EXHF   =         0.00000000
  -V(xc)+E(xc)   XCENC  =      -326.64547332
  PAW double counting   =      6260.69636043    -5591.03362362
  entropy T*S    EENTRO =        -0.00439678
  eigenvalues    EBANDS =      -104.78306264
  atomic energy  EATOM  =      4905.68083858
  ---------------------------------------------------
  free energy    TOTEN  =      -141.50627826 eV

  energy without entropy =     -141.50188148  energy(sigma->0) =     -141.50407987


--------------------------------------------------------------------------------------------------------




----------------------------------------- Iteration    1(  23)  ---------------------------------------


    POTLOK:  cpu time    0.09: real time    0.09
    SETDIJ:  cpu time    0.10: real time    0.10
     EDDAV:  cpu time    4.32: real time    4.33
       DOS:  cpu time    0.00: real time    0.00
    CHARGE:  cpu time    0.35: real time    0.35
    MIXING:  cpu time    0.01: real time    0.01
    --------------------------------------------
      LOOP:  cpu time    4.87: real time    4.88

 eigenvalue-minimisations  :  2912
 total energy-change (2. order) : 0.1003700E-04  (-0.7175905E-05)
 number of electron      99.0000001 magnetization 
 augmentation part        6.3207060 magnetization 

 Broyden mixing:
  rms(total) = 0.17257E-02    rms(broyden)= 0.17254E-02
  rms(prec ) = 0.17721E-02
  weight for this iteration     100.00

 eigenvalues of (default mixing * dielectric matrix)
  average eigenvalue GAMMA=   2.6991
 22.9355  5.8487  2.8183  2.4309  2.4309  0.9544  0.9544  1.1692  1.1692  0.9266
  0.9266  0.8574  0.8574  0.9636  0.9636  0.9547  0.7110  0.7110

 Free energy of the ion-electron system (eV)
  ---------------------------------------------------
  alpha Z        PSCENC =       134.83001543
  Ewald energy   TEWEN  =      8725.94318531
  -Hartree energ DENC   =    -14146.28221829
  -exchange      EXHF   =         0.00000000
  -V(xc)+E(xc)   XCENC  =      -326.64347999
  PAW double counting   =      6260.39447938    -5590.73158153
  entropy T*S    EENTRO =        -0.00439597
  eigenvalues    EBANDS =      -104.69311114
  atomic energy  EATOM  =      4905.68083858
  ---------------------------------------------------
  free energy    TOTEN  =      -141.50626822 eV

  energy without entropy =     -141.50187226  energy(sigma->0) =     -141.50407024


--------------------------------------------------------------------------------------------------------




----------------------------------------- Iteration    1(  24)  ---------------------------------------


    POTLOK:  cpu time    0.09: real time    0.09
    SETDIJ:  cpu time    0.09: real time    0.09
     EDDAV:  cpu time    3.36: real time    3.37
       DOS:  cpu time    0.00: real time    0.00
    --------------------------------------------
      LOOP:  cpu time    3.55: real time    3.56

 eigenvalue-minimisations  :  2104
 total energy-change (2. order) : 0.5899487E-05  (-0.2240212E-05)
 number of electron      99.0000001 magnetization 
 augmentation part        6.3207060 magnetization 

 Free energy of the ion-electron system (eV)
  ---------------------------------------------------
  alpha Z        PSCENC =       134.83001543
  Ewald energy   TEWEN  =      8725.94318531
  -Hartree energ DENC   =    -14146.30951316
  -exchange      EXHF   =         0.00000000
  -V(xc)+E(xc)   XCENC  =      -326.64470225
  PAW double counting   =      6260.09507960    -5590.43128717
  entropy T*S    EENTRO =        -0.00439514
  eigenvalues    EBANDS =      -104.66548352
  atomic energy  EATOM  =      4905.68083858
  ---------------------------------------------------
  free energy    TOTEN  =      -141.50626232 eV

  energy without entropy =     -141.50186718  energy(sigma->0) =     -141.50406475


--------------------------------------------------------------------------------------------------------




 average (electrostatic) potential at core
  the test charge radii are     0.7215  1.0714  1.0406
  (the norm of the test charge is              1.0000)
       1 -69.4706       2 -68.7443       3 -68.7538       4 -68.7605       5 -68.7772
       6 -68.7765       7 -69.4743       8 -68.7477       9 -68.7699      10 -68.7646
      11 -34.3966      12 -34.4128      13 -34.4228      14 -34.4012      15 -34.4056
      16 -34.4229      17 -34.3953      18 -34.4229      19 -34.4137      20 -75.7168
      21 -75.2998      22 -75.7180      23 -75.6468      24 -75.2996      25 -75.6467
      26 -75.7178
 
 
 
 E-fermi :   5.0838     XC(G=0): -10.4076     alpha+bet :-12.7985


 k-point     1 :       0.0000    0.0000    0.0000
  band No.  band energies     occupation 
      1     -13.4235      2.00000
      2     -13.4173      2.00000
      3     -12.9896      2.00000
      4     -12.8876      2.00000
      5     -12.7382      2.00000
      6     -12.5607      2.00000
      7     -12.3739      2.00000
      8     -12.1967      2.00000
      9     -12.0525      2.00000
     10     -11.9562      2.00000
     11      -5.1422      2.00000
     12      -4.7778      2.00000
     13      -4.2197      2.00000
     14      -3.3475      2.00000
     15      -2.3146      2.00000
     16      -1.3542      2.00000
     17      -0.6453      2.00000
     18      -0.3316      2.00000
     19      -0.1627      2.00000
     20       0.3855      2.00000
[...]
 k-point    19 :       0.3077    0.2308   -0.0000
  band No.  band energies     occupation 
      1     -12.6840      2.00000
      2     -12.6770      2.00000
      3     -11.8494      2.00000
      4     -11.8294      2.00000
      5     -11.7953      2.00000
      6     -11.7558      2.00000
      7     -11.7135      2.00000
      8     -11.6745      2.00000
      9     -11.6438      2.00000
     10     -11.6212      2.00000
     11      -0.4235      2.00000
     12      -0.3311      2.00000
     13      -0.1046      2.00000
     14       0.0712      2.00000
     15       0.1086      2.00000
     16       0.2401      2.00000
     17       0.3357      2.00000
     18       0.4211      2.00000
     19       0.4606      2.00000
     20       0.5346      2.00000
     21       0.5567      2.00000
     22       0.7133      2.00000
     23       0.9188      2.00000
     24       0.9510      2.00000
     25       1.1046      2.00000
     26       1.4158      2.00000
     27       1.5749      2.00000
     28       1.5885      2.00000
     29       1.6028      2.00000
     30       1.7509      2.00000
     31       1.7813      2.00000
     32       1.9463      2.00000
     33       1.9996      2.00000
     34       2.1272      2.00000
     35       2.1800      2.00000
     36       2.3154      2.00000
     37       2.4087      2.00000
     38       2.5742      2.00000
     39       2.7099      2.00000
     40       2.8100      2.00000
     41       2.8827      2.00000
     42       2.9196      2.00000
     43       2.9650      2.00000
     44       3.0031      2.00000
     45       3.0757      2.00000
     46       3.1798      2.00000
     47       3.3148      2.00000
     48       3.7759      2.00000
     49       4.2364      2.00000
     50       4.4953      2.00000
     51       4.8042      2.00000
     52       4.9816      1.99998
     53       5.3879      0.00000
     54       5.8902      0.00000
     55       6.1409      0.00000
     56       6.5259      0.00000
     57       7.3255      0.00000
     58       7.6885      0.00000
     59       7.8334      0.00000
     60       8.9065      0.00000
     61       8.9800      0.00000
     62       9.6098      0.00000
     63      10.4547      0.00000
     64      10.5481      0.00000

 k-point    20 :       0.3846    0.2308   -0.0000
  band No.  band energies     occupation 
      1     -12.6487      2.00000
      2     -12.6417      2.00000
      3     -11.7581      2.00000
      4     -11.7490      2.00000
      5     -11.7319      2.00000
      6     -11.7120      2.00000
      7     -11.6896      2.00000
      8     -11.6683      2.00000
      9     -11.6513      2.00000
     10     -11.6373      2.00000
     11      -0.0584      2.00000
     12      -0.0511      2.00000
     13       0.1192      2.00000
     14       0.1276      2.00000
     15       0.1831      2.00000
     16       0.3603      2.00000
     17       0.5607      2.00000
     18       0.5673      2.00000
     19       0.6151      2.00000
     20       0.6572      2.00000
     21       0.8600      2.00000
     22       0.8698      2.00000
     23       1.2062      2.00000
     24       1.2184      2.00000
     25       1.4183      2.00000
     26       1.4337      2.00000
     27       1.5430      2.00000
     28       1.5943      2.00000
     29       1.6131      2.00000
     30       1.6457      2.00000
     31       1.6593      2.00000
     32       1.6748      2.00000
     33       1.7501      2.00000
     34       1.9527      2.00000
     35       2.0216      2.00000
     36       2.2105      2.00000
     37       2.2295      2.00000
     38       2.3276      2.00000
     39       2.6099      2.00000
     40       2.6138      2.00000
     41       2.6840      2.00000
     42       2.7352      2.00000
     43       2.8620      2.00000
     44       2.9709      2.00000
     45       3.0362      2.00000
     46       3.0519      2.00000
     47       3.0674      2.00000
     48       3.2142      2.00000
     49       4.0690      2.00000
     50       4.3804      2.00000
     51       4.6213      2.00000
     52       4.7309      2.00000
     53       5.1292      1.12113
     54       5.6524      0.00000
     55       5.7804      0.00000
     56       6.5928      0.00000
     57       7.2601      0.00000
     58       7.3343      0.00000
     59       7.8874      0.00000
     60       8.6700      0.00000
     61       8.7643      0.00000
     62       9.4510      0.00000
     63      10.2371      0.00000
     64      10.4772      0.00000

 k-point    21 :       0.3077    0.3077   -0.0000
  band No.  band energies     occupation 
      1     -12.6334      2.00000
      2     -12.6264      2.00000
      3     -11.7248      2.00000
      4     -11.7178      2.00000
      5     -11.7049      2.00000
      6     -11.6907      2.00000
      7     -11.6753      2.00000
      8     -11.6613      2.00000
      9     -11.6508      2.00000
     10     -11.6411      2.00000
     11       0.0760      2.00000
     12       0.0821      2.00000
     13       0.3309      2.00000
     14       0.3375      2.00000
     15       0.4991      2.00000
     16       0.5123      2.00000
     17       0.6172      2.00000
     18       0.6412      2.00000
     19       0.7143      2.00000
     20       0.8112      2.00000
     21       0.8780      2.00000
     22       1.0041      2.00000
     23       1.0929      2.00000
     24       1.1061      2.00000
     25       1.1381      2.00000
     26       1.2904      2.00000
     27       1.3191      2.00000
     28       1.3284      2.00000
     29       1.4882      2.00000
     30       1.5244      2.00000
     31       1.6057      2.00000
     32       1.7072      2.00000
     33       1.7692      2.00000
     34       1.8832      2.00000
     35       2.1737      2.00000
     36       2.5848      2.00000
     37       2.6701      2.00000
     38       2.6826      2.00000
     39       2.6911      2.00000
     40       2.7853      2.00000
     41       2.8237      2.00000
     42       2.8680      2.00000
     43       2.8738      2.00000
     44       2.9012      2.00000
     45       3.0135      2.00000
     46       3.0368      2.00000
     47       3.0888      2.00000
     48       3.0987      2.00000
     49       3.6104      2.00000
     50       3.6324      2.00000
     51       3.9758      2.00000
     52       4.3551      2.00000
     53       4.8292      2.00000
     54       5.4536      0.00000
     55       5.8519      0.00000
     56       6.1677      0.00000
     57       7.0114      0.00000
     58       7.3580      0.00000
     59       7.3885      0.00000
     60       8.5786      0.00000
     61       8.9142      0.00000
     62       9.0344      0.00000
     63      10.0846      0.00000
     64      10.6540      0.00000


--------------------------------------------------------------------------------------------------------


 soft charge-density along one line, spin component           1
         0         1         2         3         4         5         6         7         8         9
 total charge-density along one line
 
 pseudopotential strength for first ion, spin component:           1
 12.078   0.000 -14.687   0.000  -0.000   0.000   0.023   0.000   0.000   0.000   0.000   0.000  -0.029   0.000  -0.000   0.000
-14.687   0.000  17.878   0.000   0.000   0.000  -0.029   0.000  -0.000   0.000  -0.000   0.000   0.037   0.000   0.000   0.000
 -0.000   0.000   0.000   0.000  -8.166   0.000  -0.000   0.000   0.000   0.000   9.746   0.000   0.000   0.000  -0.000   0.000
  0.023   0.000  -0.029   0.000  -0.000   0.000  -8.227   0.000   0.000   0.000   0.000   0.000   9.828   0.000  -0.000   0.000
  0.000   0.000  -0.000   0.000   0.000   0.000   0.000   0.000  -8.166   0.000  -0.000   0.000  -0.000   0.000   9.746   0.000
  0.000   0.000  -0.000   0.000   9.746   0.000   0.000   0.000  -0.000   0.000 -11.462   0.000  -0.000   0.000   0.000   0.000
 -0.029   0.000   0.037   0.000   0.000   0.000   9.828   0.000  -0.000   0.000  -0.000   0.000 -11.573   0.000   0.000   0.000
 -0.000   0.000   0.000   0.000  -0.000   0.000  -0.000   0.000   9.746   0.000   0.000   0.000   0.000   0.000 -11.462   0.000
 total augmentation occupancy for first ion, spin component:           1
  2.644   0.380   0.000  -0.078  -0.000   0.000  -0.032  -0.000
  0.380   0.077   0.000  -0.073  -0.000   0.000  -0.016  -0.000
  0.000   0.000   2.126  -0.000   0.000   0.234  -0.000   0.000
 -0.078  -0.073  -0.000   2.244   0.000  -0.000   0.315   0.000
 -0.000  -0.000   0.000   0.000   2.126   0.000   0.000   0.234
  0.000   0.000   0.234  -0.000   0.000   0.028  -0.000   0.000
 -0.032  -0.016  -0.000   0.315   0.000  -0.000   0.048   0.000
 -0.000  -0.000   0.000   0.000   0.234   0.000   0.000   0.028


------------------------ aborting loop because EDIFF is reached ----------------------------------------


    CHARGE:  cpu time    0.37: real time    0.37
    FORLOC:  cpu time    0.03: real time    0.04
    FORNL :  cpu time    2.89: real time    2.89
    STRESS:  cpu time    3.89: real time    3.90
    FORCOR:  cpu time    0.13: real time    0.13
    FORHAR:  cpu time    0.05: real time    0.05
    MIXING:  cpu time    0.00: real time    0.00
    OFIELD:  cpu time    0.00: real time    0.00

  FORCE on cell =-STRESS in cart. coord.  units (eV):
  Direction    XX          YY          ZZ          XY          YZ          ZX
  --------------------------------------------------------------------------------------
  Alpha Z   134.83002   134.83002   134.83002
  Ewald   11772.80695 11772.80729-14361.97897    -0.00003    -0.00000    -0.00014
  Hartree 13642.69299 13642.69290-12681.64281    -0.00000    -0.00000     0.00004
  E(xc)    -414.56850  -414.56852  -414.88379    -0.00000     0.00000    -0.00000
  Local  -26645.32118-26645.32065 25823.31978    -0.00019    -0.00000     0.00004
  n-local   -60.14342   -75.39473   -57.21561     3.20512    -1.48538     4.78867
  augment    61.10863    61.10838    59.30664     0.00018     0.00000     0.00000
  Kinetic  1521.46514  1503.28605  1484.77681    -2.07697    -0.67085     0.94176
  Fock        0.00000     0.00000     0.00000     0.00000     0.00000     0.00000
  -------------------------------------------------------------------------------------
  Total      -3.84432    -3.84431   -13.48793     0.00000     0.00000    -0.00000
  in kB     -19.67827   -19.67826   -69.04196     0.00000     0.00000    -0.00000
  external pressure =      -36.13 kB  Pullay stress =        0.00 kB


 VOLUME and BASIS-vectors are now :
 -----------------------------------------------------------------------------
  energy-cutoff  :      520.00
  volume of cell :      313.00
      direct lattice vectors                 reciprocal lattice vectors
     2.600457673 -1.501374484  0.000000000     0.384547693  0.000000000 -0.000000000
     0.000000000  3.002748968  0.000000000     0.192273847  0.333028172 -0.000000000
     0.000000000 -0.000000000 40.084269123     0.000000000  0.000000000  0.024947443

  length of vectors
     3.002749648  3.002748968 40.084269123     0.384547693  0.384547781  0.024947443


 FORCES acting on ions
    electron-ion (+dipol)            ewald-force                    non-local-force                 convergence-correction
 -----------------------------------------------------------------------------------------------
   0.230E-05 -.455E-06 0.113E+04   0.238E-04 -.265E-04 -.112E+04   -.159E-15 0.316E-16 -.932E+01   -.329E-08 0.516E-08 -.797E-01
   0.106E-02 -.184E-02 0.884E+03   0.573E-04 -.979E-04 -.884E+03   -.219E-18 -.441E-18 0.180E-01   -.185E-08 0.364E-08 -.825E-01
   0.311E-08 -.363E-09 0.379E+03   0.506E-07 -.582E-07 -.379E+03   -.196E-18 0.299E-19 -.109E-01   0.126E-08 -.162E-08 -.732E-02
   0.107E-02 -.185E-02 0.126E+03   0.560E-04 -.970E-04 -.126E+03   0.334E-18 -.486E-19 0.192E-01   0.158E-08 -.270E-08 0.351E-01
   -.364E-08 0.492E-09 -.379E+03   -.691E-07 0.793E-07 0.379E+03   0.117E-18 -.164E-19 0.668E-02   -.682E-09 0.890E-09 0.701E-01
   0.107E-02 -.185E-02 -.631E+03   0.560E-04 -.971E-04 0.631E+03   0.789E-19 -.185E-19 0.382E-02   0.108E-08 -.163E-08 0.704E-01
   -.231E-05 0.456E-06 -.113E+04   -.238E-04 0.265E-04 0.112E+04   0.166E-15 -.247E-16 0.934E+01   0.110E-08 -.185E-08 0.510E-01
   -.107E-02 0.185E-02 0.631E+03   -.560E-04 0.971E-04 -.631E+03   -.817E-19 0.291E-19 -.478E-02   -.104E-07 0.177E-07 -.554E-01
   -.107E-02 0.185E-02 -.126E+03   -.560E-04 0.970E-04 0.126E+03   -.567E-18 0.945E-19 -.317E-01   0.284E-09 -.107E-09 0.600E-01
   -.106E-02 0.184E-02 -.884E+03   -.573E-04 0.980E-04 0.884E+03   -.176E-18 0.964E-20 -.232E-01   -.227E-08 0.340E-08 0.620E-01
   0.282E-07 0.130E-07 0.252E+03   -.112E-06 0.125E-06 -.252E+03   0.150E-18 -.593E-20 0.143E-01   0.594E-09 -.114E-08 -.235E-01
   0.598E-08 -.201E-07 -.125E-01   0.183E-07 -.206E-07 -.902E-03   -.491E-19 0.120E-20 -.290E-02   0.239E-09 -.397E-09 0.163E-01
   -.313E-07 0.206E-07 -.252E+03   0.569E-07 -.637E-07 0.252E+03   -.506E-19 0.336E-20 -.808E-02   -.522E-09 0.919E-09 0.219E-01
   0.475E-04 -.796E-04 0.340E+03   -.530E-04 0.877E-04 -.340E+03   0.161E-17 0.343E-17 0.105E+00   -.249E-08 0.430E-08 -.282E-01
   0.428E-04 -.742E-04 0.841E+02   -.481E-04 0.834E-04 -.841E+02   0.646E-19 -.148E-20 0.357E-02   0.712E-09 -.125E-08 0.516E-02
   0.428E-04 -.742E-04 -.168E+03   -.481E-04 0.834E-04 0.168E+03   0.457E-19 -.268E-18 -.758E-02   0.144E-08 -.255E-08 0.240E-01
   -.428E-04 0.742E-04 0.168E+03   0.481E-04 -.834E-04 -.168E+03   0.113E-18 -.568E-19 0.611E-02   -.108E-08 0.194E-08 -.109E-01
   -.429E-04 0.742E-04 -.841E+02   0.481E-04 -.834E-04 0.841E+02   -.116E-18 -.512E-19 -.725E-02   -.825E-09 0.149E-08 0.217E-01
   -.475E-04 0.796E-04 -.340E+03   0.530E-04 -.878E-04 0.340E+03   -.116E-17 -.343E-17 -.998E-01   -.451E-09 0.833E-09 0.190E-01
   -.950E-10 0.183E-09 0.195E-01   -.391E-10 0.389E-10 -.724E-02   -.747E-21 0.169E-20 0.161E-04   0.113E-11 -.932E-12 -.122E-01
   -.527E-06 -.458E-07 0.626E+03   0.235E-05 -.217E-05 -.621E+03   -.841E-16 -.257E-16 -.505E+01   -.545E-10 0.629E-10 -.329E-01
   0.154E-04 -.264E-04 0.405E+03   -.313E-05 0.511E-05 -.406E+03   0.550E-18 -.140E-16 0.189E+00   -.226E-10 0.304E-10 -.268E-01
   -.146E-04 0.253E-04 0.199E+03   0.291E-05 -.492E-05 -.200E+03   -.117E-16 0.138E-16 0.145E+00   0.140E-10 -.311E-10 -.201E-01
   0.527E-06 0.463E-07 -.626E+03   -.235E-05 0.217E-05 0.621E+03   0.840E-16 -.298E-16 0.503E+01   0.160E-10 -.193E-10 0.188E-01
   0.146E-04 -.253E-04 -.199E+03   -.291E-05 0.492E-05 0.200E+03   -.736E-17 0.604E-19 -.145E+00   -.233E-10 0.451E-10 -.329E-02
   -.154E-04 0.264E-04 -.405E+03   0.313E-05 -.511E-05 0.406E+03   -.545E-18 0.779E-19 -.187E+00   0.320E-10 -.466E-10 0.747E-02
 -----------------------------------------------------------------------------------------------
   0.328E-07 -.374E-07 -.753E-01   -.110E-12 0.198E-13 -.102E-11   -.123E-16 -.493E-16 -.249E-01   -.156E-07 0.271E-07 0.100E+00
 
 
 POSITION                                       TOTAL-FORCE (eV/Angst)
 -----------------------------------------------------------------------------------
      0.00000     -0.00000      9.91396         0.000000     -0.000000      0.018737
      0.86682      1.50138     12.32148        -0.000000     -0.000000     -0.007848
      0.00000     -0.00000     17.32966        -0.000000      0.000000     -0.007315
      0.86682      1.50138     19.83249         0.000000     -0.000000      0.012455
      0.00000     -0.00000     24.84189         0.000000     -0.000000      0.007380
      0.86682      1.50138     27.34567         0.000000      0.000000      0.008442
      0.00000     -0.00000     32.25733        -0.000000      0.000000     -0.000641
      1.73364     -0.00000     14.82608        -0.000000      0.000000     -0.010058
      1.73364     -0.00000     22.33902        -0.000000      0.000000     -0.014352
      1.73364     -0.00000     29.85055         0.000000     -0.000000      0.001645
      0.00000     -0.00000     13.57261         0.000000     -0.000000      0.010103
      0.00000     -0.00000     21.08595         0.000000      0.000000      0.000031
      0.00000     -0.00000     28.59868        -0.000000      0.000000     -0.003537
      1.73364     -0.00000     11.06462         0.000000     -0.000000      0.015074
      1.73364     -0.00000     18.58080         0.000000     -0.000000      0.008014
      1.73364     -0.00000     26.09452        -0.000000      0.000000     -0.004308
      0.86682      1.50138     16.07723         0.000000      0.000000      0.002551
      0.86682      1.50138     23.59098        -0.000000      0.000000     -0.006720
      0.86682      1.50138     31.10665        -0.000000      0.000000     -0.013943
      0.00000     -0.00000      1.04373         0.000000      0.000000      0.000056
      0.00000     -0.00000      8.17987        -0.000000      0.000000     -0.014714
      1.73364     -0.00000      5.83641         0.000000      0.000000      0.001076
      0.86682      1.50138      3.42001         0.000000      0.000000      0.000837
      0.00000     -0.00000     33.99198        -0.000000      0.000000     -0.001455
      1.73364     -0.00000     38.75170        -0.000000      0.000000     -0.000859
      0.86682      1.50138     36.33521        -0.000000      0.000000     -0.000649
 -----------------------------------------------------------------------------------
    total drift:                                0.000000     -0.000000     -0.000201


--------------------------------------------------------------------------------------------------------



  FREE ENERGIE OF THE ION-ELECTRON SYSTEM (eV)
  ---------------------------------------------------
  free  energy   TOTEN  =      -141.51917503 eV

  energy  without entropy=     -141.51512708  energy(sigma->0) =     -141.51715106
 
 d Force = 0.7714497E-04[-0.965E-05, 0.164E-03]  d Energy = 0.4902522E-04 0.281E-04
 d Force =-0.9234813E+01[-0.924E+01,-0.923E+01]  d Ewald  =-0.9234819E+01 0.623E-05


--------------------------------------------------------------------------------------------------------


    POTLOK:  cpu time    0.19: real time    0.19


--------------------------------------------------------------------------------------------------------


 Conjugate gradient step on ions:
 trial-energy change:   -0.000049  1 .order   -0.000077   -0.000164    0.000010
  (g-gl).g = 0.101E-03      g.g   = 0.138E-03  gl.gl    = 0.245E-03
 g(Force)  = 0.138E-03   g(Stress)= 0.000E+00 ortho     =-0.180E-05
 gamma     =   0.41498
 trial     =   1.19480
 opt step  =   1.12839  (harmonic =   1.12839) maximal distance =0.00229306
 next E    =  -141.519203   (d E  =  -0.00008)


--------------------------------------------------------------------------------------------------------


  
 reached required accuracy - stopping structural energy minimisation
     LOOP+:  cpu time   31.92: real time   31.97
    4ORBIT:  cpu time    0.00: real time    0.00

 total amount of memory used by VASP on root node   140546. kBytes
========================================================================

   base      :      30000. kBytes
   nonl-proj :      14674. kBytes
   fftplans  :      51727. kBytes
   grid      :      20736. kBytes
   one-center:         56. kBytes
   wavefun   :      23353. kBytes
 
  
  
 General timing and accounting informations for this job:
 ========================================================
  
                  Total CPU time used (sec):     1536.800
                            User time (sec):     1516.722
                          System time (sec):       20.079
                         Elapsed time (sec):     1538.731
  
                   Maximum memory used (kb):      242508.
                   Average memory used (kb):           0.
  
                          Minor page faults:       356343
                          Major page faults:            0
                 Voluntary context switches:          277
