       N       E                     dE             d eps       ncg     rms          rms(c)
DAV:   1     0.527507500892E+03    0.52751E+03   -0.43896E+04  2696   0.134E+03
DAV:   2    -0.958044878582E+02   -0.62331E+03   -0.59259E+03  3504   0.263E+02
DAV:   3    -0.156918139671E+03   -0.61114E+02   -0.60800E+02  3176   0.892E+01
DAV:   4    -0.157881636903E+03   -0.96350E+00   -0.96173E+00  3184   0.122E+01
DAV:   5    -0.157901061332E+03   -0.19424E-01   -0.19415E-01  3216   0.170E+00    0.237E+01
DAV:   6    -0.140490415729E+03    0.17411E+02   -0.92337E+01  3072   0.328E+01    0.788E+00
DAV:   7    -0.140457884183E+03    0.32532E-01   -0.32384E+00  2992   0.620E+00    0.495E+00
DAV:   8    -0.140292770390E+03    0.16511E+00   -0.76332E-01  3048   0.442E+00    0.141E+00
DAV:   9    -0.140247699487E+03    0.45071E-01   -0.15133E-01  3120   0.193E+00    0.697E-01
DAV:  10    -0.140239930588E+03    0.77689E-02   -0.64998E-02  3056   0.839E-01    0.339E-01
DAV:  11    -0.140231454241E+03    0.84763E-02   -0.27532E-02  3088   0.741E-01    0.278E-01
DAV:  12    -0.140224954962E+03    0.64993E-02   -0.58634E-03  3440   0.472E-01    0.191E-01
DAV:  13    -0.140211718378E+03    0.13237E-01   -0.13813E-02  4352   0.104E+00    0.117E-01
DAV:  14    -0.140208332543E+03    0.33858E-02   -0.10078E-02  3120   0.514E-01    0.170E-01
DAV:  15    -0.140201432547E+03    0.69000E-02   -0.68392E-03  3752   0.724E-01    0.114E-01
DAV:  16    -0.140192462805E+03    0.89697E-02   -0.13354E-02  3744   0.142E+00    0.264E-01
DAV:  17    -0.140189833520E+03    0.26293E-02   -0.10636E-02  3096   0.606E-01    0.177E-01
DAV:  18    -0.140187093277E+03    0.27402E-02   -0.14994E-02  3320   0.911E-01    0.142E-01
DAV:  19    -0.140185840122E+03    0.12532E-02   -0.58818E-03  3336   0.627E-01    0.139E-01
DAV:  20    -0.140184444615E+03    0.13955E-02   -0.41391E-03  3664   0.626E-01    0.357E-02
DAV:  21    -0.140183512999E+03    0.93162E-03   -0.26561E-03  4256   0.829E-01    0.403E-02
DAV:  22    -0.140183756884E+03   -0.24389E-03   -0.35962E-03  2992   0.319E-01    0.634E-02
DAV:  23    -0.140183802860E+03   -0.45976E-04   -0.76923E-04  2792   0.997E-02    0.675E-02
DAV:  24    -0.140183744339E+03    0.58521E-04   -0.13176E-04  2832   0.599E-02    0.399E-02
DAV:  25    -0.140183730772E+03    0.13568E-04   -0.87178E-05  2720   0.349E-02    0.221E-02
DAV:  26    -0.140183724616E+03    0.61559E-05   -0.37869E-05  2504   0.245E-02
   1 F= -.14018372E+03 E0= -.14018108E+03  d E =-.140184E+03
       N       E                     dE             d eps       ncg     rms          rms(c)
DAV:   1    -0.140180590514E+03    0.31403E-02   -0.18025E+00  2704   0.496E+00    0.287E-01
DAV:   2    -0.140184800593E+03   -0.42101E-02   -0.70601E-02  3032   0.791E-01    0.236E-01
DAV:   3    -0.140183024547E+03    0.17760E-02   -0.36487E-03  3080   0.221E-01    0.155E-01
DAV:   4    -0.140182204708E+03    0.81984E-03   -0.17478E-03  3040   0.169E-01    0.834E-02
DAV:   5    -0.140181681760E+03    0.52295E-03   -0.58241E-04  3184   0.157E-01    0.364E-02
DAV:   6    -0.140181438357E+03    0.24340E-03   -0.41632E-04  3120   0.125E-01    0.194E-02
DAV:   7    -0.140181283473E+03    0.15488E-03   -0.20312E-04  3584   0.110E-01    0.160E-02
DAV:   8    -0.140181170816E+03    0.11266E-03   -0.10880E-04  3256   0.871E-02    0.126E-02
DAV:   9    -0.140181119743E+03    0.51073E-04   -0.74772E-05  2848   0.549E-02    0.989E-03
DAV:  10    -0.140181052338E+03    0.67405E-04   -0.35023E-05  2480   0.756E-02    0.104E-02
DAV:  11    -0.140180981253E+03    0.71085E-04   -0.93363E-05  3440   0.117E-01    0.102E-02
DAV:  12    -0.140180971369E+03    0.98842E-05   -0.10030E-04  2680   0.523E-02    0.810E-03
DAV:  13    -0.140180943079E+03    0.28290E-04   -0.91097E-06  1960   0.629E-02    0.433E-03
DAV:  14    -0.140180908158E+03    0.34921E-04   -0.71597E-05  3120   0.126E-01    0.769E-03
DAV:  15    -0.140180909636E+03   -0.14780E-05   -0.61836E-05  2472   0.336E-02
   2 F= -.14018091E+03 E0= -.14017853E+03  d E =0.281498E-02
       N       E                     dE             d eps       ncg     rms          rms(c)
DAV:   1    -0.140187955609E+03   -0.70475E-02   -0.56158E-01  2688   0.278E+00    0.162E-01
DAV:   2    -0.140189248533E+03   -0.12929E-02   -0.21426E-02  3040   0.451E-01    0.133E-01
DAV:   3    -0.140188646771E+03    0.60176E-03   -0.14073E-03  3048   0.127E-01    0.884E-02
DAV:   4    -0.140188364826E+03    0.28195E-03   -0.51840E-04  3064   0.945E-02    0.484E-02
DAV:   5    -0.140188190998E+03    0.17383E-03   -0.18122E-04  3136   0.937E-02    0.207E-02
DAV:   6    -0.140188116248E+03    0.74750E-04   -0.14196E-04  3112   0.747E-02    0.112E-02
DAV:   7    -0.140188066391E+03    0.49857E-04   -0.67771E-05  3184   0.680E-02    0.882E-03
DAV:   8    -0.140188038276E+03    0.28116E-04   -0.46249E-05  2840   0.477E-02    0.812E-03
DAV:   9    -0.140188026256E+03    0.12020E-04   -0.23855E-05  2392   0.252E-02    0.589E-03
DAV:  10    -0.140188006766E+03    0.19490E-04   -0.88352E-06  1872   0.379E-02    0.543E-03
DAV:  11    -0.140187989525E+03    0.17241E-04   -0.23675E-05  2376   0.530E-02    0.719E-03
DAV:  12    -0.140187984221E+03    0.53042E-05   -0.24304E-05  2216   0.291E-02
   3 F= -.14018798E+03 E0= -.14018550E+03  d E =-.425961E-02
       N       E                     dE             d eps       ncg     rms          rms(c)
DAV:   1    -0.140188980735E+03   -0.99121E-03   -0.12586E-01  2752   0.141E+00    0.590E-02
DAV:   2    -0.140189258495E+03   -0.27776E-03   -0.32928E-03  3016   0.199E-01    0.417E-02
DAV:   3    -0.140189206418E+03    0.52077E-04   -0.12924E-04  2920   0.346E-02    0.263E-02
DAV:   4    -0.140189191523E+03    0.14895E-04   -0.44454E-05  2552   0.236E-02    0.183E-02
DAV:   5    -0.140189169011E+03    0.22512E-04   -0.17620E-05  2256   0.273E-02    0.804E-03
DAV:   6    -0.140189151707E+03    0.17304E-04   -0.10444E-05  1816   0.371E-02    0.417E-03
DAV:   7    -0.140189136086E+03    0.15621E-04   -0.10015E-05  1904   0.367E-02    0.365E-03
DAV:   8    -0.140189103070E+03    0.33016E-04   -0.18602E-05  2320   0.861E-02    0.408E-03
DAV:   9    -0.140189086065E+03    0.17005E-04   -0.49250E-05  2696   0.742E-02    0.547E-03
DAV:  10    -0.140189083797E+03    0.22681E-05   -0.39693E-05  2448   0.403E-02
   4 F= -.14018908E+03 E0= -.14018662E+03  d E =-.109958E-02
       N       E                     dE             d eps       ncg     rms          rms(c)
DAV:   1    -0.140189465096E+03   -0.37903E-03   -0.31374E-01  2688   0.221E+00    0.920E-02
DAV:   2    -0.140190117603E+03   -0.65251E-03   -0.78010E-03  3016   0.302E-01    0.615E-02
DAV:   3    -0.140190000027E+03    0.11758E-03   -0.31141E-04  2992   0.490E-02    0.405E-02
DAV:   4    -0.140189964469E+03    0.35558E-04   -0.96536E-05  2880   0.341E-02    0.286E-02
DAV:   5    -0.140189914943E+03    0.49526E-04   -0.47207E-05  2784   0.421E-02    0.112E-02
DAV:   6    -0.140189888846E+03    0.26097E-04   -0.27582E-05  2584   0.412E-02    0.622E-03
DAV:   7    -0.140189868699E+03    0.20146E-04   -0.12314E-05  1856   0.317E-02    0.493E-03
DAV:   8    -0.140189828325E+03    0.40374E-04   -0.14082E-05  2216   0.661E-02    0.465E-03
DAV:   9    -0.140189797819E+03    0.30506E-04   -0.39379E-05  2632   0.674E-02    0.589E-03
DAV:  10    -0.140189771143E+03    0.26675E-04   -0.34134E-05  2672   0.847E-02    0.617E-03
DAV:  11    -0.140189758403E+03    0.12740E-04   -0.54415E-05  3064   0.916E-02    0.509E-03
DAV:  12    -0.140189761674E+03   -0.32713E-05   -0.66520E-05  2536   0.475E-02
   5 F= -.14018976E+03 E0= -.14018733E+03  d E =-.177745E-02
       N       E                     dE             d eps       ncg     rms          rms(c)
DAV:   1    -0.140190427763E+03   -0.66936E-03   -0.51588E-02  2728   0.872E-01    0.372E-02
DAV:   2    -0.140190524408E+03   -0.96645E-04   -0.11846E-03  2984   0.118E-01    0.210E-02
DAV:   3    -0.140190514709E+03    0.96987E-05   -0.39584E-05  2448   0.249E-02    0.139E-02
DAV:   4    -0.140190511289E+03    0.34201E-05   -0.14695E-05  1864   0.141E-02    0.986E-03
DAV:   5    -0.140190508068E+03    0.32209E-05   -0.77189E-06  1720   0.137E-02    0.405E-03
DAV:   6    -0.140190507605E+03    0.46311E-06   -0.36017E-06  1576   0.108E-02
   6 F= -.14019051E+03 E0= -.14018806E+03  d E =-.745930E-03
       N       E                     dE             d eps       ncg     rms          rms(c)
DAV:   1    -0.140191545553E+03   -0.10375E-02   -0.46415E-01  2728   0.262E+00    0.109E-01
DAV:   2    -0.140192434658E+03   -0.88911E-03   -0.10776E-02  2968   0.354E-01    0.625E-02
DAV:   3    -0.140192335662E+03    0.98996E-04   -0.30912E-04  3064   0.716E-02    0.423E-02
DAV:   4    -0.140192300053E+03    0.35609E-04   -0.12566E-04  3024   0.453E-02    0.304E-02
DAV:   5    -0.140192261872E+03    0.38181E-04   -0.56358E-05  2728   0.497E-02    0.122E-02
DAV:   6    -0.140192250315E+03    0.11557E-04   -0.35645E-05  2656   0.434E-02    0.548E-03
DAV:   7    -0.140192242475E+03    0.78403E-05   -0.15271E-05  1784   0.327E-02
   7 F= -.14019224E+03 E0= -.14018977E+03  d E =-.248080E-02
       N       E                     dE             d eps       ncg     rms          rms(c)
DAV:   1    -0.140190656364E+03    0.15940E-02   -0.18534E+00  2720   0.525E+00    0.218E-01
DAV:   2    -0.140194219935E+03   -0.35636E-02   -0.43298E-02  2976   0.710E-01    0.127E-01
DAV:   3    -0.140193802459E+03    0.41748E-03   -0.12595E-03  3040   0.149E-01    0.844E-02
DAV:   4    -0.140193652178E+03    0.15028E-03   -0.50764E-04  3048   0.935E-02    0.607E-02
DAV:   5    -0.140193489949E+03    0.16223E-03   -0.21528E-04  3192   0.101E-01    0.259E-02
DAV:   6    -0.140193421909E+03    0.68040E-04   -0.13679E-04  3192   0.959E-02    0.114E-02
DAV:   7    -0.140193383103E+03    0.38805E-04   -0.81800E-05  3024   0.716E-02    0.105E-02
DAV:   8    -0.140193338912E+03    0.44192E-04   -0.17280E-05  1904   0.576E-02    0.772E-03
DAV:   9    -0.140193284495E+03    0.54417E-04   -0.32736E-05  2432   0.732E-02    0.661E-03
DAV:  10    -0.140193179657E+03    0.10484E-03   -0.89763E-05  3328   0.171E-01    0.961E-03
DAV:  11    -0.140193103057E+03    0.76600E-04   -0.21468E-04  3576   0.234E-01    0.821E-03
DAV:  12    -0.140193115422E+03   -0.12365E-04   -0.28042E-04  2784   0.914E-02    0.785E-03
DAV:  13    -0.140193120519E+03   -0.50971E-05   -0.66878E-05  2584   0.292E-02
   8 F= -.14019312E+03 E0= -.14019064E+03  d E =-.335884E-02
       N       E                     dE             d eps       ncg     rms          rms(c)
DAV:   1    -0.140193748519E+03   -0.63310E-03   -0.36159E-02  2736   0.785E-01    0.348E-02
DAV:   2    -0.140193807762E+03   -0.59244E-04   -0.84750E-04  3032   0.116E-01    0.204E-02
DAV:   3    -0.140193798152E+03    0.96105E-05   -0.61968E-05  2728   0.290E-02    0.149E-02
DAV:   4    -0.140193791473E+03    0.66786E-05   -0.10304E-05  1816   0.117E-02    0.108E-02
DAV:   5    -0.140193785150E+03    0.63230E-05   -0.11828E-05  1816   0.210E-02    0.457E-03
DAV:   6    -0.140193783552E+03    0.15985E-05   -0.47918E-06  1656   0.150E-02
   9 F= -.14019378E+03 E0= -.14019131E+03  d E =-.663033E-03
       N       E                     dE             d eps       ncg     rms          rms(c)
DAV:   1    -0.140194821155E+03   -0.10360E-02   -0.32541E-01  2688   0.236E+00    0.997E-02
DAV:   2    -0.140195446813E+03   -0.62566E-03   -0.76704E-03  3008   0.332E-01    0.582E-02
DAV:   3    -0.140195380810E+03    0.66003E-04   -0.33812E-04  3032   0.598E-02    0.404E-02
DAV:   4    -0.140195347179E+03    0.33632E-04   -0.76079E-05  2592   0.280E-02    0.290E-02
DAV:   5    -0.140195328450E+03    0.18729E-04   -0.46167E-05  3032   0.347E-02    0.105E-02
DAV:   6    -0.140195323100E+03    0.53497E-05   -0.13063E-05  2168   0.276E-02
  10 F= -.14019532E+03 E0= -.14019287E+03  d E =-.220258E-02
       N       E                     dE             d eps       ncg     rms          rms(c)
DAV:   1    -0.140194261510E+03    0.10669E-02   -0.13004E+00  2688   0.472E+00    0.201E-01
DAV:   2    -0.140196736046E+03   -0.24745E-02   -0.30665E-02  3000   0.663E-01    0.114E-01
DAV:   3    -0.140196481888E+03    0.25416E-03   -0.12526E-03  3040   0.120E-01    0.787E-02
DAV:   4    -0.140196362660E+03    0.11923E-03   -0.27774E-04  3072   0.550E-02    0.569E-02
DAV:   5    -0.140196290238E+03    0.72422E-04   -0.15592E-04  3120   0.646E-02    0.206E-02
DAV:   6    -0.140196268689E+03    0.21549E-04   -0.56386E-05  3080   0.535E-02    0.107E-02
DAV:   7    -0.140196259970E+03    0.87186E-05   -0.45964E-05  2752   0.416E-02
  11 F= -.14019626E+03 E0= -.14019394E+03  d E =-.313945E-02
       N       E                     dE             d eps       ncg     rms          rms(c)
DAV:   1    -0.140197343863E+03   -0.10752E-02   -0.29632E-01  2720   0.232E+00    0.825E-02
DAV:   2    -0.140197953964E+03   -0.61010E-03   -0.69497E-03  2920   0.323E-01    0.411E-02
DAV:   3    -0.140197917853E+03    0.36112E-04   -0.94922E-05  3144   0.412E-02    0.278E-02
DAV:   4    -0.140197906776E+03    0.11077E-04   -0.59063E-05  2912   0.339E-02    0.164E-02
DAV:   5    -0.140197896485E+03    0.10291E-04   -0.38612E-05  2744   0.264E-02    0.795E-03
DAV:   6    -0.140197896079E+03    0.40655E-06   -0.70769E-06  1664   0.138E-02
  12 F= -.14019790E+03 E0= -.14019559E+03  d E =-.163611E-02
       N       E                     dE             d eps       ncg     rms          rms(c)
DAV:   1    -0.140196741097E+03    0.11554E-02   -0.26619E+00  2712   0.694E+00    0.239E-01
DAV:   2    -0.140202132799E+03   -0.53917E-02   -0.61325E-02  2848   0.956E-01    0.128E-01
DAV:   3    -0.140201752394E+03    0.38041E-03   -0.71358E-04  3168   0.124E-01    0.850E-02
DAV:   4    -0.140201601381E+03    0.15101E-03   -0.66189E-04  3072   0.131E-01    0.443E-02
DAV:   5    -0.140201503180E+03    0.98201E-04   -0.36943E-04  3032   0.809E-02    0.242E-02
DAV:   6    -0.140201483995E+03    0.19184E-04   -0.68204E-05  2944   0.472E-02    0.124E-02
DAV:   7    -0.140201451016E+03    0.32979E-04   -0.20545E-05  2128   0.443E-02    0.843E-03
DAV:   8    -0.140201428405E+03    0.22611E-04   -0.15585E-05  2072   0.360E-02    0.803E-03
DAV:   9    -0.140201398095E+03    0.30310E-04   -0.15079E-05  1896   0.439E-02    0.568E-03
DAV:  10    -0.140201361409E+03    0.36686E-04   -0.27369E-05  2440   0.586E-02    0.731E-03
DAV:  11    -0.140201313309E+03    0.48100E-04   -0.25565E-05  2504   0.925E-02    0.636E-03
DAV:  12    -0.140201257110E+03    0.56199E-04   -0.16501E-04  3824   0.223E-01    0.445E-03
DAV:  13    -0.140201275876E+03   -0.18766E-04   -0.22001E-04  2760   0.583E-02    0.736E-03
DAV:  14    -0.140201276467E+03   -0.59143E-06   -0.20996E-05  2104   0.180E-02
  13 F= -.14020128E+03 E0= -.14019899E+03  d E =-.501650E-02
       N       E                     dE             d eps       ncg     rms          rms(c)
DAV:   1    -0.140181886450E+03    0.19389E-01   -0.10644E+01  2712   0.138E+01    0.481E-01
DAV:   2    -0.140203682655E+03   -0.21796E-01   -0.24914E-01  2856   0.190E+00    0.259E-01
DAV:   3    -0.140202168171E+03    0.15145E-02   -0.27566E-03  3160   0.249E-01    0.170E-01
DAV:   4    -0.140201310442E+03    0.85773E-03   -0.29829E-03  3096   0.293E-01    0.621E-02
DAV:   5    -0.140201253096E+03    0.57347E-04   -0.11883E-03  3008   0.138E-01    0.459E-02
DAV:   6    -0.140201181559E+03    0.71537E-04   -0.23549E-04  3056   0.831E-02    0.219E-02
DAV:   7    -0.140201094469E+03    0.87089E-04   -0.44388E-05  2832   0.665E-02    0.160E-02
DAV:   8    -0.140201008564E+03    0.85905E-04   -0.35072E-05  2464   0.668E-02    0.123E-02
DAV:   9    -0.140200928498E+03    0.80067E-04   -0.49306E-05  2616   0.659E-02    0.101E-02
DAV:  10    -0.140200771517E+03    0.15698E-03   -0.66627E-05  3192   0.131E-01    0.105E-02
DAV:  11    -0.140200529765E+03    0.24175E-03   -0.36607E-04  3928   0.319E-01    0.153E-02
DAV:  12    -0.140200524728E+03    0.50361E-05   -0.50633E-04  3152   0.156E-01    0.800E-03
DAV:  13    -0.140200540757E+03   -0.16028E-04   -0.20352E-04  2864   0.615E-02    0.122E-02
DAV:  14    -0.140200540452E+03    0.30482E-06   -0.11272E-05  1832   0.170E-02
  14 F= -.14020054E+03 E0= -.14019837E+03  d E =-.428048E-02
       N       E                     dE             d eps       ncg     rms          rms(c)
DAV:   1    -0.140195696620E+03    0.48441E-02   -0.37686E+00  2688   0.810E+00    0.288E-01
DAV:   2    -0.140203418070E+03   -0.77215E-02   -0.88264E-02  2944   0.111E+00    0.156E-01
DAV:   3    -0.140202842374E+03    0.57570E-03   -0.10187E-03  3144   0.148E-01    0.104E-01
DAV:   4    -0.140202591810E+03    0.25056E-03   -0.97034E-04  3080   0.158E-01    0.489E-02
DAV:   5    -0.140202488949E+03    0.10286E-03   -0.48380E-04  3016   0.904E-02    0.269E-02
DAV:   6    -0.140202457304E+03    0.31645E-04   -0.10676E-04  3032   0.558E-02    0.133E-02
DAV:   7    -0.140202425276E+03    0.32028E-04   -0.29974E-05  2392   0.399E-02    0.122E-02
DAV:   8    -0.140202409603E+03    0.15673E-04   -0.22601E-05  2000   0.244E-02    0.939E-03
DAV:   9    -0.140202376604E+03    0.32998E-04   -0.13521E-05  1880   0.375E-02    0.553E-03
DAV:  10    -0.140202324356E+03    0.52248E-04   -0.29750E-05  2632   0.677E-02    0.736E-03
DAV:  11    -0.140202260623E+03    0.63733E-04   -0.72403E-05  3376   0.123E-01    0.915E-03
DAV:  12    -0.140202200943E+03    0.59680E-04   -0.15435E-04  3632   0.204E-01    0.888E-03
DAV:  13    -0.140202218667E+03   -0.17724E-04   -0.23803E-04  2840   0.565E-02    0.984E-03
DAV:  14    -0.140202218796E+03   -0.12906E-06   -0.16060E-05  1992   0.161E-02
  15 F= -.14020222E+03 E0= -.14019997E+03  d E =-.595883E-02
       N       E                     dE             d eps       ncg     rms          rms(c)
DAV:   1    -0.140204214617E+03   -0.19959E-02   -0.38182E-01  2720   0.262E+00    0.864E-02
DAV:   2    -0.140204859189E+03   -0.64457E-03   -0.81399E-03  2936   0.357E-01    0.506E-02
DAV:   3    -0.140204801539E+03    0.57650E-04   -0.13433E-04  3192   0.612E-02    0.350E-02
DAV:   4    -0.140204769353E+03    0.32186E-04   -0.14594E-04  3048   0.676E-02    0.161E-02
DAV:   5    -0.140204761358E+03    0.79948E-05   -0.58338E-05  3040   0.400E-02    0.129E-02
DAV:   6    -0.140204758192E+03    0.31664E-05   -0.17339E-05  1808   0.213E-02
  16 F= -.14020476E+03 E0= -.14020252E+03  d E =-.253940E-02
       N       E                     dE             d eps       ncg     rms          rms(c)
DAV:   1    -0.140202865914E+03    0.18954E-02   -0.34351E+00  2696   0.788E+00    0.257E-01
DAV:   2    -0.140208669124E+03   -0.58032E-02   -0.73397E-02  2904   0.108E+00    0.150E-01
DAV:   3    -0.140208176906E+03    0.49222E-03   -0.11946E-03  3176   0.182E-01    0.103E-01
DAV:   4    -0.140207834676E+03    0.34223E-03   -0.14881E-03  3184   0.226E-01    0.425E-02
DAV:   5    -0.140207817396E+03    0.17279E-04   -0.49530E-04  3000   0.110E-01    0.386E-02
DAV:   6    -0.140207780242E+03    0.37154E-04   -0.18676E-04  2856   0.669E-02    0.165E-02
DAV:   7    -0.140207744251E+03    0.35991E-04   -0.25162E-05  2256   0.531E-02    0.944E-03
DAV:   8    -0.140207722190E+03    0.22061E-04   -0.22284E-05  2200   0.390E-02    0.744E-03
DAV:   9    -0.140207684669E+03    0.37521E-04   -0.17194E-05  2080   0.639E-02    0.541E-03
DAV:  10    -0.140207645275E+03    0.39393E-04   -0.44565E-05  2800   0.802E-02    0.641E-03
DAV:  11    -0.140207589662E+03    0.55613E-04   -0.57745E-05  2888   0.140E-01    0.850E-03
DAV:  12    -0.140207562216E+03    0.27446E-04   -0.10692E-04  3216   0.133E-01    0.634E-03
DAV:  13    -0.140207568451E+03   -0.62351E-05   -0.14142E-04  2640   0.468E-02    0.955E-03
DAV:  14    -0.140207566505E+03    0.19466E-05   -0.79939E-06  1664   0.130E-02
  17 F= -.14020757E+03 E0= -.14020547E+03  d E =-.534771E-02
       N       E                     dE             d eps       ncg     rms          rms(c)
DAV:   1    -0.140208135465E+03   -0.56701E-03   -0.10954E+00  2688   0.457E+00    0.145E-01
DAV:   2    -0.140210204625E+03   -0.20692E-02   -0.24939E-02  2944   0.643E-01    0.784E-02
DAV:   3    -0.140210087737E+03    0.11689E-03   -0.37103E-04  3248   0.849E-02    0.541E-02
DAV:   4    -0.140210022224E+03    0.65513E-04   -0.45358E-04  3064   0.107E-01    0.227E-02
DAV:   5    -0.140210023001E+03   -0.77719E-06   -0.89382E-05  2872   0.429E-02    0.196E-02
DAV:   6    -0.140210019399E+03    0.36021E-05   -0.51817E-05  2528   0.333E-02
  18 F= -.14021002E+03 E0= -.14020809E+03  d E =-.245289E-02
       N       E                     dE             d eps       ncg     rms          rms(c)
DAV:   1    -0.140209619854E+03    0.40315E-03   -0.76292E-01  2688   0.382E+00    0.120E-01
DAV:   2    -0.140211104168E+03   -0.14843E-02   -0.17400E-02  2920   0.536E-01    0.662E-02
DAV:   3    -0.140211021232E+03    0.82936E-04   -0.23488E-04  3224   0.694E-02    0.452E-02
DAV:   4    -0.140210979878E+03    0.41354E-04   -0.37334E-04  3040   0.971E-02    0.206E-02
DAV:   5    -0.140210979461E+03    0.41756E-06   -0.69407E-05  2784   0.392E-02    0.171E-02
DAV:   6    -0.140210976970E+03    0.24902E-05   -0.47227E-05  2488   0.314E-02
  19 F= -.14021098E+03 E0= -.14020925E+03  d E =-.341047E-02
       N       E                     dE             d eps       ncg     rms          rms(c)
DAV:   1    -0.140212461434E+03   -0.14820E-02   -0.55031E-01  2808   0.302E+00    0.893E-02
DAV:   2    -0.140213358908E+03   -0.89747E-03   -0.11008E-02  3072   0.406E-01    0.581E-02
DAV:   3    -0.140213259799E+03    0.99110E-04   -0.20848E-04  3120   0.818E-02    0.421E-02
DAV:   4    -0.140213162022E+03    0.97777E-04   -0.18885E-04  3144   0.952E-02    0.186E-02
DAV:   5    -0.140213134872E+03    0.27150E-04   -0.13519E-04  3224   0.756E-02    0.166E-02
DAV:   6    -0.140213128247E+03    0.66243E-05   -0.66644E-05  2736   0.389E-02
  20 F= -.14021313E+03 E0= -.14021145E+03  d E =-.215128E-02
       N       E                     dE             d eps       ncg     rms          rms(c)
DAV:   1    -0.140212963393E+03    0.17148E-03   -0.60833E-01  2784   0.318E+00    0.916E-02
DAV:   2    -0.140213906543E+03   -0.94315E-03   -0.11888E-02  3088   0.428E-01    0.612E-02
DAV:   3    -0.140213785570E+03    0.12097E-03   -0.26324E-04  3112   0.939E-02    0.451E-02
DAV:   4    -0.140213662241E+03    0.12333E-03   -0.17257E-04  3176   0.958E-02    0.223E-02
DAV:   5    -0.140213597766E+03    0.64475E-04   -0.14916E-04  3208   0.100E-01    0.165E-02
DAV:   6    -0.140213575194E+03    0.22572E-04   -0.16400E-04  3128   0.854E-02    0.128E-02
DAV:   7    -0.140213559525E+03    0.15670E-04   -0.32394E-05  2656   0.485E-02    0.119E-02
DAV:   8    -0.140213550508E+03    0.90168E-05   -0.23144E-05  2216   0.330E-02
  21 F= -.14021355E+03 E0= -.14021192E+03  d E =-.257354E-02
       N       E                     dE             d eps       ncg     rms          rms(c)
DAV:   1    -0.140214092045E+03   -0.53252E-03   -0.32759E-01  2688   0.249E+00    0.736E-02
DAV:   2    -0.140214725952E+03   -0.63391E-03   -0.71783E-03  3024   0.341E-01    0.431E-02
DAV:   3    -0.140214680893E+03    0.45059E-04   -0.82866E-05  3152   0.456E-02    0.298E-02
DAV:   4    -0.140214642710E+03    0.38183E-04   -0.14162E-04  2952   0.770E-02    0.970E-03
DAV:   5    -0.140214642745E+03   -0.35382E-07   -0.57385E-05  2688   0.337E-02    0.112E-02
DAV:   6    -0.140214640136E+03    0.26089E-05   -0.49525E-06  1632   0.989E-03
  22 F= -.14021464E+03 E0= -.14021305E+03  d E =-.108963E-02
       N       E                     dE             d eps       ncg     rms          rms(c)
DAV:   1    -0.140213290569E+03    0.13522E-02   -0.12422E+00  2688   0.484E+00    0.145E-01
DAV:   2    -0.140215743580E+03   -0.24530E-02   -0.27685E-02  3024   0.669E-01    0.863E-02
DAV:   3    -0.140215570169E+03    0.17341E-03   -0.32870E-04  3160   0.917E-02    0.600E-02
DAV:   4    -0.140215431738E+03    0.13843E-03   -0.65435E-04  3080   0.156E-01    0.220E-02
DAV:   5    -0.140215430180E+03    0.15587E-05   -0.20752E-04  2952   0.632E-02    0.233E-02
DAV:   6    -0.140215414552E+03    0.15627E-04   -0.38850E-05  2528   0.264E-02    0.103E-02
DAV:   7    -0.140215391717E+03    0.22836E-04   -0.21388E-05  2200   0.324E-02    0.762E-03
DAV:   8    -0.140215369788E+03    0.21928E-04   -0.71960E-06  1760   0.369E-02    0.998E-03
DAV:   9    -0.140215331784E+03    0.38005E-04   -0.29217E-05  2376   0.744E-02    0.551E-03
DAV:  10    -0.140215290106E+03    0.41678E-04   -0.14955E-04  3872   0.150E-01    0.224E-02
DAV:  11    -0.140215262953E+03    0.27153E-04   -0.10319E-04  3368   0.133E-01    0.228E-02
DAV:  12    -0.140215256317E+03    0.66359E-05   -0.14354E-04  2880   0.543E-02    0.737E-03
DAV:  13    -0.140215257557E+03   -0.12395E-05   -0.13817E-05  1760   0.147E-02
  23 F= -.14021526E+03 E0= -.14021375E+03  d E =-.170705E-02
       N       E                     dE             d eps       ncg     rms          rms(c)
DAV:   1    -0.140216979532E+03   -0.17232E-02   -0.20658E-01  2728   0.200E+00    0.668E-02
DAV:   2    -0.140217345904E+03   -0.36637E-03   -0.49716E-03  3056   0.304E-01    0.385E-02
DAV:   3    -0.140217318950E+03    0.26954E-04   -0.19441E-04  3128   0.612E-02    0.306E-02
DAV:   4    -0.140217294551E+03    0.24399E-04   -0.42503E-05  2848   0.249E-02    0.160E-02
DAV:   5    -0.140217270895E+03    0.23656E-04   -0.38418E-05  2664   0.443E-02    0.109E-02
DAV:   6    -0.140217259776E+03    0.11118E-04   -0.20064E-05  2072   0.439E-02    0.794E-03
DAV:   7    -0.140217255486E+03    0.42901E-05   -0.35680E-05  2312   0.390E-02
  24 F= -.14021726E+03 E0= -.14021575E+03  d E =-.199793E-02
       N       E                     dE             d eps       ncg     rms          rms(c)
DAV:   1    -0.140217629059E+03   -0.36928E-03   -0.63440E-01  2736   0.352E+00    0.121E-01
DAV:   2    -0.140218732269E+03   -0.11032E-02   -0.15442E-02  3056   0.540E-01    0.659E-02
DAV:   3    -0.140218639312E+03    0.92957E-04   -0.68347E-04  3104   0.117E-01    0.541E-02
DAV:   4    -0.140218557294E+03    0.82018E-04   -0.10560E-04  2984   0.418E-02    0.307E-02
DAV:   5    -0.140218446464E+03    0.11083E-03   -0.17145E-04  3080   0.968E-02    0.210E-02
DAV:   6    -0.140218403543E+03    0.42921E-04   -0.76273E-05  3176   0.786E-02    0.161E-02
DAV:   7    -0.140218369819E+03    0.33724E-04   -0.95820E-05  2816   0.870E-02    0.109E-02
DAV:   8    -0.140218341189E+03    0.28630E-04   -0.26700E-05  2464   0.534E-02    0.697E-03
DAV:   9    -0.140218302690E+03    0.38499E-04   -0.31750E-05  2448   0.775E-02    0.105E-02
DAV:  10    -0.140218276956E+03    0.25734E-04   -0.38595E-05  2680   0.732E-02    0.547E-03
DAV:  11    -0.140218252033E+03    0.24923E-04   -0.43348E-05  2648   0.101E-01    0.532E-03
DAV:  12    -0.140218227769E+03    0.24265E-04   -0.42341E-05  2848   0.108E-01    0.518E-03
DAV:  13    -0.140218229371E+03   -0.16024E-05   -0.84066E-05  2640   0.542E-02
  25 F= -.14021823E+03 E0= -.14021672E+03  d E =-.297181E-02
       N       E                     dE             d eps       ncg     rms          rms(c)
DAV:   1    -0.140218260571E+03   -0.32802E-04   -0.19246E-02  2752   0.612E-01    0.230E-02
DAV:   2    -0.140218291733E+03   -0.31162E-04   -0.51689E-04  3072   0.102E-01    0.123E-02
DAV:   3    -0.140218288679E+03    0.30534E-05   -0.27548E-05  2384   0.235E-02    0.101E-02
DAV:   4    -0.140218285519E+03    0.31606E-05   -0.37158E-06  1632   0.827E-03    0.599E-03
DAV:   5    -0.140218280938E+03    0.45809E-05   -0.10961E-05  1696   0.211E-02    0.489E-03
DAV:   6    -0.140218280341E+03    0.59648E-06   -0.41607E-06  1616   0.108E-02
  26 F= -.14021828E+03 E0= -.14021677E+03  d E =-.302278E-02
       N       E                     dE             d eps       ncg     rms          rms(c)
DAV:   1    -0.140218903565E+03   -0.62263E-03   -0.24488E-01  2776   0.208E+00    0.619E-02
DAV:   2    -0.140219361458E+03   -0.45789E-03   -0.52822E-03  3040   0.284E-01    0.408E-02
DAV:   3    -0.140219320945E+03    0.40513E-04   -0.70473E-05  3040   0.459E-02    0.298E-02
DAV:   4    -0.140219279703E+03    0.41242E-04   -0.13466E-04  3176   0.800E-02    0.122E-02
DAV:   5    -0.140219278391E+03    0.13116E-05   -0.77299E-05  2896   0.425E-02    0.155E-02
DAV:   6    -0.140219277445E+03    0.94622E-06   -0.10034E-05  1640   0.133E-02
  27 F= -.14021928E+03 E0= -.14021773E+03  d E =-.997104E-03
       N       E                     dE             d eps       ncg     rms          rms(c)
DAV:   1    -0.140219184177E+03    0.94214E-04   -0.29748E-01  2776   0.229E+00    0.744E-02
DAV:   2    -0.140219736406E+03   -0.55223E-03   -0.66353E-03  3048   0.320E-01    0.443E-02
DAV:   3    -0.140219683683E+03    0.52723E-04   -0.11244E-04  3040   0.607E-02    0.330E-02
DAV:   4    -0.140219632834E+03    0.50849E-04   -0.12933E-04  3032   0.817E-02    0.149E-02
DAV:   5    -0.140219618820E+03    0.14014E-04   -0.93364E-05  3304   0.641E-02    0.171E-02
DAV:   6    -0.140219614899E+03    0.39205E-05   -0.42567E-05  2688   0.291E-02
  28 F= -.14021961E+03 E0= -.14021804E+03  d E =-.133456E-02
       N       E                     dE             d eps       ncg     rms          rms(c)
DAV:   1    -0.140219957298E+03   -0.33848E-03   -0.21889E-01  2736   0.206E+00    0.661E-02
DAV:   2    -0.140220427035E+03   -0.46974E-03   -0.52446E-03  2992   0.294E-01    0.397E-02
DAV:   3    -0.140220386474E+03    0.40561E-04   -0.55129E-05  2912   0.466E-02    0.274E-02
DAV:   4    -0.140220349115E+03    0.37359E-04   -0.12197E-04  3080   0.787E-02    0.106E-02
DAV:   5    -0.140220347058E+03    0.20570E-05   -0.60411E-05  2736   0.370E-02    0.121E-02
DAV:   6    -0.140220345488E+03    0.15697E-05   -0.70179E-06  1632   0.115E-02
  29 F= -.14022035E+03 E0= -.14021876E+03  d E =-.730589E-03
       N       E                     dE             d eps       ncg     rms          rms(c)
DAV:   1    -0.140219938194E+03    0.40886E-03   -0.43471E-01  2728   0.290E+00    0.926E-02
DAV:   2    -0.140220866004E+03   -0.92781E-03   -0.10378E-02  2992   0.414E-01    0.559E-02
DAV:   3    -0.140220785584E+03    0.80420E-04   -0.11357E-04  3096   0.639E-02    0.386E-02
DAV:   4    -0.140220715294E+03    0.70290E-04   -0.21403E-04  3096   0.978E-02    0.146E-02
DAV:   5    -0.140220703766E+03    0.11528E-04   -0.97132E-05  2976   0.507E-02    0.151E-02
DAV:   6    -0.140220698368E+03    0.53985E-05   -0.17036E-05  1704   0.192E-02
  30 F= -.14022070E+03 E0= -.14021910E+03  d E =-.108347E-02
       N       E                     dE             d eps       ncg     rms          rms(c)
DAV:   1    -0.140220909565E+03   -0.20580E-03   -0.26440E-02  2720   0.708E-01    0.241E-02
DAV:   2    -0.140220952483E+03   -0.42918E-04   -0.60382E-04  2976   0.103E-01    0.138E-02
DAV:   3    -0.140220941667E+03    0.10816E-04   -0.10357E-05  1824   0.207E-02    0.102E-02
DAV:   4    -0.140220924927E+03    0.16740E-04   -0.96426E-06  1784   0.277E-02    0.473E-03
DAV:   5    -0.140220911375E+03    0.13552E-04   -0.10662E-05  1752   0.302E-02    0.432E-03
DAV:   6    -0.140220905330E+03    0.60454E-05   -0.11783E-05  1704   0.210E-02
  31 F= -.14022091E+03 E0= -.14021929E+03  d E =-.206962E-03
       N       E                     dE             d eps       ncg     rms          rms(c)
DAV:   1    -0.140220838450E+03    0.72925E-04   -0.23848E-01  2760   0.213E+00    0.677E-02
DAV:   2    -0.140221289435E+03   -0.45098E-03   -0.54687E-03  3032   0.307E-01    0.428E-02
DAV:   3    -0.140221240565E+03    0.48870E-04   -0.11763E-04  3144   0.583E-02    0.311E-02
DAV:   4    -0.140221195412E+03    0.45153E-04   -0.80736E-05  2880   0.514E-02    0.140E-02
DAV:   5    -0.140221175453E+03    0.19959E-04   -0.35306E-05  2648   0.464E-02    0.916E-03
DAV:   6    -0.140221162147E+03    0.13307E-04   -0.43670E-05  2384   0.526E-02    0.598E-03
DAV:   7    -0.140221158557E+03    0.35900E-05   -0.22332E-05  2168   0.258E-02
  32 F= -.14022116E+03 E0= -.14021948E+03  d E =-.460189E-03
       N       E                     dE             d eps       ncg     rms          rms(c)
DAV:   1    -0.140221339045E+03   -0.17690E-03   -0.92348E-03  2752   0.421E-01    0.143E-02
DAV:   2    -0.140221353911E+03   -0.14866E-04   -0.18944E-04  3064   0.575E-02    0.807E-03
DAV:   3    -0.140221352823E+03    0.10885E-05   -0.60319E-06  1680   0.122E-02    0.536E-03
DAV:   4    -0.140221352116E+03    0.70700E-06   -0.17979E-06  1632   0.798E-03    0.298E-03
DAV:   5    -0.140221351523E+03    0.59212E-06   -0.12858E-06  1648   0.887E-03    0.160E-03
DAV:   6    -0.140221351315E+03    0.20831E-06   -0.90777E-07  1584   0.694E-03
  33 F= -.14022135E+03 E0= -.14021965E+03  d E =-.192758E-03
       N       E                     dE             d eps       ncg     rms          rms(c)
DAV:   1    -0.140221582584E+03   -0.23106E-03   -0.83085E-02  2688   0.126E+00    0.443E-02
DAV:   2    -0.140221713956E+03   -0.13137E-03   -0.17211E-03  3048   0.169E-01    0.244E-02
DAV:   3    -0.140221701020E+03    0.12936E-04   -0.51112E-05  2872   0.353E-02    0.164E-02
DAV:   4    -0.140221692613E+03    0.84065E-05   -0.14737E-05  1840   0.228E-02    0.940E-03
DAV:   5    -0.140221682271E+03    0.10343E-04   -0.62797E-06  1808   0.292E-02    0.443E-03
DAV:   6    -0.140221677398E+03    0.48728E-05   -0.78615E-06  1664   0.204E-02
  34 F= -.14022168E+03 E0= -.14021989E+03  d E =-.518841E-03
       N       E                     dE             d eps       ncg     rms          rms(c)
DAV:   1    -0.140221674883E+03    0.73880E-05   -0.97311E-03  2752   0.432E-01    0.163E-02
DAV:   2    -0.140221687460E+03   -0.12577E-04   -0.24355E-04  3048   0.656E-02    0.979E-03
DAV:   3    -0.140221680886E+03    0.65742E-05   -0.89711E-06  1864   0.181E-02    0.637E-03
DAV:   4    -0.140221674049E+03    0.68369E-05   -0.37087E-06  1640   0.163E-02    0.391E-03
DAV:   5    -0.140221663150E+03    0.10899E-04   -0.29628E-06  1720   0.281E-02    0.329E-03
DAV:   6    -0.140221649866E+03    0.13284E-04   -0.74018E-06  1840   0.402E-02    0.301E-03
DAV:   7    -0.140221632827E+03    0.17040E-04   -0.12139E-05  2056   0.620E-02    0.291E-03
DAV:   8    -0.140221613533E+03    0.19293E-04   -0.53676E-05  3152   0.125E-01    0.174E-03
DAV:   9    -0.140221619293E+03   -0.57596E-05   -0.74762E-05  2592   0.405E-02
  35 F= -.14022162E+03 E0= -.14021980E+03  d E =-.460736E-03
       N       E                     dE             d eps       ncg     rms          rms(c)
DAV:   1    -0.140221790509E+03   -0.17698E-03   -0.28899E-02  2720   0.743E-01    0.253E-02
DAV:   2    -0.140221843453E+03   -0.52944E-04   -0.65308E-04  3040   0.105E-01    0.135E-02
DAV:   3    -0.140221839100E+03    0.43532E-05   -0.13065E-05  1824   0.174E-02    0.934E-03
DAV:   4    -0.140221836662E+03    0.24379E-05   -0.61334E-06  1616   0.119E-02    0.460E-03
DAV:   5    -0.140221835585E+03    0.10774E-05   -0.45752E-06  1640   0.117E-02    0.263E-03
DAV:   6    -0.140221835569E+03    0.15292E-07   -0.19954E-06  1544   0.681E-03
  36 F= -.14022184E+03 E0= -.14022000E+03  d E =-.216276E-03
       N       E                     dE             d eps       ncg     rms          rms(c)
DAV:   1    -0.140221768143E+03    0.67442E-04   -0.26126E-01  2688   0.223E+00    0.734E-02
DAV:   2    -0.140222276038E+03   -0.50790E-03   -0.59968E-03  3032   0.314E-01    0.393E-02
DAV:   3    -0.140222243582E+03    0.32457E-04   -0.11856E-04  3176   0.473E-02    0.287E-02
DAV:   4    -0.140222226596E+03    0.16986E-04   -0.41935E-05  2976   0.292E-02    0.155E-02
DAV:   5    -0.140222216131E+03    0.10464E-04   -0.30220E-05  2536   0.322E-02    0.806E-03
DAV:   6    -0.140222215401E+03    0.73030E-06   -0.13626E-05  1680   0.190E-02
  37 F= -.14022222E+03 E0= -.14022032E+03  d E =-.596108E-03
       N       E                     dE             d eps       ncg     rms          rms(c)
DAV:   1    -0.140222167352E+03    0.48780E-04   -0.49308E-02  2688   0.971E-01    0.332E-02
DAV:   2    -0.140222266253E+03   -0.98901E-04   -0.11756E-03  3048   0.139E-01    0.180E-02
DAV:   3    -0.140222258424E+03    0.78291E-05   -0.20949E-05  2080   0.217E-02    0.128E-02
DAV:   4    -0.140222254045E+03    0.43784E-05   -0.10937E-05  1728   0.163E-02    0.660E-03
DAV:   5    -0.140222251211E+03    0.28341E-05   -0.88066E-06  1728   0.191E-02    0.430E-03
DAV:   6    -0.140222251124E+03    0.87573E-07   -0.45983E-06  1576   0.994E-03
  38 F= -.14022225E+03 E0= -.14022033E+03  d E =-.631831E-03
       N       E                     dE             d eps       ncg     rms          rms(c)
DAV:   1    -0.140222423644E+03   -0.17243E-03   -0.23789E-02  2840   0.664E-01    0.210E-02
DAV:   2    -0.140222470627E+03   -0.46984E-04   -0.53589E-04  2952   0.935E-02    0.124E-02
DAV:   3    -0.140222465254E+03    0.53733E-05   -0.57111E-06  1672   0.159E-02    0.824E-03
DAV:   4    -0.140222458743E+03    0.65110E-05   -0.78131E-06  1688   0.244E-02    0.262E-03
DAV:   5    -0.140222457659E+03    0.10843E-05   -0.73417E-06  1632   0.142E-02    0.249E-03
DAV:   6    -0.140222455709E+03    0.19500E-05   -0.11411E-06  1632   0.125E-02
  39 F= -.14022246E+03 E0= -.14022054E+03  d E =-.204585E-03
       N       E                     dE             d eps       ncg     rms          rms(c)
DAV:   1    -0.140222419740E+03    0.37919E-04   -0.16082E-01  2840   0.173E+00    0.520E-02
DAV:   2    -0.140222725014E+03   -0.30527E-03   -0.35683E-03  2976   0.243E-01    0.334E-02
DAV:   3    -0.140222684584E+03    0.40430E-04   -0.45490E-05  2960   0.409E-02    0.223E-02
DAV:   4    -0.140222627218E+03    0.57367E-04   -0.47420E-05  2888   0.589E-02    0.853E-03
DAV:   5    -0.140222605873E+03    0.21345E-04   -0.39384E-05  2752   0.425E-02    0.631E-03
DAV:   6    -0.140222569887E+03    0.35986E-04   -0.22989E-05  2200   0.640E-02    0.771E-03
DAV:   7    -0.140222528085E+03    0.41802E-04   -0.23320E-05  2368   0.762E-02    0.110E-02
DAV:   8    -0.140222483529E+03    0.44557E-04   -0.33320E-05  2544   0.853E-02    0.535E-03
DAV:   9    -0.140222425751E+03    0.57778E-04   -0.88656E-05  3360   0.174E-01    0.520E-03
DAV:  10    -0.140222424318E+03    0.14333E-05   -0.13575E-04  2920   0.922E-02    0.513E-03
DAV:  11    -0.140222431639E+03   -0.73211E-05   -0.81137E-05  2624   0.326E-02
  40 F= -.14022243E+03 E0= -.14022053E+03  d E =-.180515E-03
       N       E                     dE             d eps       ncg     rms          rms(c)
DAV:   1    -0.140222501278E+03   -0.76961E-04   -0.32681E-02  2888   0.779E-01    0.258E-02
DAV:   2    -0.140222565975E+03   -0.64697E-04   -0.75230E-04  2976   0.112E-01    0.140E-02
DAV:   3    -0.140222559484E+03    0.64916E-05   -0.11702E-05  1680   0.192E-02    0.937E-03
DAV:   4    -0.140222552746E+03    0.67375E-05   -0.80931E-06  1736   0.200E-02    0.370E-03
DAV:   5    -0.140222549599E+03    0.31472E-05   -0.57272E-06  1672   0.173E-02    0.293E-03
DAV:   6    -0.140222548493E+03    0.11055E-05   -0.38246E-06  1584   0.106E-02
  41 F= -.14022255E+03 E0= -.14022064E+03  d E =-.297370E-03
       N       E                     dE             d eps       ncg     rms          rms(c)
DAV:   1    -0.140222550605E+03   -0.10058E-05   -0.12607E-02  2864   0.485E-01    0.146E-02
DAV:   2    -0.140222572011E+03   -0.21407E-04   -0.28309E-04  3024   0.699E-02    0.997E-03
DAV:   3    -0.140222566811E+03    0.52006E-05   -0.45704E-06  1656   0.142E-02    0.691E-03
DAV:   4    -0.140222557420E+03    0.93903E-05   -0.41019E-06  1704   0.218E-02    0.324E-03
DAV:   5    -0.140222551365E+03    0.60558E-05   -0.51742E-06  1616   0.205E-02    0.272E-03
DAV:   6    -0.140222543624E+03    0.77405E-05   -0.42967E-06  1760   0.290E-02
  42 F= -.14022254E+03 E0= -.14022063E+03  d E =-.292500E-03
       N       E                     dE             d eps       ncg     rms          rms(c)
DAV:   1    -0.140222583362E+03   -0.31997E-04   -0.58925E-03  2952   0.331E-01    0.115E-02
DAV:   2    -0.140222601136E+03   -0.17774E-04   -0.23242E-04  2968   0.615E-02    0.127E-02
DAV:   3    -0.140222597932E+03    0.32036E-05   -0.60793E-06  1632   0.122E-02    0.867E-03
DAV:   4    -0.140222594808E+03    0.31248E-05   -0.85436E-06  1664   0.132E-02    0.317E-03
DAV:   5    -0.140222593875E+03    0.93280E-06   -0.23934E-06  1608   0.876E-03    0.234E-03
DAV:   6    -0.140222592049E+03    0.18262E-05   -0.11506E-06  1672   0.132E-02
  43 F= -.14022259E+03 E0= -.14022069E+03  d E =-.484246E-04
       N       E                     dE             d eps       ncg     rms          rms(c)
DAV:   1    -0.140222614437E+03   -0.20562E-04   -0.47824E-02  2856   0.915E-01    0.268E-02
DAV:   2    -0.140222682142E+03   -0.67705E-04   -0.95496E-04  2984   0.126E-01    0.176E-02
DAV:   3    -0.140222671533E+03    0.10610E-04   -0.16367E-05  2000   0.224E-02    0.125E-02
DAV:   4    -0.140222662625E+03    0.89081E-05   -0.24677E-05  2568   0.260E-02    0.471E-03
DAV:   5    -0.140222661754E+03    0.87036E-06   -0.90979E-06  1672   0.153E-02    0.312E-03
DAV:   6    -0.140222661233E+03    0.52101E-06   -0.27058E-06  1608   0.918E-03
  44 F= -.14022266E+03 E0= -.14022078E+03  d E =-.117609E-03
       N       E                     dE             d eps       ncg     rms          rms(c)
DAV:   1    -0.140222697966E+03   -0.36212E-04   -0.29567E-03  2744   0.234E-01    0.762E-03
DAV:   2    -0.140222703476E+03   -0.55097E-05   -0.69657E-05  2888   0.340E-02    0.513E-03
DAV:   3    -0.140222702728E+03    0.74818E-06   -0.13890E-06  1592   0.679E-03    0.315E-03
DAV:   4    -0.140222702105E+03    0.62218E-06   -0.13226E-06  1560   0.722E-03    0.119E-03
DAV:   5    -0.140222701980E+03    0.12510E-06   -0.67965E-07  1520   0.493E-03    0.108E-03
DAV:   6    -0.140222701734E+03    0.24579E-06   -0.21103E-07  1512   0.506E-03
  45 F= -.14022270E+03 E0= -.14022083E+03  d E =-.405013E-04
       N       E                     dE             d eps       ncg     rms          rms(c)
DAV:   1    -0.140222741757E+03   -0.39777E-04   -0.26594E-02  2720   0.699E-01    0.218E-02
DAV:   2    -0.140222791265E+03   -0.49508E-04   -0.60064E-04  2968   0.984E-02    0.135E-02
DAV:   3    -0.140222786659E+03    0.46060E-05   -0.71356E-06  1824   0.158E-02    0.893E-03
DAV:   4    -0.140222783672E+03    0.29876E-05   -0.15831E-05  1760   0.231E-02    0.289E-03
DAV:   5    -0.140222784146E+03   -0.47376E-06   -0.59419E-06  1568   0.105E-02    0.307E-03
DAV:   6    -0.140222784090E+03    0.55285E-07   -0.75847E-07  1480   0.381E-03
  46 F= -.14022278E+03 E0= -.14022095E+03  d E =-.122857E-03
       N       E                     dE             d eps       ncg     rms          rms(c)
DAV:   1    -0.140222576236E+03    0.20791E-03   -0.10643E-01  2720   0.140E+00    0.437E-02
DAV:   2    -0.140222772939E+03   -0.19670E-03   -0.23927E-03  2968   0.197E-01    0.275E-02
DAV:   3    -0.140222754193E+03    0.18746E-04   -0.32094E-05  2584   0.321E-02    0.181E-02
DAV:   4    -0.140222741913E+03    0.12279E-04   -0.61166E-05  2984   0.444E-02    0.644E-03
DAV:   5    -0.140222742715E+03   -0.80159E-06   -0.17263E-05  1776   0.186E-02    0.568E-03
DAV:   6    -0.140222742081E+03    0.63389E-06   -0.49884E-06  1632   0.108E-02
  47 F= -.14022274E+03 E0= -.14022097E+03  d E =-.808479E-04
       N       E                     dE             d eps       ncg     rms          rms(c)
DAV:   1    -0.140222725551E+03    0.17163E-04   -0.46399E-02  2720   0.923E-01    0.285E-02
DAV:   2    -0.140222812537E+03   -0.86986E-04   -0.10540E-03  2952   0.130E-01    0.180E-02
DAV:   3    -0.140222805014E+03    0.75238E-05   -0.11864E-05  2032   0.194E-02    0.121E-02
DAV:   4    -0.140222800420E+03    0.45934E-05   -0.30833E-05  2504   0.306E-02    0.430E-03
DAV:   5    -0.140222800658E+03   -0.23757E-06   -0.77570E-06  1432   0.120E-02    0.415E-03
DAV:   6    -0.140222800507E+03    0.15027E-06   -0.11897E-06  1352   0.498E-03
  48 F= -.14022280E+03 E0= -.14022099E+03  d E =-.139274E-03
       N       E                     dE             d eps       ncg     rms          rms(c)
DAV:   1    -0.140222885432E+03   -0.84774E-04   -0.60269E-03  2696   0.342E-01    0.115E-02
DAV:   2    -0.140222895709E+03   -0.10278E-04   -0.14196E-04  2952   0.505E-02    0.644E-03
DAV:   3    -0.140222894542E+03    0.11674E-05   -0.42958E-06  1608   0.113E-02    0.465E-03
DAV:   4    -0.140222893602E+03    0.93981E-06   -0.14831E-06  1552   0.771E-03    0.245E-03
DAV:   5    -0.140222892959E+03    0.64348E-06   -0.15718E-06  1608   0.977E-03    0.139E-03
DAV:   6    -0.140222892980E+03   -0.21617E-07   -0.14055E-06  1448   0.525E-03
  49 F= -.14022289E+03 E0= -.14022109E+03  d E =-.924728E-04
       N       E                     dE             d eps       ncg     rms          rms(c)
DAV:   1    -0.140222980704E+03   -0.87745E-04   -0.54278E-02  2696   0.103E+00    0.348E-02
DAV:   2    -0.140223074594E+03   -0.93890E-04   -0.12849E-03  2960   0.151E-01    0.193E-02
DAV:   3    -0.140223064183E+03    0.10410E-04   -0.37800E-05  2896   0.318E-02    0.145E-02
DAV:   4    -0.140223056036E+03    0.81471E-05   -0.11169E-05  1712   0.208E-02    0.763E-03
DAV:   5    -0.140223050077E+03    0.59591E-05   -0.11463E-05  1776   0.285E-02    0.462E-03
DAV:   6    -0.140223049755E+03    0.32193E-06   -0.11685E-05  1656   0.165E-02
  50 F= -.14022305E+03 E0= -.14022129E+03  d E =-.249248E-03
       N       E                     dE             d eps       ncg     rms          rms(c)
DAV:   1    -0.140223050310E+03   -0.23296E-06   -0.88048E-03  2696   0.414E-01    0.145E-02
DAV:   2    -0.140223065200E+03   -0.14890E-04   -0.21596E-04  2968   0.623E-02    0.828E-03
DAV:   3    -0.140223062678E+03    0.25221E-05   -0.52727E-06  1672   0.140E-02    0.617E-03
DAV:   4    -0.140223059674E+03    0.30040E-05   -0.43105E-06  1712   0.162E-02    0.265E-03
DAV:   5    -0.140223058669E+03    0.10049E-05   -0.42976E-06  1680   0.143E-02    0.240E-03
DAV:   6    -0.140223058652E+03    0.16586E-07   -0.26279E-06  1536   0.714E-03
  51 F= -.14022306E+03 E0= -.14022131E+03  d E =-.258145E-03
       N       E                     dE             d eps       ncg     rms          rms(c)
DAV:   1    -0.140223132483E+03   -0.73815E-04   -0.43049E-03  2688   0.287E-01    0.101E-02
DAV:   2    -0.140223139671E+03   -0.71877E-05   -0.90016E-05  2944   0.380E-02    0.609E-03
DAV:   3    -0.140223138920E+03    0.75123E-06   -0.17145E-06  1632   0.793E-03    0.395E-03
DAV:   4    -0.140223138409E+03    0.51086E-06   -0.13642E-06  1616   0.874E-03    0.194E-03
DAV:   5    -0.140223138174E+03    0.23514E-06   -0.10538E-06  1544   0.730E-03    0.117E-03
DAV:   6    -0.140223138104E+03    0.70253E-07   -0.51270E-07  1464   0.400E-03
  52 F= -.14022314E+03 E0= -.14022140E+03  d E =-.794513E-04
       N       E                     dE             d eps       ncg     rms          rms(c)
DAV:   1    -0.140223247871E+03   -0.10970E-03   -0.38750E-02  2688   0.859E-01    0.294E-02
DAV:   2    -0.140223313217E+03   -0.65346E-04   -0.80693E-04  2944   0.113E-01    0.179E-02
DAV:   3    -0.140223307454E+03    0.57627E-05   -0.15424E-05  2088   0.206E-02    0.115E-02
DAV:   4    -0.140223304418E+03    0.30360E-05   -0.10422E-05  1864   0.202E-02    0.555E-03
DAV:   5    -0.140223303619E+03    0.79943E-06   -0.63878E-06  1672   0.147E-02    0.319E-03
DAV:   6    -0.140223303332E+03    0.28707E-06   -0.18728E-06  1608   0.711E-03
  53 F= -.14022330E+03 E0= -.14022158E+03  d E =-.244680E-03
       N       E                     dE             d eps       ncg     rms          rms(c)
DAV:   1    -0.140223067868E+03    0.23575E-03   -0.15504E-01  2688   0.172E+00    0.587E-02
DAV:   2    -0.140223328950E+03   -0.26108E-03   -0.32347E-03  2928   0.227E-01    0.360E-02
DAV:   3    -0.140223305967E+03    0.22983E-04   -0.69426E-05  3232   0.413E-02    0.233E-02
DAV:   4    -0.140223293732E+03    0.12235E-04   -0.33679E-05  2696   0.355E-02    0.118E-02
DAV:   5    -0.140223289113E+03    0.46190E-05   -0.14696E-05  1944   0.258E-02    0.525E-03
DAV:   6    -0.140223287711E+03    0.14024E-05   -0.73453E-06  1664   0.155E-02
  54 F= -.14022329E+03 E0= -.14022160E+03  d E =-.229058E-03
       N       E                     dE             d eps       ncg     rms          rms(c)
DAV:   1    -0.140223287095E+03    0.20181E-05   -0.43784E-02  2688   0.913E-01    0.306E-02
DAV:   2    -0.140223359051E+03   -0.71956E-04   -0.90372E-04  2896   0.120E-01    0.195E-02
DAV:   3    -0.140223352257E+03    0.67948E-05   -0.17304E-05  2144   0.203E-02    0.126E-02
DAV:   4    -0.140223348862E+03    0.33950E-05   -0.11441E-05  1840   0.200E-02    0.581E-03
DAV:   5    -0.140223348466E+03    0.39569E-06   -0.68661E-06  1664   0.129E-02    0.336E-03
DAV:   6    -0.140223348250E+03    0.21552E-06   -0.10813E-06  1504   0.471E-03
  55 F= -.14022335E+03 E0= -.14022164E+03  d E =-.289598E-03
       N       E                     dE             d eps       ncg     rms          rms(c)
DAV:   1    -0.140223437864E+03   -0.89398E-04   -0.16010E-02  2696   0.545E-01    0.194E-02
DAV:   2    -0.140223468850E+03   -0.30986E-04   -0.37337E-04  2888   0.773E-02    0.101E-02
DAV:   3    -0.140223466411E+03    0.24393E-05   -0.72713E-06  1688   0.144E-02    0.697E-03
DAV:   4    -0.140223464549E+03    0.18621E-05   -0.40084E-06  1632   0.120E-02    0.303E-03
DAV:   5    -0.140223464038E+03    0.51084E-06   -0.27729E-06  1576   0.107E-02    0.208E-03
DAV:   6    -0.140223463944E+03    0.93719E-07   -0.16371E-06  1488   0.721E-03
  56 F= -.14022346E+03 E0= -.14022177E+03  d E =-.115694E-03
       N       E                     dE             d eps       ncg     rms          rms(c)
DAV:   1    -0.140223423865E+03    0.40173E-04   -0.14410E-01  2696   0.164E+00    0.574E-02
DAV:   2    -0.140223709061E+03   -0.28520E-03   -0.33780E-03  2888   0.231E-01    0.304E-02
DAV:   3    -0.140223686122E+03    0.22940E-04   -0.60471E-05  3184   0.399E-02    0.213E-02
DAV:   4    -0.140223668928E+03    0.17194E-04   -0.33837E-05  2680   0.326E-02    0.958E-03
DAV:   5    -0.140223663139E+03    0.57887E-05   -0.15782E-05  1904   0.293E-02    0.578E-03
DAV:   6    -0.140223660661E+03    0.24785E-05   -0.15038E-05  2072   0.272E-02
  57 F= -.14022366E+03 E0= -.14022200E+03  d E =-.312410E-03
       N       E                     dE             d eps       ncg     rms          rms(c)
DAV:   1    -0.140223628131E+03    0.35009E-04   -0.29819E-02  2696   0.745E-01    0.263E-02
DAV:   2    -0.140223685735E+03   -0.57604E-04   -0.70005E-04  2912   0.105E-01    0.140E-02
DAV:   3    -0.140223679304E+03    0.64305E-05   -0.94040E-06  1872   0.185E-02    0.962E-03
DAV:   4    -0.140223672264E+03    0.70406E-05   -0.12015E-05  1816   0.261E-02    0.347E-03
DAV:   5    -0.140223671407E+03    0.85642E-06   -0.94808E-06  1632   0.161E-02    0.345E-03
DAV:   6    -0.140223670859E+03    0.54806E-06   -0.26957E-06  1608   0.871E-03
  58 F= -.14022367E+03 E0= -.14022203E+03  d E =-.322609E-03
       N       E                     dE             d eps       ncg     rms          rms(c)
DAV:   1    -0.140223728143E+03   -0.56735E-04   -0.16306E-02  2688   0.553E-01    0.178E-02
DAV:   2    -0.140223760190E+03   -0.32047E-04   -0.36224E-04  2896   0.757E-02    0.989E-03
DAV:   3    -0.140223757506E+03    0.26847E-05   -0.37233E-06  1648   0.117E-02    0.668E-03
DAV:   4    -0.140223754692E+03    0.28138E-05   -0.64090E-06  1712   0.186E-02    0.203E-03
DAV:   5    -0.140223754658E+03    0.33840E-07   -0.43637E-06  1632   0.101E-02    0.237E-03
DAV:   6    -0.140223754391E+03    0.26734E-06   -0.73810E-07  1608   0.496E-03
  59 F= -.14022375E+03 E0= -.14022212E+03  d E =-.835313E-04
       N       E                     dE             d eps       ncg     rms          rms(c)
DAV:   1    -0.140223640061E+03    0.11460E-03   -0.14698E-01  2688   0.166E+00    0.535E-02
DAV:   2    -0.140223932046E+03   -0.29199E-03   -0.32657E-03  2864   0.227E-01    0.301E-02
DAV:   3    -0.140223910506E+03    0.21540E-04   -0.37934E-05  2872   0.330E-02    0.199E-02
DAV:   4    -0.140223893594E+03    0.16912E-04   -0.46520E-05  2976   0.426E-02    0.640E-03
DAV:   5    -0.140223893161E+03    0.43285E-06   -0.20173E-05  2136   0.236E-02    0.511E-03
DAV:   6    -0.140223890897E+03    0.22639E-05   -0.54336E-06  1664   0.188E-02
  60 F= -.14022389E+03 E0= -.14022228E+03  d E =-.220038E-03
       N       E                     dE             d eps       ncg     rms          rms(c)
DAV:   1    -0.140223983068E+03   -0.89907E-04   -0.16320E-02  2712   0.555E-01    0.174E-02
DAV:   2    -0.140224012356E+03   -0.29288E-04   -0.33958E-04  2976   0.754E-02    0.103E-02
DAV:   3    -0.140224009638E+03    0.27174E-05   -0.47035E-06  1704   0.128E-02    0.713E-03
DAV:   4    -0.140224006382E+03    0.32557E-05   -0.57927E-06  1720   0.180E-02    0.253E-03
DAV:   5    -0.140224005846E+03    0.53655E-06   -0.35643E-06  1648   0.112E-02    0.237E-03
DAV:   6    -0.140224005364E+03    0.48236E-06   -0.13564E-06  1608   0.793E-03
  61 F= -.14022401E+03 E0= -.14022239E+03  d E =-.114466E-03
       N       E                     dE             d eps       ncg     rms          rms(c)
DAV:   1    -0.140223970471E+03    0.35375E-04   -0.10435E-01  2712   0.140E+00    0.441E-02
DAV:   2    -0.140224160055E+03   -0.18958E-03   -0.22045E-03  2944   0.191E-01    0.259E-02
DAV:   3    -0.140224144816E+03    0.15239E-04   -0.34761E-05  2752   0.312E-02    0.180E-02
DAV:   4    -0.140224130775E+03    0.14041E-04   -0.34903E-05  2864   0.378E-02    0.745E-03
DAV:   5    -0.140224128787E+03    0.19885E-05   -0.14030E-05  1648   0.235E-02    0.612E-03
DAV:   6    -0.140224126779E+03    0.20074E-05   -0.11021E-05  1712   0.239E-02
  62 F= -.14022413E+03 E0= -.14022251E+03  d E =-.235882E-03
       N       E                     dE             d eps       ncg     rms          rms(c)
DAV:   1    -0.140224166645E+03   -0.37859E-04   -0.24938E-02  2688   0.676E-01    0.231E-02
DAV:   2    -0.140224219056E+03   -0.52411E-04   -0.57150E-04  2880   0.937E-02    0.127E-02
DAV:   3    -0.140224215539E+03    0.35175E-05   -0.62744E-06  1728   0.147E-02    0.852E-03
DAV:   4    -0.140224212872E+03    0.26668E-05   -0.95799E-06  1648   0.206E-02    0.297E-03
DAV:   5    -0.140224212936E+03   -0.63947E-07   -0.50671E-06  1624   0.114E-02    0.325E-03
DAV:   6    -0.140224212790E+03    0.14653E-06   -0.11016E-06  1576   0.523E-03
  63 F= -.14022421E+03 E0= -.14022260E+03  d E =-.860103E-04
       N       E                     dE             d eps       ncg     rms          rms(c)
DAV:   1    -0.140224015985E+03    0.19695E-03   -0.16664E-01  2688   0.175E+00    0.599E-02
DAV:   2    -0.140224361658E+03   -0.34567E-03   -0.38252E-03  2904   0.243E-01    0.318E-02
DAV:   3    -0.140224341275E+03    0.20383E-04   -0.52554E-05  3120   0.393E-02    0.221E-02
DAV:   4    -0.140224326746E+03    0.14529E-04   -0.56233E-05  2976   0.469E-02    0.910E-03
DAV:   5    -0.140224325373E+03    0.13735E-05   -0.22730E-05  2120   0.280E-02    0.807E-03
DAV:   6    -0.140224323438E+03    0.19351E-05   -0.10351E-05  1616   0.185E-02
  64 F= -.14022432E+03 E0= -.14022270E+03  d E =-.196658E-03
       N       E                     dE             d eps       ncg     rms          rms(c)
DAV:   1    -0.140224365423E+03   -0.40050E-04   -0.56659E-02  2696   0.103E+00    0.353E-02
DAV:   2    -0.140224473404E+03   -0.10798E-03   -0.12512E-03  2896   0.142E-01    0.192E-02
DAV:   3    -0.140224464082E+03    0.93220E-05   -0.21931E-05  2176   0.268E-02    0.128E-02
DAV:   4    -0.140224456587E+03    0.74947E-05   -0.13020E-05  1976   0.267E-02    0.502E-03
DAV:   5    -0.140224454871E+03    0.17168E-05   -0.99902E-06  1688   0.208E-02    0.349E-03
DAV:   6    -0.140224454311E+03    0.55933E-06   -0.50527E-06  1608   0.133E-02
  65 F= -.14022445E+03 E0= -.14022282E+03  d E =-.130873E-03
       N       E                     dE             d eps       ncg     rms          rms(c)
DAV:   1    -0.140224433606E+03    0.21265E-04   -0.27320E-02  2696   0.719E-01    0.243E-02
DAV:   2    -0.140224484454E+03   -0.50848E-04   -0.60313E-04  2944   0.993E-02    0.133E-02
DAV:   3    -0.140224479167E+03    0.52862E-05   -0.10669E-05  1808   0.203E-02    0.900E-03
DAV:   4    -0.140224473917E+03    0.52509E-05   -0.73677E-06  1800   0.233E-02    0.343E-03
DAV:   5    -0.140224472484E+03    0.14322E-05   -0.73123E-06  1664   0.186E-02    0.267E-03
DAV:   6    -0.140224471891E+03    0.59344E-06   -0.36015E-06  1608   0.120E-02
  66 F= -.14022447E+03 E0= -.14022283E+03  d E =-.148453E-03
       N       E                     dE             d eps       ncg     rms          rms(c)
DAV:   1    -0.140224463299E+03    0.91854E-05   -0.63979E-02  2704   0.111E+00    0.358E-02
DAV:   2    -0.140224588064E+03   -0.12477E-03   -0.14085E-03  2936   0.152E-01    0.194E-02
DAV:   3    -0.140224579347E+03    0.87176E-05   -0.19963E-05  2192   0.244E-02    0.133E-02
DAV:   4    -0.140224572017E+03    0.73301E-05   -0.17691E-05  1968   0.293E-02    0.480E-03
DAV:   5    -0.140224571657E+03    0.35928E-06   -0.11913E-05  1608   0.194E-02    0.468E-03
DAV:   6    -0.140224571473E+03    0.18401E-06   -0.36706E-06  1528   0.882E-03
  67 F= -.14022457E+03 E0= -.14022292E+03  d E =-.995823E-04
       N       E                     dE             d eps       ncg     rms          rms(c)
DAV:   1    -0.140224528473E+03    0.43185E-04   -0.37222E-02  2704   0.844E-01    0.284E-02
DAV:   2    -0.140224599981E+03   -0.71508E-04   -0.82258E-04  2968   0.117E-01    0.148E-02
DAV:   3    -0.140224594459E+03    0.55217E-05   -0.13118E-05  1928   0.216E-02    0.102E-02
DAV:   4    -0.140224589373E+03    0.50861E-05   -0.99674E-06  1736   0.254E-02    0.398E-03
DAV:   5    -0.140224588546E+03    0.82719E-06   -0.93989E-06  1704   0.196E-02    0.390E-03
DAV:   6    -0.140224588562E+03   -0.15613E-07   -0.41853E-06  1568   0.881E-03
  68 F= -.14022459E+03 E0= -.14022292E+03  d E =-.116671E-03
       N       E                     dE             d eps       ncg     rms          rms(c)
DAV:   1    -0.140224597621E+03   -0.90746E-05   -0.50168E-02  2688   0.984E-01    0.324E-02
DAV:   2    -0.140224699251E+03   -0.10163E-03   -0.11630E-03  2928   0.140E-01    0.171E-02
DAV:   3    -0.140224691647E+03    0.76043E-05   -0.17781E-05  1976   0.228E-02    0.119E-02
DAV:   4    -0.140224684504E+03    0.71431E-05   -0.13482E-05  1776   0.264E-02    0.432E-03
DAV:   5    -0.140224683286E+03    0.12182E-05   -0.10187E-05  1632   0.198E-02    0.425E-03
DAV:   6    -0.140224683004E+03    0.28184E-06   -0.40691E-06  1584   0.926E-03
  69 F= -.14022468E+03 E0= -.14022301E+03  d E =-.944425E-04
       N       E                     dE             d eps       ncg     rms          rms(c)
DAV:   1    -0.140224654419E+03    0.28867E-04   -0.27501E-02  2688   0.729E-01    0.238E-02
DAV:   2    -0.140224707548E+03   -0.53129E-04   -0.63151E-04  2944   0.104E-01    0.129E-02
DAV:   3    -0.140224701696E+03    0.58526E-05   -0.11251E-05  1736   0.209E-02    0.922E-03
DAV:   4    -0.140224694908E+03    0.67877E-05   -0.67809E-06  1704   0.238E-02    0.403E-03
DAV:   5    -0.140224691098E+03    0.38097E-05   -0.76384E-06  1688   0.241E-02    0.323E-03
DAV:   6    -0.140224690154E+03    0.94452E-06   -0.63727E-06  1624   0.132E-02
  70 F= -.14022469E+03 E0= -.14022302E+03  d E =-.101592E-03
       N       E                     dE             d eps       ncg     rms          rms(c)
DAV:   1    -0.140224683085E+03    0.80130E-05   -0.36891E-02  2792   0.829E-01    0.244E-02
DAV:   2    -0.140224746378E+03   -0.63293E-04   -0.77298E-04  2968   0.115E-01    0.155E-02
DAV:   3    -0.140224737847E+03    0.85313E-05   -0.10858E-05  1736   0.227E-02    0.109E-02
DAV:   4    -0.140224725514E+03    0.12333E-04   -0.13095E-05  1912   0.378E-02    0.387E-03
DAV:   5    -0.140224723366E+03    0.21472E-05   -0.18233E-05  1968   0.242E-02    0.373E-03
DAV:   6    -0.140224722467E+03    0.89942E-06   -0.54412E-06  1608   0.112E-02
  71 F= -.14022472E+03 E0= -.14022305E+03  d E =-.323132E-04
