       N       E                     dE             d eps       ncg     rms          rms(c)
DAV:   1     0.471739530149E+03    0.47174E+03   -0.41244E+04  6092   0.132E+03
DAV:   2    -0.923451040208E+02   -0.56408E+03   -0.53571E+03  7966   0.249E+02
DAV:   3    -0.147244586303E+03   -0.54899E+02   -0.54570E+02  7080   0.838E+01
DAV:   4    -0.147963521878E+03   -0.71894E+00   -0.71753E+00  7152   0.104E+01
DAV:   5    -0.147974543828E+03   -0.11022E-01   -0.11016E-01  7144   0.127E+00    0.219E+01
DAV:   6    -0.133575081980E+03    0.14399E+02   -0.83204E+01  7008   0.292E+01    0.749E+00
DAV:   7    -0.133453116493E+03    0.12197E+00   -0.16865E+00  6738   0.514E+00    0.456E+00
DAV:   8    -0.133356465000E+03    0.96651E-01   -0.50357E-01  7006   0.395E+00    0.830E-01
DAV:   9    -0.133338048689E+03    0.18416E-01   -0.84383E-02  6876   0.120E+00    0.492E-01
DAV:  10    -0.133337247493E+03    0.80120E-03   -0.37039E-02  6840   0.802E-01    0.243E-01
DAV:  11    -0.133338082655E+03   -0.83516E-03   -0.34222E-03  6928   0.254E-01    0.171E-01
DAV:  12    -0.133338041194E+03    0.41462E-04   -0.15518E-03  8842   0.242E-01    0.763E-02
DAV:  13    -0.133337999055E+03    0.42138E-04   -0.12889E-03  6916   0.150E-01    0.315E-02
DAV:  14    -0.133337986169E+03    0.12887E-04   -0.80483E-05  6990   0.455E-02    0.214E-02
DAV:  15    -0.133337978199E+03    0.79694E-05   -0.24564E-05  5252   0.227E-02
   1 F= -.13333798E+03 E0= -.13333545E+03  d E =-.133338E+03
       N       E                     dE             d eps       ncg     rms          rms(c)
DAV:   1    -0.133339011198E+03   -0.10250E-02   -0.10265E-02  6442   0.455E-01    0.267E-02
DAV:   2    -0.133338998257E+03    0.12941E-04   -0.48294E-04  7082   0.111E-01    0.182E-02
DAV:   3    -0.133338982821E+03    0.15435E-04   -0.58069E-05  6754   0.391E-02    0.148E-02
DAV:   4    -0.133338966340E+03    0.16481E-04   -0.18832E-05  5226   0.249E-02    0.751E-03
DAV:   5    -0.133338946320E+03    0.20020E-04   -0.33722E-05  6222   0.482E-02    0.771E-03
DAV:   6    -0.133338941876E+03    0.44437E-05   -0.20930E-05  5312   0.319E-02
   2 F= -.13333894E+03 E0= -.13333643E+03  d E =-.963677E-03
       N       E                     dE             d eps       ncg     rms          rms(c)
DAV:   1    -0.133339479324E+03   -0.53300E-03   -0.16386E-02  6202   0.580E-01    0.300E-02
DAV:   2    -0.133339488958E+03   -0.96349E-05   -0.89518E-04  7114   0.137E-01    0.285E-02
DAV:   3    -0.133339463937E+03    0.25021E-04   -0.64278E-05  7006   0.427E-02    0.206E-02
DAV:   4    -0.133339427566E+03    0.36371E-04   -0.91517E-05  6938   0.516E-02    0.106E-02
DAV:   5    -0.133339410021E+03    0.17544E-04   -0.31747E-05  5892   0.477E-02    0.137E-02
DAV:   6    -0.133339401271E+03    0.87503E-05   -0.30179E-05  5752   0.385E-02
   3 F= -.13333940E+03 E0= -.13333690E+03  d E =-.142307E-02
       N       E                     dE             d eps       ncg     rms          rms(c)
DAV:   1    -0.133339978036E+03   -0.56802E-03   -0.11729E-01  6162   0.148E+00    0.440E-02
DAV:   2    -0.133340209866E+03   -0.23183E-03   -0.26227E-03  6802   0.200E-01    0.264E-02
DAV:   3    -0.133340191695E+03    0.18171E-04   -0.32829E-05  6542   0.356E-02    0.171E-02
DAV:   4    -0.133340177854E+03    0.13841E-04   -0.20983E-05  5100   0.376E-02    0.664E-03
DAV:   5    -0.133340174160E+03    0.36940E-05   -0.19926E-05  4538   0.317E-02    0.439E-03
DAV:   6    -0.133340173847E+03    0.31330E-06   -0.98911E-06  3712   0.142E-02
   4 F= -.13334017E+03 E0= -.13333768E+03  d E =-.772576E-03
       N       E                     dE             d eps       ncg     rms          rms(c)
DAV:   1    -0.133339794652E+03    0.37951E-03   -0.10567E+00  6156   0.444E+00    0.128E-01
DAV:   2    -0.133341862030E+03   -0.20674E-02   -0.23367E-02  6798   0.597E-01    0.779E-02
DAV:   3    -0.133341692659E+03    0.16937E-03   -0.22825E-04  7308   0.102E-01    0.523E-02
DAV:   4    -0.133341537682E+03    0.15498E-03   -0.28646E-04  7588   0.145E-01    0.164E-02
DAV:   5    -0.133341521800E+03    0.15882E-04   -0.22708E-04  7006   0.868E-02    0.147E-02
DAV:   6    -0.133341511075E+03    0.10725E-04   -0.42363E-05  6018   0.333E-02    0.112E-02
DAV:   7    -0.133341484463E+03    0.26612E-04   -0.16893E-05  4644   0.399E-02    0.575E-03
DAV:   8    -0.133341466854E+03    0.17609E-04   -0.79714E-06  4490   0.412E-02    0.620E-03
DAV:   9    -0.133341432918E+03    0.33936E-04   -0.39235E-05  6278   0.110E-01    0.652E-03
DAV:  10    -0.133341417182E+03    0.15736E-04   -0.50704E-05  6434   0.830E-02    0.810E-03
DAV:  11    -0.133341405939E+03    0.11242E-04   -0.30220E-05  5418   0.427E-02    0.573E-03
DAV:  12    -0.133341397643E+03    0.82963E-05   -0.14310E-05  4758   0.551E-02
   5 F= -.13334140E+03 E0= -.13333895E+03  d E =-.199637E-02
       N       E                     dE             d eps       ncg     rms          rms(c)
DAV:   1    -0.133341956059E+03   -0.55012E-03   -0.16358E-01  6286   0.177E+00    0.552E-02
DAV:   2    -0.133342311433E+03   -0.35537E-03   -0.39662E-03  6732   0.253E-01    0.306E-02
DAV:   3    -0.133342290153E+03    0.21280E-04   -0.50118E-05  6900   0.374E-02    0.225E-02
DAV:   4    -0.133342271675E+03    0.18479E-04   -0.58821E-05  6516   0.474E-02    0.903E-03
DAV:   5    -0.133342268421E+03    0.32538E-05   -0.23042E-05  5226   0.297E-02    0.957E-03
DAV:   6    -0.133342265152E+03    0.32693E-05   -0.12965E-05  3940   0.225E-02
   6 F= -.13334227E+03 E0= -.13333984E+03  d E =-.867508E-03
       N       E                     dE             d eps       ncg     rms          rms(c)
DAV:   1    -0.133340946959E+03    0.13215E-02   -0.14668E+00  6252   0.532E+00    0.160E-01
DAV:   2    -0.133344102896E+03   -0.31559E-02   -0.35216E-02  6714   0.761E-01    0.933E-02
DAV:   3    -0.133343907011E+03    0.19589E-03   -0.46631E-04  7228   0.108E-01    0.685E-02
DAV:   4    -0.133343726194E+03    0.18082E-03   -0.43636E-04  7090   0.120E-01    0.275E-02
DAV:   5    -0.133343670814E+03    0.55380E-04   -0.18074E-04  6902   0.898E-02    0.256E-02
DAV:   6    -0.133343627680E+03    0.43133E-04   -0.10162E-04  6686   0.713E-02    0.112E-02
DAV:   7    -0.133343579100E+03    0.48580E-04   -0.55207E-05  7224   0.885E-02    0.142E-02
DAV:   8    -0.133343516031E+03    0.63069E-04   -0.24866E-05  5560   0.105E-01    0.133E-02
DAV:   9    -0.133343457523E+03    0.58507E-04   -0.61129E-05  7204   0.114E-01    0.995E-03
DAV:  10    -0.133343413970E+03    0.43553E-04   -0.49040E-05  6604   0.107E-01    0.885E-03
DAV:  11    -0.133343367554E+03    0.46416E-04   -0.85363E-05  7780   0.187E-01    0.842E-03
DAV:  12    -0.133343375634E+03   -0.80799E-05   -0.15388E-04  6372   0.789E-02    0.717E-03
DAV:  13    -0.133343380236E+03   -0.46019E-05   -0.83512E-05  6232   0.333E-02
   7 F= -.13334338E+03 E0= -.13334102E+03  d E =-.198259E-02
       N       E                     dE             d eps       ncg     rms          rms(c)
DAV:   1    -0.133343702439E+03   -0.32680E-03   -0.13075E-01  6184   0.158E+00    0.461E-02
DAV:   2    -0.133343961358E+03   -0.25892E-03   -0.28873E-03  6636   0.215E-01    0.267E-02
DAV:   3    -0.133343946721E+03    0.14636E-04   -0.46458E-05  6812   0.352E-02    0.187E-02
DAV:   4    -0.133343936569E+03    0.10152E-04   -0.27782E-05  5496   0.319E-02    0.858E-03
DAV:   5    -0.133343934044E+03    0.25256E-05   -0.13768E-05  4236   0.238E-02    0.572E-03
DAV:   6    -0.133343933101E+03    0.94293E-06   -0.84618E-06  3778   0.184E-02
   8 F= -.13334393E+03 E0= -.13334160E+03  d E =-.552865E-03
       N       E                     dE             d eps       ncg     rms          rms(c)
DAV:   1    -0.133343010399E+03    0.92364E-03   -0.11774E+00  6160   0.473E+00    0.137E-01
DAV:   2    -0.133345411239E+03   -0.24008E-02   -0.26066E-02  6616   0.638E-01    0.769E-02
DAV:   3    -0.133345280237E+03    0.13100E-03   -0.23991E-04  7254   0.830E-02    0.536E-02
DAV:   4    -0.133345185471E+03    0.94766E-04   -0.39211E-04  7178   0.125E-01    0.176E-02
DAV:   5    -0.133345194575E+03   -0.91039E-05   -0.16805E-04  6724   0.552E-02    0.216E-02
DAV:   6    -0.133345190027E+03    0.45483E-05   -0.13979E-05  3704   0.171E-02
   9 F= -.13334519E+03 E0= -.13334294E+03  d E =-.180979E-02
       N       E                     dE             d eps       ncg     rms          rms(c)
DAV:   1    -0.133337061760E+03    0.81328E-02   -0.47100E+00  6148   0.949E+00    0.274E-01
DAV:   2    -0.133346718196E+03   -0.96564E-02   -0.10493E-01  6622   0.128E+00    0.157E-01
DAV:   3    -0.133346182126E+03    0.53607E-03   -0.10369E-03  7272   0.173E-01    0.108E-01
DAV:   4    -0.133345804254E+03    0.37787E-03   -0.14333E-03  7252   0.238E-01    0.363E-02
DAV:   5    -0.133345829604E+03   -0.25349E-04   -0.62899E-04  6984   0.110E-01    0.403E-02
DAV:   6    -0.133345809639E+03    0.19964E-04   -0.81758E-05  6574   0.403E-02    0.228E-02
DAV:   7    -0.133345794356E+03    0.15284E-04   -0.73498E-05  6630   0.356E-02    0.948E-03
DAV:   8    -0.133345789860E+03    0.44952E-05   -0.10663E-05  4326   0.253E-02
  10 F= -.13334579E+03 E0= -.13334371E+03  d E =-.240962E-02
       N       E                     dE             d eps       ncg     rms          rms(c)
DAV:   1    -0.133346466944E+03   -0.67259E-03   -0.34487E-01  6108   0.261E+00    0.776E-02
DAV:   2    -0.133347169136E+03   -0.70219E-03   -0.77356E-03  6920   0.360E-01    0.431E-02
DAV:   3    -0.133347135341E+03    0.33794E-04   -0.92317E-05  7236   0.454E-02    0.307E-02
DAV:   4    -0.133347109086E+03    0.26255E-04   -0.14690E-04  7084   0.616E-02    0.144E-02
DAV:   5    -0.133347105625E+03    0.34613E-05   -0.30409E-05  5668   0.278E-02    0.152E-02
DAV:   6    -0.133347098060E+03    0.75653E-05   -0.30360E-05  5438   0.333E-02
  11 F= -.13334710E+03 E0= -.13334507E+03  d E =-.130820E-02
       N       E                     dE             d eps       ncg     rms          rms(c)
DAV:   1    -0.133345196290E+03    0.19093E-02   -0.15764E+00  6084   0.558E+00    0.168E-01
DAV:   2    -0.133348386565E+03   -0.31903E-02   -0.35429E-02  6952   0.769E-01    0.919E-02
DAV:   3    -0.133348206857E+03    0.17971E-03   -0.44782E-04  7276   0.102E-01    0.638E-02
DAV:   4    -0.133348031317E+03    0.17554E-03   -0.60890E-04  7230   0.131E-01    0.309E-02
DAV:   5    -0.133347987289E+03    0.44028E-04   -0.14504E-04  7212   0.694E-02    0.324E-02
DAV:   6    -0.133347918727E+03    0.68562E-04   -0.14495E-04  7390   0.872E-02    0.136E-02
DAV:   7    -0.133347887114E+03    0.31614E-04   -0.65441E-05  6658   0.535E-02    0.153E-02
DAV:   8    -0.133347825302E+03    0.61812E-04   -0.23906E-05  5586   0.641E-02    0.760E-03
DAV:   9    -0.133347722132E+03    0.10317E-03   -0.13206E-04  7688   0.159E-01    0.213E-02
DAV:  10    -0.133347688901E+03    0.33232E-04   -0.11351E-04  6920   0.911E-02    0.142E-02
DAV:  11    -0.133347662175E+03    0.26726E-04   -0.11741E-04  7252   0.113E-01    0.132E-02
DAV:  12    -0.133347635761E+03    0.26414E-04   -0.33622E-05  5996   0.128E-01    0.772E-03
DAV:  13    -0.133347638082E+03   -0.23212E-05   -0.83106E-05  6306   0.579E-02
  12 F= -.13334764E+03 E0= -.13334573E+03  d E =-.184822E-02
       N       E                     dE             d eps       ncg     rms          rms(c)
DAV:   1    -0.133347561135E+03    0.74625E-04   -0.13438E-01  6106   0.163E+00    0.499E-02
DAV:   2    -0.133347828676E+03   -0.26754E-03   -0.30333E-03  6962   0.227E-01    0.267E-02
DAV:   3    -0.133347814159E+03    0.14517E-04   -0.46787E-05  6732   0.332E-02    0.190E-02
DAV:   4    -0.133347801371E+03    0.12788E-04   -0.43268E-05  6598   0.365E-02    0.866E-03
DAV:   5    -0.133347797358E+03    0.40127E-05   -0.13229E-05  4276   0.227E-02    0.874E-03
DAV:   6    -0.133347792853E+03    0.45055E-05   -0.72065E-06  3974   0.235E-02
  13 F= -.13334779E+03 E0= -.13334586E+03  d E =-.200299E-02
       N       E                     dE             d eps       ncg     rms          rms(c)
DAV:   1    -0.133347673772E+03    0.12359E-03   -0.84625E-01  6180   0.398E+00    0.110E-01
DAV:   2    -0.133349328526E+03   -0.16548E-02   -0.17976E-02  6820   0.536E-01    0.672E-02
DAV:   3    -0.133349208030E+03    0.12050E-03   -0.14732E-04  7312   0.750E-02    0.455E-02
DAV:   4    -0.133349077504E+03    0.13053E-03   -0.28167E-04  7256   0.145E-01    0.114E-02
DAV:   5    -0.133349080871E+03   -0.33662E-05   -0.22948E-04  6774   0.714E-02    0.171E-02
DAV:   6    -0.133349078998E+03    0.18729E-05   -0.18730E-05  4470   0.174E-02
  14 F= -.13334908E+03 E0= -.13334718E+03  d E =-.128614E-02
       N       E                     dE             d eps       ncg     rms          rms(c)
DAV:   1    -0.133346596731E+03    0.24841E-02   -0.18292E+00  6172   0.586E+00    0.170E-01
DAV:   2    -0.133350162502E+03   -0.35658E-02   -0.39233E-02  6858   0.792E-01    0.964E-02
DAV:   3    -0.133349875316E+03    0.28719E-03   -0.32783E-04  7288   0.125E-01    0.652E-02
DAV:   4    -0.133349547100E+03    0.32822E-03   -0.58511E-04  7682   0.231E-01    0.195E-02
DAV:   5    -0.133349520655E+03    0.26445E-04   -0.55093E-04  6892   0.124E-01    0.256E-02
DAV:   6    -0.133349515440E+03    0.52144E-05   -0.81844E-05  6106   0.357E-02
  15 F= -.13334952E+03 E0= -.13334766E+03  d E =-.172259E-02
       N       E                     dE             d eps       ncg     rms          rms(c)
DAV:   1    -0.133349211132E+03    0.30952E-03   -0.89615E-01  6160   0.419E+00    0.137E-01
DAV:   2    -0.133351088677E+03   -0.18775E-02   -0.21910E-02  6830   0.600E-01    0.722E-02
DAV:   3    -0.133350935822E+03    0.15286E-03   -0.32044E-04  7218   0.963E-02    0.518E-02
DAV:   4    -0.133350831230E+03    0.10459E-03   -0.19715E-04  7002   0.914E-02    0.267E-02
DAV:   5    -0.133350720555E+03    0.11067E-03   -0.11284E-04  7468   0.103E-01    0.113E-02
DAV:   6    -0.133350664561E+03    0.55994E-04   -0.84858E-05  6828   0.623E-02    0.917E-03
DAV:   7    -0.133350578391E+03    0.86170E-04   -0.15774E-05  5094   0.734E-02    0.796E-03
DAV:   8    -0.133350409321E+03    0.16907E-03   -0.15048E-04  8196   0.198E-01    0.246E-02
DAV:   9    -0.133350369819E+03    0.39502E-04   -0.13779E-04  7224   0.960E-02    0.149E-02
DAV:  10    -0.133350296596E+03    0.73223E-04   -0.15203E-04  9596   0.228E-01    0.153E-02
DAV:  11    -0.133350290430E+03    0.61664E-05   -0.22021E-04  7258   0.151E-01    0.152E-02
DAV:  12    -0.133350297922E+03   -0.74923E-05   -0.14261E-04  6384   0.418E-02    0.158E-02
DAV:  13    -0.133350292717E+03    0.52056E-05   -0.26842E-05  5020   0.301E-02
  16 F= -.13335029E+03 E0= -.13334846E+03  d E =-.777276E-03
       N       E                     dE             d eps       ncg     rms          rms(c)
DAV:   1    -0.133349851868E+03    0.44605E-03   -0.37439E-01  6168   0.271E+00    0.795E-02
DAV:   2    -0.133350650746E+03   -0.79888E-03   -0.90147E-03  6794   0.387E-01    0.464E-02
DAV:   3    -0.133350609416E+03    0.41330E-04   -0.16469E-04  7242   0.564E-02    0.345E-02
DAV:   4    -0.133350584399E+03    0.25017E-04   -0.65600E-05  6714   0.384E-02    0.179E-02
DAV:   5    -0.133350569935E+03    0.14464E-04   -0.43081E-05  6612   0.357E-02    0.943E-03
DAV:   6    -0.133350568202E+03    0.17330E-05   -0.16307E-05  4386   0.198E-02
  17 F= -.13335057E+03 E0= -.13334874E+03  d E =-.105276E-02
       N       E                     dE             d eps       ncg     rms          rms(c)
DAV:   1    -0.133351749096E+03   -0.11792E-02   -0.16946E-01  6112   0.180E+00    0.641E-02
DAV:   2    -0.133352041602E+03   -0.29251E-03   -0.44020E-03  7048   0.289E-01    0.396E-02
DAV:   3    -0.133352005617E+03    0.35986E-04   -0.22942E-04  7086   0.716E-02    0.313E-02
DAV:   4    -0.133351974041E+03    0.31576E-04   -0.46002E-05  6582   0.317E-02    0.182E-02
DAV:   5    -0.133351921625E+03    0.52416E-04   -0.53529E-05  6520   0.652E-02    0.133E-02
DAV:   6    -0.133351890868E+03    0.30756E-04   -0.25102E-05  5714   0.635E-02    0.131E-02
DAV:   7    -0.133351863231E+03    0.27638E-04   -0.30602E-05  5552   0.672E-02    0.870E-03
DAV:   8    -0.133351815869E+03    0.47362E-04   -0.39543E-05  6564   0.119E-01    0.721E-03
DAV:   9    -0.133351794760E+03    0.21109E-04   -0.64457E-05  6198   0.648E-02    0.792E-03
DAV:  10    -0.133351774407E+03    0.20353E-04   -0.15223E-05  4952   0.669E-02    0.826E-03
DAV:  11    -0.133351757001E+03    0.17406E-04   -0.37373E-05  6392   0.101E-01    0.817E-03
DAV:  12    -0.133351757804E+03   -0.80307E-06   -0.80967E-05  6124   0.631E-02
  18 F= -.13335176E+03 E0= -.13334994E+03  d E =-.118960E-02
       N       E                     dE             d eps       ncg     rms          rms(c)
DAV:   1    -0.133351801985E+03   -0.44984E-04   -0.12749E-02  6334   0.497E-01    0.165E-02
DAV:   2    -0.133351825616E+03   -0.23631E-04   -0.32164E-04  6966   0.746E-02    0.132E-02
DAV:   3    -0.133351821164E+03    0.44518E-05   -0.87197E-06  4034   0.159E-02    0.908E-03
DAV:   4    -0.133351815559E+03    0.56049E-05   -0.15294E-05  4486   0.221E-02    0.463E-03
DAV:   5    -0.133351813840E+03    0.17197E-05   -0.42590E-06  3690   0.128E-02    0.463E-03
DAV:   6    -0.133351810930E+03    0.29099E-05   -0.25384E-06  3734   0.189E-02
  19 F= -.13335181E+03 E0= -.13334999E+03  d E =-.124273E-02
       N       E                     dE             d eps       ncg     rms          rms(c)
DAV:   1    -0.133352231526E+03   -0.41769E-03   -0.97395E-02  6484   0.138E+00    0.429E-02
DAV:   2    -0.133352407908E+03   -0.17638E-03   -0.24672E-03  7010   0.205E-01    0.296E-02
DAV:   3    -0.133352373657E+03    0.34250E-04   -0.47888E-05  6960   0.411E-02    0.213E-02
DAV:   4    -0.133352331542E+03    0.42116E-04   -0.57206E-05  6396   0.539E-02    0.990E-03
DAV:   5    -0.133352316326E+03    0.15216E-04   -0.44875E-05  6554   0.385E-02    0.921E-03
DAV:   6    -0.133352308130E+03    0.81962E-05   -0.23519E-05  5070   0.280E-02
  20 F= -.13335231E+03 E0= -.13335049E+03  d E =-.497200E-03
       N       E                     dE             d eps       ncg     rms          rms(c)
DAV:   1    -0.133352308454E+03    0.78718E-05   -0.64030E-02  6476   0.112E+00    0.342E-02
DAV:   2    -0.133352411810E+03   -0.10336E-03   -0.15800E-03  7060   0.168E-01    0.243E-02
DAV:   3    -0.133352385614E+03    0.26196E-04   -0.41197E-05  6592   0.348E-02    0.173E-02
DAV:   4    -0.133352350703E+03    0.34911E-04   -0.28962E-05  6068   0.355E-02    0.901E-03
DAV:   5    -0.133352328319E+03    0.22384E-04   -0.27320E-05  5514   0.386E-02    0.640E-03
DAV:   6    -0.133352311195E+03    0.17124E-04   -0.30481E-05  5732   0.477E-02    0.531E-03
DAV:   7    -0.133352301896E+03    0.92987E-05   -0.22551E-05  5170   0.365E-02
  21 F= -.13335230E+03 E0= -.13335047E+03  d E =-.490967E-03
       N       E                     dE             d eps       ncg     rms          rms(c)
DAV:   1    -0.133352315726E+03   -0.45310E-05   -0.66297E-03  6550   0.362E-01    0.106E-02
DAV:   2    -0.133352327043E+03   -0.11317E-04   -0.18373E-04  7000   0.595E-02    0.104E-02
DAV:   3    -0.133352324231E+03    0.28120E-05   -0.65276E-06  3710   0.144E-02    0.818E-03
DAV:   4    -0.133352320602E+03    0.36289E-05   -0.26966E-06  3934   0.123E-02    0.485E-03
DAV:   5    -0.133352316674E+03    0.39285E-05   -0.43873E-06  4110   0.215E-02    0.332E-03
DAV:   6    -0.133352316203E+03    0.47058E-06   -0.50631E-06  3628   0.117E-02
  22 F= -.13335232E+03 E0= -.13335049E+03  d E =-.505274E-03
       N       E                     dE             d eps       ncg     rms          rms(c)
DAV:   1    -0.133352316596E+03    0.78361E-07   -0.18532E-03  6494   0.191E-01    0.571E-03
DAV:   2    -0.133352319007E+03   -0.24116E-05   -0.47815E-05  6394   0.311E-02    0.470E-03
DAV:   3    -0.133352317983E+03    0.10242E-05   -0.19054E-06  3626   0.896E-03    0.386E-03
DAV:   4    -0.133352316579E+03    0.14040E-05   -0.72848E-07  3696   0.885E-03    0.227E-03
DAV:   5    -0.133352314947E+03    0.16323E-05   -0.16976E-06  4054   0.154E-02    0.185E-03
DAV:   6    -0.133352314862E+03    0.84422E-07   -0.24340E-06  3398   0.742E-03
  23 F= -.13335231E+03 E0= -.13335049E+03  d E =-.503933E-03
       N       E                     dE             d eps       ncg     rms          rms(c)
DAV:   1    -0.133352481624E+03   -0.16668E-03   -0.43146E-02  6516   0.882E-01    0.260E-02
DAV:   2    -0.133352547519E+03   -0.65895E-04   -0.88212E-04  6988   0.124E-01    0.165E-02
DAV:   3    -0.133352538509E+03    0.90104E-05   -0.23696E-05  5012   0.271E-02    0.114E-02
DAV:   4    -0.133352532370E+03    0.61387E-05   -0.91483E-06  4080   0.199E-02    0.636E-03
DAV:   5    -0.133352526825E+03    0.55454E-05   -0.82961E-06  4228   0.256E-02    0.276E-03
DAV:   6    -0.133352526442E+03    0.38283E-06   -0.69823E-06  3662   0.124E-02
  24 F= -.13335253E+03 E0= -.13335069E+03  d E =-.211580E-03
       N       E                     dE             d eps       ncg     rms          rms(c)
DAV:   1    -0.133352539812E+03   -0.12988E-04   -0.62437E-02  6498   0.106E+00    0.312E-02
DAV:   2    -0.133352625324E+03   -0.85512E-04   -0.12688E-03  7006   0.152E-01    0.203E-02
DAV:   3    -0.133352607266E+03    0.18058E-04   -0.42581E-05  6716   0.391E-02    0.147E-02
DAV:   4    -0.133352593616E+03    0.13650E-04   -0.11398E-05  4136   0.260E-02    0.944E-03
DAV:   5    -0.133352569422E+03    0.24193E-04   -0.16049E-05  5078   0.503E-02    0.474E-03
DAV:   6    -0.133352565163E+03    0.42590E-05   -0.17210E-05  4338   0.215E-02
  25 F= -.13335257E+03 E0= -.13335072E+03  d E =-.250301E-03
       N       E                     dE             d eps       ncg     rms          rms(c)
DAV:   1    -0.133352708484E+03   -0.13906E-03   -0.25852E-02  6606   0.715E-01    0.253E-02
DAV:   2    -0.133352746901E+03   -0.38417E-04   -0.73064E-04  6880   0.109E-01    0.165E-02
DAV:   3    -0.133352730648E+03    0.16254E-04   -0.21833E-05  5112   0.256E-02    0.113E-02
DAV:   4    -0.133352724260E+03    0.63874E-05   -0.75600E-06  3846   0.153E-02    0.888E-03
DAV:   5    -0.133352699729E+03    0.24531E-04   -0.47227E-06  4444   0.349E-02    0.543E-03
DAV:   6    -0.133352663742E+03    0.35987E-04   -0.22119E-05  5532   0.662E-02    0.566E-03
DAV:   7    -0.133352626521E+03    0.37222E-04   -0.41316E-05  6452   0.113E-01    0.676E-03
DAV:   8    -0.133352611104E+03    0.15417E-04   -0.61551E-05  6630   0.781E-02    0.685E-03
DAV:   9    -0.133352612609E+03   -0.15054E-05   -0.35479E-05  5396   0.212E-02
  26 F= -.13335261E+03 E0= -.13335077E+03  d E =-.474455E-04
       N       E                     dE             d eps       ncg     rms          rms(c)
DAV:   1    -0.133352628901E+03   -0.17797E-04   -0.75689E-03  6750   0.387E-01    0.143E-02
DAV:   2    -0.133352641967E+03   -0.13067E-04   -0.22713E-04  6888   0.601E-02    0.916E-03
DAV:   3    -0.133352638274E+03    0.36935E-05   -0.66854E-06  4050   0.128E-02    0.637E-03
DAV:   4    -0.133352637224E+03    0.10496E-05   -0.19367E-06  3650   0.704E-03    0.492E-03
DAV:   5    -0.133352633157E+03    0.40673E-05   -0.92745E-07  3786   0.145E-02    0.287E-03
DAV:   6    -0.133352627495E+03    0.56623E-05   -0.32309E-06  4174   0.251E-02
  27 F= -.13335263E+03 E0= -.13335078E+03  d E =-.623312E-04
       N       E                     dE             d eps       ncg     rms          rms(c)
DAV:   1    -0.133352845254E+03   -0.21210E-03   -0.87338E-03  6750   0.412E-01    0.172E-02
DAV:   2    -0.133352855413E+03   -0.10159E-04   -0.27898E-04  7094   0.715E-02    0.116E-02
DAV:   3    -0.133352851160E+03    0.42534E-05   -0.19643E-05  4730   0.212E-02    0.839E-03
DAV:   4    -0.133352849560E+03    0.15993E-05   -0.42770E-06  3722   0.111E-02    0.598E-03
DAV:   5    -0.133352846982E+03    0.25785E-05   -0.31916E-06  4086   0.140E-02    0.303E-03
DAV:   6    -0.133352845847E+03    0.11344E-05   -0.31074E-06  3818   0.150E-02
  28 F= -.13335285E+03 E0= -.13335099E+03  d E =-.218353E-03
       N       E                     dE             d eps       ncg     rms          rms(c)
DAV:   1    -0.133352977334E+03   -0.13035E-03   -0.29973E-02  6624   0.766E-01    0.324E-02
DAV:   2    -0.133353011178E+03   -0.33843E-04   -0.10048E-03  7084   0.144E-01    0.224E-02
DAV:   3    -0.133352993962E+03    0.17216E-04   -0.76689E-05  6818   0.420E-02    0.179E-02
DAV:   4    -0.133352983696E+03    0.10266E-04   -0.10643E-05  4144   0.186E-02    0.131E-02
DAV:   5    -0.133352958533E+03    0.25163E-04   -0.24242E-05  5798   0.459E-02    0.726E-03
DAV:   6    -0.133352947004E+03    0.11529E-04   -0.15013E-05  4746   0.385E-02    0.721E-03
DAV:   7    -0.133352937089E+03    0.99147E-05   -0.19682E-05  4850   0.427E-02
  29 F= -.13335294E+03 E0= -.13335108E+03  d E =-.309595E-03
       N       E                     dE             d eps       ncg     rms          rms(c)
DAV:   1    -0.133352934639E+03    0.12366E-04   -0.83289E-04  6504   0.135E-01    0.629E-03
DAV:   2    -0.133352936290E+03   -0.16519E-05   -0.62034E-05  6626   0.329E-02    0.801E-03
DAV:   3    -0.133352934154E+03    0.21365E-05   -0.29727E-06  3680   0.803E-03    0.549E-03
DAV:   4    -0.133352930664E+03    0.34904E-05   -0.58064E-06  3860   0.116E-02    0.280E-03
DAV:   5    -0.133352928688E+03    0.19754E-05   -0.13952E-06  3742   0.104E-02    0.299E-03
DAV:   6    -0.133352924712E+03    0.39767E-05   -0.13036E-06  4002   0.227E-02
  30 F= -.13335292E+03 E0= -.13335107E+03  d E =-.297217E-03
       N       E                     dE             d eps       ncg     rms          rms(c)
DAV:   1    -0.133352922105E+03    0.65836E-05   -0.52694E-03  6736   0.320E-01    0.141E-02
DAV:   2    -0.133352930012E+03   -0.79077E-05   -0.17176E-04  7088   0.553E-02    0.843E-03
DAV:   3    -0.133352927629E+03    0.23837E-05   -0.11092E-05  4138   0.161E-02    0.587E-03
DAV:   4    -0.133352926912E+03    0.71646E-06   -0.27150E-06  3602   0.848E-03    0.409E-03
DAV:   5    -0.133352925863E+03    0.10494E-05   -0.12299E-06  3602   0.810E-03    0.227E-03
DAV:   6    -0.133352925205E+03    0.65798E-06   -0.12474E-06  3964   0.107E-02
  31 F= -.13335293E+03 E0= -.13335107E+03  d E =-.297710E-03
       N       E                     dE             d eps       ncg     rms          rms(c)
DAV:   1    -0.133352931605E+03   -0.57420E-05   -0.12173E-03  6684   0.154E-01    0.656E-03
DAV:   2    -0.133352933000E+03   -0.13955E-05   -0.37196E-05  6010   0.270E-02    0.421E-03
DAV:   3    -0.133352932512E+03    0.48851E-06   -0.31477E-06  3338   0.832E-03    0.311E-03
DAV:   4    -0.133352932283E+03    0.22901E-06   -0.68637E-07  3206   0.418E-03    0.209E-03
DAV:   5    -0.133352931979E+03    0.30364E-06   -0.51625E-07  3380   0.471E-03    0.102E-03
DAV:   6    -0.133352931882E+03    0.97052E-07   -0.30553E-07  3368   0.414E-03
  32 F= -.13335293E+03 E0= -.13335107E+03  d E =-.304387E-03
       N       E                     dE             d eps       ncg     rms          rms(c)
DAV:   1    -0.133353005362E+03   -0.73383E-04   -0.48572E-03  6516   0.302E-01    0.109E-02
DAV:   2    -0.133353012325E+03   -0.69632E-05   -0.12903E-04  6892   0.457E-02    0.666E-03
DAV:   3    -0.133353010245E+03    0.20795E-05   -0.39467E-06  3812   0.924E-03    0.484E-03
DAV:   4    -0.133353007860E+03    0.23855E-05   -0.21114E-06  3876   0.104E-02    0.263E-03
DAV:   5    -0.133353005699E+03    0.21607E-05   -0.31247E-06  4020   0.119E-02    0.169E-03
DAV:   6    -0.133353004609E+03    0.10901E-05   -0.13541E-06  3688   0.742E-03
  33 F= -.13335300E+03 E0= -.13335114E+03  d E =-.727271E-04
