       N       E                     dE             d eps       ncg     rms          rms(c)
DAV:   1     0.943821925051E+02    0.94382E+02   -0.56034E+03   690   0.799E+02
DAV:   2    -0.215763479966E+02   -0.11596E+03   -0.99041E+02   925   0.139E+02
DAV:   3    -0.257718133562E+02   -0.41955E+01   -0.41149E+01   820   0.305E+01
DAV:   4    -0.259364169010E+02   -0.16460E+00   -0.16417E+00   915   0.757E+00
DAV:   5    -0.259454681384E+02   -0.90512E-02   -0.90497E-02  1105   0.165E+00    0.285E+00
DAV:   6    -0.253858516245E+02    0.55962E+00   -0.16554E+00   725   0.480E+00    0.160E+00
DAV:   7    -0.252678863233E+02    0.11797E+00   -0.28679E-01   810   0.281E+00    0.713E-01
DAV:   8    -0.252324987329E+02    0.35388E-01   -0.12361E-01   860   0.167E+00    0.275E-01
DAV:   9    -0.252254509334E+02    0.70478E-02   -0.31388E-02   835   0.892E-01    0.173E-01
DAV:  10    -0.252197175327E+02    0.57334E-02   -0.86985E-03   870   0.469E-01    0.104E-01
DAV:  11    -0.252144448131E+02    0.52727E-02   -0.23820E-03   795   0.246E-01    0.797E-02
DAV:  12    -0.252065633030E+02    0.78815E-02   -0.51782E-03   725   0.259E-01    0.564E-02
DAV:  13    -0.252027323388E+02    0.38310E-02   -0.18565E-03   790   0.174E-01    0.452E-02
DAV:  14    -0.251987657806E+02    0.39666E-02   -0.18483E-03   675   0.138E-01    0.361E-02
DAV:  15    -0.251957661976E+02    0.29996E-02   -0.88183E-04   785   0.104E-01    0.303E-02
DAV:  16    -0.251958069772E+02   -0.40780E-04   -0.10987E-03   690   0.123E-01    0.247E-02
DAV:  17    -0.251951146428E+02    0.69233E-03   -0.55296E-04   710   0.841E-02    0.203E-02
DAV:  18    -0.251947057767E+02    0.40887E-03   -0.25425E-04   765   0.568E-02    0.165E-02
DAV:  19    -0.251944519921E+02    0.25378E-03   -0.17112E-04   740   0.439E-02    0.143E-02
DAV:  20    -0.251941133424E+02    0.33865E-03   -0.80652E-05   795   0.316E-02    0.120E-02
DAV:  21    -0.251939240113E+02    0.18933E-03   -0.21592E-05   775   0.219E-02    0.104E-02
DAV:  22    -0.251936410933E+02    0.28292E-03   -0.95087E-05   665   0.274E-02    0.829E-03
DAV:  23    -0.251935980633E+02    0.43030E-04   -0.48954E-06   690   0.103E-02    0.720E-03
DAV:  24    -0.251937352970E+02   -0.13723E-03   -0.55636E-05   705   0.221E-02    0.595E-03
DAV:  25    -0.251938588084E+02   -0.12351E-03   -0.28579E-05   705   0.193E-02    0.512E-03
DAV:  26    -0.251939285667E+02   -0.69758E-04   -0.61419E-06   695   0.101E-02    0.406E-03
DAV:  27    -0.251940040459E+02   -0.75479E-04   -0.68359E-06   720   0.903E-03    0.323E-03
DAV:  28    -0.251940766816E+02   -0.72636E-04   -0.21939E-06   585   0.721E-03    0.241E-03
DAV:  29    -0.251941328366E+02   -0.56155E-04   -0.61423E-06   620   0.769E-03    0.192E-03
DAV:  30    -0.251942004287E+02   -0.67592E-04   -0.27124E-06   550   0.535E-03    0.130E-03
DAV:  31    -0.251942244547E+02   -0.24026E-04   -0.16937E-06   555   0.584E-03    0.114E-03
DAV:  32    -0.251942532275E+02   -0.28773E-04   -0.15171E-06   525   0.447E-03    0.630E-04
DAV:  33    -0.251942608322E+02   -0.76047E-05   -0.39496E-07   490   0.289E-03    0.618E-04
DAV:  34    -0.251942630704E+02   -0.22382E-05   -0.18369E-07   465   0.219E-03    0.449E-04
DAV:  35    -0.251942629239E+02    0.14651E-06   -0.28636E-07   475   0.216E-03
   1 F= -.25194263E+02 E0= -.25193664E+02  d E =-.119733E-02
