 vasp.5.4.4.18Apr17-6-g9f103f2a35 (build Nov 15 2019 10:10:58) complex          
  
 executed on             LinuxIFC date 2024.09.28  15:11:23
 running on   20 total cores
 distrk:  each k-point on   20 cores,    1 groups
 distr:  one band on NCORES_PER_BAND=   4 cores,    5 groups


--------------------------------------------------------------------------------------------------------


 INCAR:
 POTCAR:   PAW_PBE Al 04Jan2001                   
 POTCAR:   PAW_PBE Al 04Jan2001                   
   VRHFIN =Al: s2p1                                                             
   LEXCH  = PE                                                                  
   EATOM  =    53.5387 eV,    3.9350 Ry                                         
                                                                                
   TITEL  = PAW_PBE Al 04Jan2001                                                
   LULTRA =        F    use ultrasoft PP ?                                      
   IUNSCR =        1    unscreen: 0-lin 1-nonlin 2-no                           
   RPACOR =    1.500    partial core radius                                     
   POMASS =   26.982; ZVAL   =    3.000    mass and valenz                      
   RCORE  =    1.900    outmost cutoff radius                                   
   RWIGS  =    2.650; RWIGS  =    1.402    wigner-seitz radius (au A)           
   ENMAX  =  240.300; ENMIN  =  180.225 eV                                      
   ICORE  =        2    local potential                                         
   LCOR   =        T    correct aug charges                                     
   LPAW   =        T    paw PP                                                  
   EAUG   =  291.052                                                            
   DEXC   =    -.041                                                            
   RMAX   =    2.974    core radius for proj-oper                               
   RAUG   =    1.300    factor for augmentation sphere                          
   RDEP   =    1.966    radius for radial grids                                 
   QCUT   =   -4.203; QGAM   =    8.405    optimization parameters              
                                                                                
   Description                                                                  
     l     E      TYP  RCUT    TYP  RCUT                                        
     0   .000     23  1.900                                                     
     0   .000     23  1.900                                                     
     1   .000     23  1.900                                                     
     1  1.000     23  1.900                                                     
     2   .000      7  1.900                                                     
  local pseudopotential read in
  partial core-charges read in
  atomic valenz-charges read in
  non local Contribution for L=           0  read in
    real space projection operators read in
  non local Contribution for L=           0  read in
    real space projection operators read in
  non local Contribution for L=           1  read in
    real space projection operators read in
  non local Contribution for L=           1  read in
    real space projection operators read in
    PAW grid and wavefunctions read in
 
   number of l-projection  operators is LMAX  =           4
   number of lm-projection operators is LMMAX =           8
 
 PAW_PBE Al 04Jan2001                   :
 energy of atom  1       EATOM=  -53.5387
 kinetic energy error for atom=    0.0004 (will be added to EATOM!!)
 
 
 POSCAR: Layer26                                 
  positions in direct lattice
  velocities in cartesian coordinates
 exchange correlation table for  LEXCH =        8
   RHO(1)=    0.500       N(1)  =     2000
   RHO(2)=  100.500       N(2)  =     4000

 VTST: version 3.2, (02/03/18)

 CHAIN: initializing optimizer
 
 OPT: Using VASP Conjugate-Gradient optimizer
 CHAIN: Read ICHAIN            0
 
 POSCAR: Layer26                                 
  positions in direct lattice
  velocities in cartesian coordinates
 


--------------------------------------------------------------------------------------------------------


 ion  position               nearest neighbor table
   1  0.000  0.000  0.227-   6 2.84   6 2.84   6 2.84
   2  0.000  0.000  0.321-   4 2.82   4 2.82   4 2.82   7 2.83   7 2.83   7 2.83
   3  0.000  0.000  0.413-   5 2.75   5 2.75   5 2.75
   4  0.667  0.333  0.290-   6 2.81   6 2.81   6 2.81   2 2.82   2 2.82   2 2.82
   5  0.667  0.333  0.383-   3 2.75   3 2.75   3 2.75   7 2.83   7 2.83   7 2.83
   6  0.333  0.667  0.259-   4 2.81   4 2.81   4 2.81   1 2.84   1 2.84   1 2.84
   7  0.333  0.667  0.352-   2 2.83   2 2.83   2 2.83   5 2.83   5 2.83   5 2.83
 
  LATTYP: Found a hexagonal cell.
 ALAT       =     2.9934728877
 C/A-ratio  =    23.9760431236
  
  Lattice vectors:
  
 A1 = (   2.5924236677,  -1.4967362682,   0.0000000000)
 A2 = (   0.0000000000,   2.9934725364,   0.0000000000)
 A3 = (   0.0000000000,   0.0000000000,  71.7716350437)


Analysis of symmetry for initial positions (statically):
=====================================================================
 Subroutine PRICEL returns:
 Original cell was already a primitive cell.
 

 Routine SETGRP: Setting up the symmetry group for a 
 hexagonal supercell.


 Subroutine GETGRP returns: Found  6 space group operations
 (whereof  6 operations were pure point group operations)
 out of a pool of 24 trial point group operations.


The static configuration has the point symmetry C_3v.


Analysis of symmetry for dynamics (positions and initial velocities):
=====================================================================
 Subroutine PRICEL returns:
 Original cell was already a primitive cell.
 

 Routine SETGRP: Setting up the symmetry group for a 
 hexagonal supercell.


 Subroutine GETGRP returns: Found  6 space group operations
 (whereof  6 operations were pure point group operations)
 out of a pool of 24 trial point group operations.


The dynamic configuration has the point symmetry C_3v.


Analysis of constrained symmetry for selective dynamics:
=====================================================================
 Subroutine PRICEL returns:
 Original cell was already a primitive cell.
 

 Routine SETGRP: Setting up the symmetry group for a 
 hexagonal supercell.


 Subroutine GETGRP returns: Found  6 space group operations
 (whereof  6 operations were pure point group operations)
 out of a pool of 24 trial point group operations.


The constrained configuration has the point symmetry C_3v.


 Subroutine INISYM returns: Found  6 space group operations
 (whereof  6 operations are pure point group operations),
 and found     1 'primitive' translations

 
 
 KPOINTS: K-Spacing Value to Generate K-Mesh: 0.02

Automatic generation of k-mesh.
Space group operators:
 irot       det(A)        alpha          n_x          n_y          n_z        tau_x        tau_y        tau_z
    1     1.000000     0.000001     1.000000     0.000000     0.000000     0.000000     0.000000     0.000000
    2     1.000000   120.000000    -0.000000    -0.000000    -1.000000     0.000000     0.000000     0.000000
    3     1.000000   120.000000     0.000000    -0.000000     1.000000     0.000000     0.000000     0.000000
    4    -1.000000   180.000000    -0.866025     0.500000     0.000000     0.000000     0.000000     0.000000
    5    -1.000000   180.000000     0.000000     1.000000     0.000000     0.000000     0.000000     0.000000
    6    -1.000000   180.000000    -0.866025    -0.500000     0.000000     0.000000     0.000000     0.000000
 
 Subroutine IBZKPT returns following result:
 ===========================================
 
 Found     21 irreducible k-points:
 
 Following reciprocal coordinates:
            Coordinates               Weight
  0.000000  0.000000  0.000000      1.000000
  0.076923  0.000000  0.000000      6.000000
  0.153846  0.000000  0.000000      6.000000
  0.230769  0.000000  0.000000      6.000000
  0.307692  0.000000  0.000000      6.000000
  0.384615  0.000000  0.000000      6.000000
  0.461538  0.000000  0.000000      6.000000
  0.076923  0.076923  0.000000      6.000000
  0.153846  0.076923  0.000000     12.000000
  0.230769  0.076923  0.000000     12.000000
  0.307692  0.076923  0.000000     12.000000
  0.384615  0.076923  0.000000     12.000000
  0.461538  0.076923  0.000000      6.000000
  0.153846  0.153846 -0.000000      6.000000
  0.230769  0.153846  0.000000     12.000000
  0.307692  0.153846  0.000000     12.000000
  0.384615  0.153846  0.000000     12.000000
  0.230769  0.230769  0.000000      6.000000
  0.307692  0.230769 -0.000000     12.000000
  0.384615  0.230769  0.000000      6.000000
  0.307692  0.307692  0.000000      6.000000
 
 Following cartesian coordinates:
            Coordinates               Weight
  0.000000  0.000000  0.000000      1.000000
  0.029672  0.000000 -0.000000      6.000000
  0.059345  0.000000 -0.000000      6.000000
  0.089017  0.000000 -0.000000      6.000000
  0.118689  0.000000 -0.000000      6.000000
  0.148361  0.000000 -0.000000      6.000000
  0.178034  0.000000 -0.000000      6.000000
  0.044508  0.025697 -0.000000      6.000000
  0.074181  0.025697 -0.000000     12.000000
  0.103853  0.025697 -0.000000     12.000000
  0.133525  0.025697 -0.000000     12.000000
  0.163197  0.025697 -0.000000     12.000000
  0.192870  0.025697 -0.000000      6.000000
  0.089017  0.051394 -0.000000      6.000000
  0.118689  0.051394 -0.000000     12.000000
  0.148361  0.051394 -0.000000     12.000000
  0.178034  0.051394 -0.000000     12.000000
  0.133525  0.077091 -0.000000      6.000000
  0.163197  0.077091 -0.000000     12.000000
  0.192870  0.077091 -0.000000      6.000000
  0.178034  0.102788 -0.000000      6.000000
 


--------------------------------------------------------------------------------------------------------




 Dimension of arrays:
   k-points           NKPTS =     21   k-points in BZ     NKDIM =     21   number of bands    NBANDS=     15
   number of dos      NEDOS =    301   number of ions     NIONS =      7
   non local maximal  LDIM  =      4   non local SUM 2l+1 LMDIM =      8
   total plane-waves  NPLWV = 322560
   max r-space proj   IRMAX =      1   max aug-charges    IRDMAX= 180495
   dimension x,y,z NGX =    24 NGY =   24 NGZ =  560
   dimension x,y,z NGXF=    48 NGYF=   48 NGZF= 1120
   support grid    NGXF=    96 NGYF=   96 NGZF= 2240
   ions per type =               7
   NGX,Y,Z   is equivalent  to a cutoff of  13.33, 13.33, 12.97 a.u.
   NGXF,Y,Z  is equivalent  to a cutoff of  26.66, 26.66, 25.94 a.u.

 Based on PREC, I would recommend the following setting:
   dimension x,y,z NGX =    24 NGY =   24 NGZ =  500

 SYSTEM =  unknown system                          
 POSCAR =  Layer26                                 

 Startparameter for this run:
   NWRITE =      2    write-flag & timer
   PREC   = accura    normal or accurate (medium, high low for compatibility)
   ISTART =      0    job   : 0-new  1-cont  2-samecut
   ICHARG =      2    charge: 1-file 2-atom 10-const
   ISPIN  =      1    spin polarized calculation?
   LNONCOLLINEAR =      F non collinear calculations
   LSORBIT =      F    spin-orbit coupling
   INIWAV =      1    electr: 0-lowe 1-rand  2-diag
   LASPH  =      F    aspherical Exc in radial PAW
   METAGGA=      F    non-selfconsistent MetaGGA calc.

 Electronic Relaxation 1
   ENCUT  =  450.0 eV  33.07 Ry    5.75 a.u.   5.18  5.18124.14*2*pi/ulx,y,z
   ENINI  =  450.0     initial cutoff
   ENAUG  =  291.1 eV  augmentation charge cutoff
   NELM   =    100;   NELMIN=  6; NELMDL=  0     # of ELM steps 
   EDIFF  = 0.1E-05   stopping-criterion for ELM
   LREAL  =      F    real-space projection
   NLSPLINE    = F    spline interpolate recip. space projectors
   LCOMPAT=      F    compatible to vasp.4.4
   GGA_COMPAT  = T    GGA compatible to vasp.4.4-vasp.4.6
   LMAXPAW     = -100 max onsite density
   LMAXMIX     =    2 max onsite mixed and CHGCAR
   VOSKOWN=      0    Vosko Wilk Nusair interpolation
   ROPT   =    0.00000
 Ionic relaxation
   EDIFFG = -.2E-01   stopping-criterion for IOM
   NSW    =      0    number of steps for IOM
   NBLOCK =      1;   KBLOCK =      1    inner block; outer block 
   IBRION =     -1    ionic relax: 0-MD 1-quasi-New 2-CG
   NFREE  =      1    steps in history (QN), initial steepest desc. (CG)
   ISIF   =      4    stress and relaxation
   IWAVPR =     10    prediction:  0-non 1-charg 2-wave 3-comb
   ISYM   =      2    0-nonsym 1-usesym 2-fastsym
   LCORR  =      T    Harris-Foulkes like correction to forces

   POTIM  = 0.5000    time-step for ionic-motion
   TEIN   =    0.0    initial temperature
   TEBEG  =    0.0;   TEEND  =   0.0 temperature during run
   SMASS  =  -3.00    Nose mass-parameter (am)
   estimated Nose-frequenzy (Omega)   =  0.10E-29 period in steps =****** mass=  -0.205E-27a.u.
   SCALEE = 1.0000    scale energy and forces
   NPACO  =    256;   APACO  = 16.0  distance and # of slots for P.C.
   PSTRESS=    0.0 pullay stress

  Mass of Ions in am
   POMASS =  26.98
  Ionic Valenz
   ZVAL   =   3.00
  Atomic Wigner-Seitz radii
   RWIGS  =  -1.00
  virtual crystal weights 
   VCA    =   1.00
   NELECT =      21.0000    total number of electrons
   NUPDOWN=      -1.0000    fix difference up-down

 DOS related values:
   EMIN   =  10.00;   EMAX   =-10.00  energy-range for DOS
   EFERMI =   0.00
   ISMEAR =     0;   SIGMA  =   0.05  broadening in eV -4-tet -1-fermi 0-gaus

 Electronic relaxation 2 (details)
   IALGO  =     38    algorithm
   LDIAG  =      T    sub-space diagonalisation (order eigenvalues)
   LSUBROT=      F    optimize rotation matrix (better conditioning)
   TURBO    =      0    0=normal 1=particle mesh
   IRESTART =      0    0=no restart 2=restart with 2 vectors
   NREBOOT  =      0    no. of reboots
   NMIN     =      0    reboot dimension
   EREF     =   0.00    reference energy to select bands
   IMIX   =      4    mixing-type and parameters
     AMIX     =   0.40;   BMIX     =  1.00
     AMIX_MAG =   1.60;   BMIX_MAG =  1.00
     AMIN     =   0.01
     WC   =   100.;   INIMIX=   1;  MIXPRE=   1;  MAXMIX= -45

 Intra band minimization:
   WEIMIN = 0.0000     energy-eigenvalue tresh-hold
   EBREAK =  0.17E-07  absolut break condition
   DEPER  =   0.30     relativ break condition  

   TIME   =   0.40     timestep for ELM

  volume/ion in A,a.u.               =      79.57       536.95
  Fermi-wavevector in a.u.,A,eV,Ry     =   0.548955  1.037374  4.100134  0.301351
  Thomas-Fermi vector in A             =   1.579873
 
 Write flags
   LWAVE        =      F    write WAVECAR
   LDOWNSAMPLE  =      F    k-point downsampling of WAVECAR
   LCHARG       =      T    write CHGCAR
   LVTOT        =      F    write LOCPOT, total local potential
   LVHAR        =      F    write LOCPOT, Hartree potential only
   LELF         =      F    write electronic localiz. function (ELF)
   LORBIT       =      0    0 simple, 1 ext, 2 COOP (PROOUT), +10 PAW based schemes


 Dipole corrections
   LMONO  =      F    monopole corrections only (constant potential shift)
   LDIPOL =      F    correct potential (dipole corrections)
   IDIPOL =      0    1-x, 2-y, 3-z, 4-all directions 
   EPSILON=  1.0000000 bulk dielectric constant

 Exchange correlation treatment:
   GGA     =    --    GGA type
   LEXCH   =     8    internal setting for exchange type
   VOSKOWN=      0    Vosko Wilk Nusair interpolation
   LHFCALC =     F    Hartree Fock is set to
   LHFONE  =     F    Hartree Fock one center treatment
   AEXX    =    0.0000 exact exchange contribution

 Linear response parameters
   LEPSILON=     F    determine dielectric tensor
   LRPA    =     F    only Hartree local field effects (RPA)
   LNABLA  =     F    use nabla operator in PAW spheres
   LVEL    =     F    velocity operator in full k-point grid
   LINTERFAST=   F  fast interpolation
   KINTER  =     0    interpolate to denser k-point grid
   CSHIFT  =0.1000    complex shift for real part using Kramers Kronig
   OMEGAMAX=  -1.0    maximum frequency
   DEG_THRESHOLD= 0.2000000E-02 threshold for treating states as degnerate
   RTIME   =   -0.100 relaxation time in fs
  (WPLASMAI=    0.000 imaginary part of plasma frequency in eV, 0.658/RTIME)
   DFIELD  = 0.0000000 0.0000000 0.0000000 field for delta impulse in time
 
 Orbital magnetization related:
   ORBITALMAG=     F  switch on orbital magnetization
   LCHIMAG   =     F  perturbation theory with respect to B field
   DQ        =  0.001000  dq finite difference perturbation B field
   LLRAUG    =     F  two centre corrections for induced B field



--------------------------------------------------------------------------------------------------------


 Static calculation
 charge density and potential will be updated during run
 non-spin polarized calculation
 Variant of blocked Davidson
 Davidson routine will perform the subspace rotation
 perform sub-space diagonalisation
    after iterative eigenvector-optimisation
 modified Broyden-mixing scheme, WC =      100.0
 initial mixing is a Kerker type mixing with AMIX =  0.4000 and BMIX =      1.0000
 Hartree-type preconditioning will be used
 using additional bands            4
 reciprocal scheme for non local part
 use partial core corrections
 calculate Harris-corrections to forces 
   (improved forces if not selfconsistent)
 use gradient corrections 
 use of overlap-Matrix (Vanderbilt PP)
 Gauss-broadening in eV      SIGMA  =   0.05


--------------------------------------------------------------------------------------------------------


  energy-cutoff  :      450.00
  volume of cell :      556.97
      direct lattice vectors                 reciprocal lattice vectors
     2.592423668 -1.496736268  0.000000000     0.385739419  0.000000000 -0.000000000
     0.000000000  2.993472536  0.000000000     0.192869710  0.334060189 -0.000000000
     0.000000000  0.000000000 71.771635044     0.000000000  0.000000000  0.013933081

  length of vectors
     2.993472888  2.993472536 71.771635044     0.385739419  0.385739465  0.013933081


 
 k-points in units of 2pi/SCALE and weight: K-Spacing Value to Generate K-Mesh: 0.02
   0.00000000  0.00000000  0.00000000       0.006
   0.02967226  0.00000000 -0.00000000       0.036
   0.05934453  0.00000000 -0.00000000       0.036
   0.08901679  0.00000000 -0.00000000       0.036
   0.11868905  0.00000000 -0.00000000       0.036
   0.14836132  0.00000000 -0.00000000       0.036
   0.17803358  0.00000000 -0.00000000       0.036
   0.04450839  0.02569694 -0.00000000       0.036
   0.07418066  0.02569694 -0.00000000       0.071
   0.10385292  0.02569694 -0.00000000       0.071
   0.13352518  0.02569694 -0.00000000       0.071
   0.16319745  0.02569694 -0.00000000       0.071
   0.19286971  0.02569694 -0.00000000       0.036
   0.08901679  0.05139388 -0.00000000       0.036
   0.11868905  0.05139388 -0.00000000       0.071
   0.14836132  0.05139388 -0.00000000       0.071
   0.17803358  0.05139388 -0.00000000       0.071
   0.13352518  0.07709081 -0.00000000       0.036
   0.16319745  0.07709081 -0.00000000       0.071
   0.19286971  0.07709081 -0.00000000       0.036
   0.17803358  0.10278775 -0.00000000       0.036
 
 k-points in reciprocal lattice and weights: K-Spacing Value to Generate K-Mesh: 0.02
   0.00000000  0.00000000  0.00000000       0.006
   0.07692308  0.00000000  0.00000000       0.036
   0.15384615  0.00000000  0.00000000       0.036
   0.23076923  0.00000000  0.00000000       0.036
   0.30769231  0.00000000  0.00000000       0.036
   0.38461538  0.00000000  0.00000000       0.036
   0.46153846  0.00000000  0.00000000       0.036
   0.07692308  0.07692308  0.00000000       0.036
   0.15384615  0.07692308  0.00000000       0.071
   0.23076923  0.07692308  0.00000000       0.071
   0.30769231  0.07692308  0.00000000       0.071
   0.38461538  0.07692308  0.00000000       0.071
   0.46153846  0.07692308  0.00000000       0.036
   0.15384615  0.15384615 -0.00000000       0.036
   0.23076923  0.15384615  0.00000000       0.071
   0.30769231  0.15384615  0.00000000       0.071
   0.38461538  0.15384615  0.00000000       0.071
   0.23076923  0.23076923  0.00000000       0.036
   0.30769231  0.23076923 -0.00000000       0.071
   0.38461538  0.23076923  0.00000000       0.036
   0.30769231  0.30769231  0.00000000       0.036
 
 position of ions in fractional coordinates (direct lattice) 
   0.00000000  0.00000000  0.22724465
   0.00000000  0.00000000  0.32062857
   0.00000000  0.00000000  0.41285754
   0.66666700  0.33333300  0.28957991
   0.66666700  0.33333300  0.38312783
   0.33333300  0.66666700  0.25866693
   0.33333300  0.66666700  0.35186115
 
 position of ions in cartesian coordinates  (Angst):
   0.00000000  0.00000000 16.30972001
   0.00000000  0.00000000 23.01203701
   0.00000000  0.00000000 29.63146037
   1.72828331 -0.00000150 20.78362380
   1.72828331 -0.00000150 27.49771047
   0.86414036  1.49673776 18.56494833
   0.86414036  1.49673776 25.25364996
 


--------------------------------------------------------------------------------------------------------


 k-point  1 :   0.0000 0.0000 0.0000  plane waves:   12033
 k-point  2 :   0.0769 0.0000 0.0000  plane waves:   11989
 k-point  3 :   0.1538 0.0000 0.0000  plane waves:   11949
 k-point  4 :   0.2308 0.0000 0.0000  plane waves:   12057
 k-point  5 :   0.3077 0.0000 0.0000  plane waves:   12091
 k-point  6 :   0.3846 0.0000 0.0000  plane waves:   12151
 k-point  7 :   0.4615 0.0000 0.0000  plane waves:   12159
 k-point  8 :   0.0769 0.0769 0.0000  plane waves:   11971
 k-point  9 :   0.1538 0.0769 0.0000  plane waves:   12022
 k-point 10 :   0.2308 0.0769 0.0000  plane waves:   12088
 k-point 11 :   0.3077 0.0769 0.0000  plane waves:   12122
 k-point 12 :   0.3846 0.0769 0.0000  plane waves:   12119
 k-point 13 :   0.4615 0.0769 0.0000  plane waves:   12096
 k-point 14 :   0.1538 0.1538-0.0000  plane waves:   12041
 k-point 15 :   0.2308 0.1538 0.0000  plane waves:   12060
 k-point 16 :   0.3077 0.1538 0.0000  plane waves:   12105
 k-point 17 :   0.3846 0.1538 0.0000  plane waves:   12119
 k-point 18 :   0.2308 0.2308 0.0000  plane waves:   12075
 k-point 19 :   0.3077 0.2308-0.0000  plane waves:   12076
 k-point 20 :   0.3846 0.2308 0.0000  plane waves:   12061
 k-point 21 :   0.3077 0.3077 0.0000  plane waves:   12039

 maximum and minimum number of plane-waves per node :      3093     2972

 maximum number of plane-waves:     12159
 maximum index in each direction: 
   IXMAX=    5   IYMAX=    5   IZMAX=  124
   IXMIN=   -5   IYMIN=   -5   IZMIN= -124


 parallel 3D FFT for wavefunctions:
    minimum data exchange during FFTs selected (reduces bandwidth)
 parallel 3D FFT for charge:
    minimum data exchange during FFTs selected (reduces bandwidth)


 total amount of memory used by VASP MPI-rank0    70625. kBytes
=======================================================================

   base      :      30000. kBytes
   nonl-proj :       4418. kBytes
   fftplans  :      22144. kBytes
   grid      :      10978. kBytes
   one-center:          6. kBytes
   wavefun   :       3079. kBytes
 
     INWAV:  cpu time    0.0000: real time    0.0001
 Broyden mixing: mesh for mixing (old mesh)
   NGX = 11   NGY = 11   NGZ =249
  (NGX  = 48   NGY  = 48   NGZ  =***)
  gives a total of  30129 points

 initial charge density was supplied:
 charge density of overlapping atoms calculated
 number of electron      21.0000000 magnetization 
 keeping initial charge density in first step


--------------------------------------------------------------------------------------------------------


 Maximum index for augmentation-charges         9341 (set IRDMAX)


--------------------------------------------------------------------------------------------------------


 First call to EWALD:  gamma=   0.215
 Maximum number of real-space cells 8x 8x 1
 Maximum number of reciprocal cells 1x 1x20

    FEWALD:  cpu time    0.0013: real time    0.0013


--------------------------------------- Iteration      1(   1)  ---------------------------------------


    POTLOK:  cpu time    0.0872: real time    0.0874
    SETDIJ:  cpu time    0.1046: real time    0.1048
     EDDAV:  cpu time    1.1106: real time    1.1285
       DOS:  cpu time    0.0005: real time    0.0014
    --------------------------------------------
      LOOP:  cpu time    1.3029: real time    1.3221

 eigenvalue-minimisations  :   690
 total energy-change (2. order) : 0.9438219E+02  (-0.5603431E+03)
 number of electron      21.0000000 magnetization 
 augmentation part       21.0000000 magnetization 

 Free energy of the ion-electron system (eV)
  ---------------------------------------------------
  alpha Z        PSCENC =        -0.29549333
  Ewald energy   TEWEN  =     18453.72979959
  -Hartree energ DENC   =    -18729.60257163
  -exchange      EXHF   =         0.00000000
  -V(xc)+E(xc)   XCENC  =      -185.11749438
  PAW double counting   =       248.87978439      -25.19288129
  entropy T*S    EENTRO =        -0.00176173
  eigenvalues    EBANDS =       -42.78503675
  atomic energy  EATOM  =       374.76784764
  Solvation  Ediel_sol  =         0.00000000
  ---------------------------------------------------
  free energy    TOTEN  =        94.38219251 eV

  energy without entropy =       94.38395423  energy(sigma->0) =       94.38307337


--------------------------------------------------------------------------------------------------------




--------------------------------------- Iteration      1(   2)  ---------------------------------------


     EDDAV:  cpu time    1.3725: real time    1.3787
       DOS:  cpu time    0.0007: real time    0.0007
    --------------------------------------------
      LOOP:  cpu time    1.3732: real time    1.3794

 eigenvalue-minimisations  :   925
 total energy-change (2. order) :-0.1159585E+03  (-0.9904129E+02)
 number of electron      21.0000000 magnetization 
 augmentation part       21.0000000 magnetization 

 Free energy of the ion-electron system (eV)
  ---------------------------------------------------
  alpha Z        PSCENC =        -0.29549333
  Ewald energy   TEWEN  =     18453.72979959
  -Hartree energ DENC   =    -18729.60257163
  -exchange      EXHF   =         0.00000000
  -V(xc)+E(xc)   XCENC  =      -185.11749438
  PAW double counting   =       248.87978439      -25.19288129
  entropy T*S    EENTRO =        -0.00328803
  eigenvalues    EBANDS =      -158.74205095
  atomic energy  EATOM  =       374.76784764
  Solvation  Ediel_sol  =         0.00000000
  ---------------------------------------------------
  free energy    TOTEN  =       -21.57634800 eV

  energy without entropy =      -21.57305996  energy(sigma->0) =      -21.57470398


--------------------------------------------------------------------------------------------------------




--------------------------------------- Iteration      1(   3)  ---------------------------------------


     EDDAV:  cpu time    1.2432: real time    1.2464
       DOS:  cpu time    0.0005: real time    0.0005
    --------------------------------------------
      LOOP:  cpu time    1.2438: real time    1.2469

 eigenvalue-minimisations  :   820
 total energy-change (2. order) :-0.4195465E+01  (-0.4114873E+01)
 number of electron      21.0000000 magnetization 
 augmentation part       21.0000000 magnetization 

 Free energy of the ion-electron system (eV)
  ---------------------------------------------------
  alpha Z        PSCENC =        -0.29549333
  Ewald energy   TEWEN  =     18453.72979959
  -Hartree energ DENC   =    -18729.60257163
  -exchange      EXHF   =         0.00000000
  -V(xc)+E(xc)   XCENC  =      -185.11749438
  PAW double counting   =       248.87978439      -25.19288129
  entropy T*S    EENTRO =        -0.00223830
  eigenvalues    EBANDS =      -162.93856604
  atomic energy  EATOM  =       374.76784764
  Solvation  Ediel_sol  =         0.00000000
  ---------------------------------------------------
  free energy    TOTEN  =       -25.77181336 eV

  energy without entropy =      -25.76957505  energy(sigma->0) =      -25.77069420


--------------------------------------------------------------------------------------------------------




--------------------------------------- Iteration      1(   4)  ---------------------------------------


     EDDAV:  cpu time    1.3446: real time    1.3477
       DOS:  cpu time    0.0006: real time    0.0012
    --------------------------------------------
      LOOP:  cpu time    1.3452: real time    1.3489

 eigenvalue-minimisations  :   915
 total energy-change (2. order) :-0.1646035E+00  (-0.1641714E+00)
 number of electron      21.0000000 magnetization 
 augmentation part       21.0000000 magnetization 

 Free energy of the ion-electron system (eV)
  ---------------------------------------------------
  alpha Z        PSCENC =        -0.29549333
  Ewald energy   TEWEN  =     18453.72979959
  -Hartree energ DENC   =    -18729.60257163
  -exchange      EXHF   =         0.00000000
  -V(xc)+E(xc)   XCENC  =      -185.11749438
  PAW double counting   =       248.87978439      -25.19288129
  entropy T*S    EENTRO =        -0.00276686
  eigenvalues    EBANDS =      -163.10264103
  atomic energy  EATOM  =       374.76784764
  Solvation  Ediel_sol  =         0.00000000
  ---------------------------------------------------
  free energy    TOTEN  =       -25.93641690 eV

  energy without entropy =      -25.93365004  energy(sigma->0) =      -25.93503347


--------------------------------------------------------------------------------------------------------




--------------------------------------- Iteration      1(   5)  ---------------------------------------


     EDDAV:  cpu time    1.5857: real time    1.5906
       DOS:  cpu time    0.0005: real time    0.0005
    CHARGE:  cpu time    0.1908: real time    0.1910
    MIXING:  cpu time    0.0048: real time    0.0048
    --------------------------------------------
      LOOP:  cpu time    1.7818: real time    1.7870

 eigenvalue-minimisations  :  1105
 total energy-change (2. order) :-0.9051237E-02  (-0.9049677E-02)
 number of electron      21.0000000 magnetization 
 augmentation part       -0.2795780 magnetization 

 Broyden mixing:
  rms(total) = 0.28521E+00    rms(broyden)= 0.28521E+00
  rms(prec ) = 0.30856E+00
  weight for this iteration     100.00

 Free energy of the ion-electron system (eV)
  ---------------------------------------------------
  alpha Z        PSCENC =        -0.29549333
  Ewald energy   TEWEN  =     18453.72979959
  -Hartree energ DENC   =    -18729.60257163
  -exchange      EXHF   =         0.00000000
  -V(xc)+E(xc)   XCENC  =      -185.11749438
  PAW double counting   =       248.87978439      -25.19288129
  entropy T*S    EENTRO =        -0.00279037
  eigenvalues    EBANDS =      -163.11166875
  atomic energy  EATOM  =       374.76784764
  Solvation  Ediel_sol  =         0.00000000
  ---------------------------------------------------
  free energy    TOTEN  =       -25.94546814 eV

  energy without entropy =      -25.94267777  energy(sigma->0) =      -25.94407295


--------------------------------------------------------------------------------------------------------




--------------------------------------- Iteration      1(   6)  ---------------------------------------


    POTLOK:  cpu time    0.0907: real time    0.0910
    SETDIJ:  cpu time    0.1030: real time    0.1031
     EDDAV:  cpu time    1.1085: real time    1.1115
       DOS:  cpu time    0.0006: real time    0.0006
    CHARGE:  cpu time    0.1590: real time    0.1592
    MIXING:  cpu time    0.0164: real time    0.0163
    --------------------------------------------
      LOOP:  cpu time    1.4782: real time    1.4819

 eigenvalue-minimisations  :   725
 total energy-change (2. order) : 0.5596165E+00  (-0.1655398E+00)
 number of electron      21.0000000 magnetization 
 augmentation part       -0.2819696 magnetization 

 Broyden mixing:
  rms(total) = 0.15957E+00    rms(broyden)= 0.15957E+00
  rms(prec ) = 0.16357E+00
  weight for this iteration     100.00

 eigenvalues of (default mixing * dielectric matrix)
  average eigenvalue GAMMA=   1.8453
  1.8453

 Free energy of the ion-electron system (eV)
  ---------------------------------------------------
  alpha Z        PSCENC =        -0.29549333
  Ewald energy   TEWEN  =     18453.72979959
  -Hartree energ DENC   =    -18734.86155872
  -exchange      EXHF   =         0.00000000
  -V(xc)+E(xc)   XCENC  =      -184.93328657
  PAW double counting   =       248.92977247      -25.25573812
  entropy T*S    EENTRO =        -0.00116686
  eigenvalues    EBANDS =      -157.46602772
  atomic energy  EATOM  =       374.76784764
  Solvation  Ediel_sol  =         0.00000000
  ---------------------------------------------------
  free energy    TOTEN  =       -25.38585162 eV

  energy without entropy =      -25.38468477  energy(sigma->0) =      -25.38526820


--------------------------------------------------------------------------------------------------------




--------------------------------------- Iteration      1(   7)  ---------------------------------------


    POTLOK:  cpu time    0.0916: real time    0.0919
    SETDIJ:  cpu time    0.1110: real time    0.1111
     EDDAV:  cpu time    1.2911: real time    1.2957
       DOS:  cpu time    0.0005: real time    0.0009
    CHARGE:  cpu time    0.1898: real time    0.1905
    MIXING:  cpu time    0.0085: real time    0.0085
    --------------------------------------------
      LOOP:  cpu time    1.6924: real time    1.6987

 eigenvalue-minimisations  :   810
 total energy-change (2. order) : 0.1179653E+00  (-0.2867926E-01)
 number of electron      21.0000000 magnetization 
 augmentation part       -0.2859403 magnetization 

 Broyden mixing:
  rms(total) = 0.71298E-01    rms(broyden)= 0.71298E-01
  rms(prec ) = 0.78414E-01
  weight for this iteration     100.00

 eigenvalues of (default mixing * dielectric matrix)
  average eigenvalue GAMMA=   1.6991
  1.0424  2.3558

 Free energy of the ion-electron system (eV)
  ---------------------------------------------------
  alpha Z        PSCENC =        -0.29549333
  Ewald energy   TEWEN  =     18453.72979959
  -Hartree energ DENC   =    -18737.67323900
  -exchange      EXHF   =         0.00000000
  -V(xc)+E(xc)   XCENC  =      -184.68148380
  PAW double counting   =       248.92343891      -25.26263592
  entropy T*S    EENTRO =        -0.00108298
  eigenvalues    EBANDS =      -154.77503743
  atomic energy  EATOM  =       374.76784764
  Solvation  Ediel_sol  =         0.00000000
  ---------------------------------------------------
  free energy    TOTEN  =       -25.26788632 eV

  energy without entropy =      -25.26680334  energy(sigma->0) =      -25.26734483


--------------------------------------------------------------------------------------------------------




--------------------------------------- Iteration      1(   8)  ---------------------------------------


    POTLOK:  cpu time    0.0866: real time    0.0887
    SETDIJ:  cpu time    0.1061: real time    0.1062
     EDDAV:  cpu time    1.2990: real time    1.3021
       DOS:  cpu time    0.0007: real time    0.0007
    CHARGE:  cpu time    0.1958: real time    0.1961
    MIXING:  cpu time    0.0079: real time    0.0079
    --------------------------------------------
      LOOP:  cpu time    1.6961: real time    1.7017

 eigenvalue-minimisations  :   860
 total energy-change (2. order) : 0.3538759E-01  (-0.1236059E-01)
 number of electron      21.0000000 magnetization 
 augmentation part       -0.2888576 magnetization 

 Broyden mixing:
  rms(total) = 0.27468E-01    rms(broyden)= 0.27468E-01
  rms(prec ) = 0.33465E-01
  weight for this iteration     100.00

 eigenvalues of (default mixing * dielectric matrix)
  average eigenvalue GAMMA=   1.5724
  2.4223  1.5155  0.7795

 Free energy of the ion-electron system (eV)
  ---------------------------------------------------
  alpha Z        PSCENC =        -0.29549333
  Ewald energy   TEWEN  =     18453.72979959
  -Hartree energ DENC   =    -18740.49834923
  -exchange      EXHF   =         0.00000000
  -V(xc)+E(xc)   XCENC  =      -184.50228604
  PAW double counting   =       248.96648894      -25.31908643
  entropy T*S    EENTRO =        -0.00110753
  eigenvalues    EBANDS =      -152.08031234
  atomic energy  EATOM  =       374.76784764
  Solvation  Ediel_sol  =         0.00000000
  ---------------------------------------------------
  free energy    TOTEN  =       -25.23249873 eV

  energy without entropy =      -25.23139120  energy(sigma->0) =      -25.23194497


--------------------------------------------------------------------------------------------------------




--------------------------------------- Iteration      1(   9)  ---------------------------------------


    POTLOK:  cpu time    0.0866: real time    0.0876
    SETDIJ:  cpu time    0.1035: real time    0.1037
     EDDAV:  cpu time    1.3041: real time    1.3130
       DOS:  cpu time    0.0005: real time    0.0005
    CHARGE:  cpu time    0.1852: real time    0.1862
    MIXING:  cpu time    0.0074: real time    0.0074
    --------------------------------------------
      LOOP:  cpu time    1.6873: real time    1.6985

 eigenvalue-minimisations  :   835
 total energy-change (2. order) : 0.7047800E-02  (-0.3138769E-02)
 number of electron      21.0000000 magnetization 
 augmentation part       -0.2899036 magnetization 

 Broyden mixing:
  rms(total) = 0.17323E-01    rms(broyden)= 0.17323E-01
  rms(prec ) = 0.22995E-01
  weight for this iteration     100.00

 eigenvalues of (default mixing * dielectric matrix)
  average eigenvalue GAMMA=   1.5209
  2.4325  2.0600  0.8764  0.7147

 Free energy of the ion-electron system (eV)
  ---------------------------------------------------
  alpha Z        PSCENC =        -0.29549333
  Ewald energy   TEWEN  =     18453.72979959
  -Hartree energ DENC   =    -18741.68775237
  -exchange      EXHF   =         0.00000000
  -V(xc)+E(xc)   XCENC  =      -184.45458450
  PAW double counting   =       249.02345641      -25.38250619
  entropy T*S    EENTRO =        -0.00109954
  eigenvalues    EBANDS =      -150.92511864
  atomic energy  EATOM  =       374.76784764
  Solvation  Ediel_sol  =         0.00000000
  ---------------------------------------------------
  free energy    TOTEN  =       -25.22545093 eV

  energy without entropy =      -25.22435140  energy(sigma->0) =      -25.22490117


--------------------------------------------------------------------------------------------------------




--------------------------------------- Iteration      1(  10)  ---------------------------------------


    POTLOK:  cpu time    0.0869: real time    0.0871
    SETDIJ:  cpu time    0.1007: real time    0.1009
     EDDAV:  cpu time    1.3077: real time    1.3108
       DOS:  cpu time    0.0005: real time    0.0005
    CHARGE:  cpu time    0.1958: real time    0.1961
    MIXING:  cpu time    0.0057: real time    0.0057
    --------------------------------------------
      LOOP:  cpu time    1.6982: real time    1.7012

 eigenvalue-minimisations  :   870
 total energy-change (2. order) : 0.5733401E-02  (-0.8698522E-03)
 number of electron      21.0000000 magnetization 
 augmentation part       -0.2903305 magnetization 

 Broyden mixing:
  rms(total) = 0.10390E-01    rms(broyden)= 0.10390E-01
  rms(prec ) = 0.16924E-01
  weight for this iteration     100.00

 eigenvalues of (default mixing * dielectric matrix)
  average eigenvalue GAMMA=   1.4842
  2.4210  2.4210  1.1022  0.9041  0.5725

 Free energy of the ion-electron system (eV)
  ---------------------------------------------------
  alpha Z        PSCENC =        -0.29549333
  Ewald energy   TEWEN  =     18453.72979959
  -Hartree energ DENC   =    -18743.09171334
  -exchange      EXHF   =         0.00000000
  -V(xc)+E(xc)   XCENC  =      -184.42474610
  PAW double counting   =       249.08674298      -25.45169071
  entropy T*S    EENTRO =        -0.00110784
  eigenvalues    EBANDS =      -149.53935643
  atomic energy  EATOM  =       374.76784764
  Solvation  Ediel_sol  =         0.00000000
  ---------------------------------------------------
  free energy    TOTEN  =       -25.21971753 eV

  energy without entropy =      -25.21860970  energy(sigma->0) =      -25.21916361


--------------------------------------------------------------------------------------------------------




--------------------------------------- Iteration      1(  11)  ---------------------------------------


    POTLOK:  cpu time    0.0850: real time    0.0853
    SETDIJ:  cpu time    0.1049: real time    0.1050
     EDDAV:  cpu time    1.2627: real time    1.2666
       DOS:  cpu time    0.0005: real time    0.0005
    CHARGE:  cpu time    0.1913: real time    0.1916
    MIXING:  cpu time    0.0059: real time    0.0059
    --------------------------------------------
      LOOP:  cpu time    1.6494: real time    1.6549

 eigenvalue-minimisations  :   795
 total energy-change (2. order) : 0.5272720E-02  (-0.2381953E-03)
 number of electron      21.0000000 magnetization 
 augmentation part       -0.2904844 magnetization 

 Broyden mixing:
  rms(total) = 0.79675E-02    rms(broyden)= 0.79675E-02
  rms(prec ) = 0.13553E-01
  weight for this iteration     100.00

 eigenvalues of (default mixing * dielectric matrix)
  average eigenvalue GAMMA=   1.5882
  2.8419  2.8419  1.4041  1.1241  0.7480  0.5692

 Free energy of the ion-electron system (eV)
  ---------------------------------------------------
  alpha Z        PSCENC =        -0.29549333
  Ewald energy   TEWEN  =     18453.72979959
  -Hartree energ DENC   =    -18744.72702318
  -exchange      EXHF   =         0.00000000
  -V(xc)+E(xc)   XCENC  =      -184.40623579
  PAW double counting   =       249.11256019      -25.48065779
  entropy T*S    EENTRO =        -0.00110171
  eigenvalues    EBANDS =      -147.91414043
  atomic energy  EATOM  =       374.76784764
  Solvation  Ediel_sol  =         0.00000000
  ---------------------------------------------------
  free energy    TOTEN  =       -25.21444481 eV

  energy without entropy =      -25.21334310  energy(sigma->0) =      -25.21389396


--------------------------------------------------------------------------------------------------------




--------------------------------------- Iteration      1(  12)  ---------------------------------------


    POTLOK:  cpu time    0.0904: real time    0.0907
    SETDIJ:  cpu time    0.1047: real time    0.1049
     EDDAV:  cpu time    1.1844: real time    1.1871
       DOS:  cpu time    0.0006: real time    0.0013
    CHARGE:  cpu time    0.1988: real time    0.1991
    MIXING:  cpu time    0.0073: real time    0.0073
    --------------------------------------------
      LOOP:  cpu time    1.5861: real time    1.5904

 eigenvalue-minimisations  :   725
 total energy-change (2. order) : 0.7881510E-02  (-0.5178183E-03)
 number of electron      21.0000000 magnetization 
 augmentation part       -0.2902559 magnetization 

 Broyden mixing:
  rms(total) = 0.56430E-02    rms(broyden)= 0.56430E-02
  rms(prec ) = 0.99199E-02
  weight for this iteration     100.00

 eigenvalues of (default mixing * dielectric matrix)
  average eigenvalue GAMMA=   1.7420
  3.9277  2.6578  1.6189  1.6189  1.0116  0.7912  0.5676

 Free energy of the ion-electron system (eV)
  ---------------------------------------------------
  alpha Z        PSCENC =        -0.29549333
  Ewald energy   TEWEN  =     18453.72979959
  -Hartree energ DENC   =    -18747.97589150
  -exchange      EXHF   =         0.00000000
  -V(xc)+E(xc)   XCENC  =      -184.38379879
  PAW double counting   =       249.09351395      -25.46248115
  entropy T*S    EENTRO =        -0.00111216
  eigenvalues    EBANDS =      -144.67894756
  atomic energy  EATOM  =       374.76784764
  Solvation  Ediel_sol  =         0.00000000
  ---------------------------------------------------
  free energy    TOTEN  =       -25.20656330 eV

  energy without entropy =      -25.20545114  energy(sigma->0) =      -25.20600722


--------------------------------------------------------------------------------------------------------




--------------------------------------- Iteration      1(  13)  ---------------------------------------


    POTLOK:  cpu time    0.0889: real time    0.0911
    SETDIJ:  cpu time    0.1013: real time    0.1014
     EDDAV:  cpu time    1.1946: real time    1.1974
       DOS:  cpu time    0.0005: real time    0.0005
    CHARGE:  cpu time    0.1705: real time    0.1710
    MIXING:  cpu time    0.0069: real time    0.0069
    --------------------------------------------
      LOOP:  cpu time    1.5628: real time    1.5684

 eigenvalue-minimisations  :   790
 total energy-change (2. order) : 0.3830964E-02  (-0.1856530E-03)
 number of electron      21.0000000 magnetization 
 augmentation part       -0.2901566 magnetization 

 Broyden mixing:
  rms(total) = 0.45247E-02    rms(broyden)= 0.45247E-02
  rms(prec ) = 0.80835E-02
  weight for this iteration     100.00

 eigenvalues of (default mixing * dielectric matrix)
  average eigenvalue GAMMA=   1.9908
  5.9201  2.7904  2.2736  1.2865  1.2865  1.0242  0.7760  0.5686

 Free energy of the ion-electron system (eV)
  ---------------------------------------------------
  alpha Z        PSCENC =        -0.29549333
  Ewald energy   TEWEN  =     18453.72979959
  -Hartree energ DENC   =    -18750.36262231
  -exchange      EXHF   =         0.00000000
  -V(xc)+E(xc)   XCENC  =      -184.37038305
  PAW double counting   =       249.04808169      -25.41461708
  entropy T*S    EENTRO =        -0.00112368
  eigenvalues    EBANDS =      -142.30422181
  atomic energy  EATOM  =       374.76784764
  Solvation  Ediel_sol  =         0.00000000
  ---------------------------------------------------
  free energy    TOTEN  =       -25.20273234 eV

  energy without entropy =      -25.20160866  energy(sigma->0) =      -25.20217050


--------------------------------------------------------------------------------------------------------




--------------------------------------- Iteration      1(  14)  ---------------------------------------


    POTLOK:  cpu time    0.0792: real time    0.0813
    SETDIJ:  cpu time    0.0847: real time    0.0848
     EDDAV:  cpu time    1.1360: real time    1.1390
       DOS:  cpu time    0.0006: real time    0.0006
    CHARGE:  cpu time    0.1961: real time    0.1965
    MIXING:  cpu time    0.0059: real time    0.0059
    --------------------------------------------
      LOOP:  cpu time    1.5026: real time    1.5081

 eigenvalue-minimisations  :   675
 total energy-change (2. order) : 0.3966558E-02  (-0.1848331E-03)
 number of electron      21.0000000 magnetization 
 augmentation part       -0.2900501 magnetization 

 Broyden mixing:
  rms(total) = 0.36113E-02    rms(broyden)= 0.36113E-02
  rms(prec ) = 0.65531E-02
  weight for this iteration     100.00

 eigenvalues of (default mixing * dielectric matrix)
  average eigenvalue GAMMA=   2.2399
  7.6051  3.4230  2.4980  1.8538  1.3220  1.0547  1.0547  0.5686  0.7792

 Free energy of the ion-electron system (eV)
  ---------------------------------------------------
  alpha Z        PSCENC =        -0.29549333
  Ewald energy   TEWEN  =     18453.72979959
  -Hartree energ DENC   =    -18753.01338345
  -exchange      EXHF   =         0.00000000
  -V(xc)+E(xc)   XCENC  =      -184.36218262
  PAW double counting   =       248.99131798      -25.35411466
  entropy T*S    EENTRO =        -0.00113851
  eigenvalues    EBANDS =      -139.66141842
  atomic energy  EATOM  =       374.76784764
  Solvation  Ediel_sol  =         0.00000000
  ---------------------------------------------------
  free energy    TOTEN  =       -25.19876578 eV

  energy without entropy =      -25.19762727  energy(sigma->0) =      -25.19819653


--------------------------------------------------------------------------------------------------------




--------------------------------------- Iteration      1(  15)  ---------------------------------------


    POTLOK:  cpu time    0.0902: real time    0.0904
    SETDIJ:  cpu time    0.0994: real time    0.0996
     EDDAV:  cpu time    1.2045: real time    1.2082
       DOS:  cpu time    0.0006: real time    0.0006
    CHARGE:  cpu time    0.1981: real time    0.1984
    MIXING:  cpu time    0.0058: real time    0.0058
    --------------------------------------------
      LOOP:  cpu time    1.5985: real time    1.6030

 eigenvalue-minimisations  :   785
 total energy-change (2. order) : 0.2999583E-02  (-0.8818279E-04)
 number of electron      21.0000000 magnetization 
 augmentation part       -0.2899913 magnetization 

 Broyden mixing:
  rms(total) = 0.30294E-02    rms(broyden)= 0.30294E-02
  rms(prec ) = 0.53348E-02
  weight for this iteration     100.00

 eigenvalues of (default mixing * dielectric matrix)
  average eigenvalue GAMMA=   2.4833
  8.1802  5.5472  2.6065  2.3458  1.4150  1.4150  0.5686  0.9899  0.9899  0.7753

 Free energy of the ion-electron system (eV)
  ---------------------------------------------------
  alpha Z        PSCENC =        -0.29549333
  Ewald energy   TEWEN  =     18453.72979959
  -Hartree energ DENC   =    -18755.75519423
  -exchange      EXHF   =         0.00000000
  -V(xc)+E(xc)   XCENC  =      -184.35311365
  PAW double counting   =       248.97675524      -25.33836425
  entropy T*S    EENTRO =        -0.00115343
  eigenvalues    EBANDS =      -136.92684977
  atomic energy  EATOM  =       374.76784764
  Solvation  Ediel_sol  =         0.00000000
  ---------------------------------------------------
  free energy    TOTEN  =       -25.19576620 eV

  energy without entropy =      -25.19461277  energy(sigma->0) =      -25.19518948


--------------------------------------------------------------------------------------------------------




--------------------------------------- Iteration      1(  16)  ---------------------------------------


    POTLOK:  cpu time    0.0849: real time    0.0851
    SETDIJ:  cpu time    0.1030: real time    0.1031
     EDDAV:  cpu time    1.1528: real time    1.1564
       DOS:  cpu time    0.0006: real time    0.0006
    CHARGE:  cpu time    0.1946: real time    0.1949
    MIXING:  cpu time    0.0052: real time    0.0052
    --------------------------------------------
      LOOP:  cpu time    1.5410: real time    1.5452

 eigenvalue-minimisations  :   690
 total energy-change (2. order) :-0.4077960E-04  (-0.1098679E-03)
 number of electron      21.0000000 magnetization 
 augmentation part       -0.2900200 magnetization 

 Broyden mixing:
  rms(total) = 0.24721E-02    rms(broyden)= 0.24721E-02
  rms(prec ) = 0.47062E-02
  weight for this iteration     100.00

 eigenvalues of (default mixing * dielectric matrix)
  average eigenvalue GAMMA=   2.6167
 10.4897  5.8124  2.6629  2.4827  1.4898  1.4898  0.5686  0.7770  1.0437  0.9834
  0.9834

 Free energy of the ion-electron system (eV)
  ---------------------------------------------------
  alpha Z        PSCENC =        -0.29549333
  Ewald energy   TEWEN  =     18453.72979959
  -Hartree energ DENC   =    -18758.10872830
  -exchange      EXHF   =         0.00000000
  -V(xc)+E(xc)   XCENC  =      -184.35090556
  PAW double counting   =       249.01240424      -25.37594329
  entropy T*S    EENTRO =        -0.00115034
  eigenvalues    EBANDS =      -134.57363762
  atomic energy  EATOM  =       374.76784764
  Solvation  Ediel_sol  =         0.00000000
  ---------------------------------------------------
  free energy    TOTEN  =       -25.19580698 eV

  energy without entropy =      -25.19465663  energy(sigma->0) =      -25.19523181


--------------------------------------------------------------------------------------------------------




--------------------------------------- Iteration      1(  17)  ---------------------------------------


    POTLOK:  cpu time    0.0902: real time    0.0906
    SETDIJ:  cpu time    0.1040: real time    0.1042
     EDDAV:  cpu time    1.1811: real time    1.1838
       DOS:  cpu time    0.0006: real time    0.0006
    CHARGE:  cpu time    0.1945: real time    0.1949
    MIXING:  cpu time    0.0070: real time    0.0070
    --------------------------------------------
      LOOP:  cpu time    1.5775: real time    1.5811

 eigenvalue-minimisations  :   710
 total energy-change (2. order) : 0.6923343E-03  (-0.5529641E-04)
 number of electron      21.0000000 magnetization 
 augmentation part       -0.2899704 magnetization 

 Broyden mixing:
  rms(total) = 0.20258E-02    rms(broyden)= 0.20258E-02
  rms(prec ) = 0.37566E-02
  weight for this iteration     100.00

 eigenvalues of (default mixing * dielectric matrix)
  average eigenvalue GAMMA=   2.7894
 12.8851  5.8713  2.7685  2.7685  1.7648  1.7648  0.5686  1.1731  1.1731  0.7751
  0.9801  0.9801

 Free energy of the ion-electron system (eV)
  ---------------------------------------------------
  alpha Z        PSCENC =        -0.29549333
  Ewald energy   TEWEN  =     18453.72979959
  -Hartree energ DENC   =    -18760.00900418
  -exchange      EXHF   =         0.00000000
  -V(xc)+E(xc)   XCENC  =      -184.34725342
  PAW double counting   =       249.01246503      -25.37650564
  entropy T*S    EENTRO =        -0.00116987
  eigenvalues    EBANDS =      -132.67580047
  atomic energy  EATOM  =       374.76784764
  Solvation  Ediel_sol  =         0.00000000
  ---------------------------------------------------
  free energy    TOTEN  =       -25.19511464 eV

  energy without entropy =      -25.19394477  energy(sigma->0) =      -25.19452971


--------------------------------------------------------------------------------------------------------




--------------------------------------- Iteration      1(  18)  ---------------------------------------


    POTLOK:  cpu time    0.0899: real time    0.0901
    SETDIJ:  cpu time    0.1020: real time    0.1021
     EDDAV:  cpu time    1.1963: real time    1.1991
       DOS:  cpu time    0.0005: real time    0.0005
    CHARGE:  cpu time    0.1783: real time    0.1792
    MIXING:  cpu time    0.0264: real time    0.0265
    --------------------------------------------
      LOOP:  cpu time    1.5933: real time    1.5974

 eigenvalue-minimisations  :   765
 total energy-change (2. order) : 0.4088661E-03  (-0.2542525E-04)
 number of electron      21.0000000 magnetization 
 augmentation part       -0.2899326 magnetization 

 Broyden mixing:
  rms(total) = 0.16518E-02    rms(broyden)= 0.16518E-02
  rms(prec ) = 0.30814E-02
  weight for this iteration     100.00

 eigenvalues of (default mixing * dielectric matrix)
  average eigenvalue GAMMA=   3.0114
 14.8212  7.2157  3.3318  2.6871  2.4041  1.7914  0.5686  1.2803  1.2803  0.7756
  0.9898  0.9898  1.0118

 Free energy of the ion-electron system (eV)
  ---------------------------------------------------
  alpha Z        PSCENC =        -0.29549333
  Ewald energy   TEWEN  =     18453.72979959
  -Hartree energ DENC   =    -18762.09811233
  -exchange      EXHF   =         0.00000000
  -V(xc)+E(xc)   XCENC  =      -184.34570490
  PAW double counting   =       248.99483105      -25.35814309
  entropy T*S    EENTRO =        -0.00118080
  eigenvalues    EBANDS =      -130.58854960
  atomic energy  EATOM  =       374.76784764
  Solvation  Ediel_sol  =         0.00000000
  ---------------------------------------------------
  free energy    TOTEN  =       -25.19470578 eV

  energy without entropy =      -25.19352497  energy(sigma->0) =      -25.19411538


--------------------------------------------------------------------------------------------------------




--------------------------------------- Iteration      1(  19)  ---------------------------------------


    POTLOK:  cpu time    0.0859: real time    0.0862
    SETDIJ:  cpu time    0.1041: real time    0.1042
     EDDAV:  cpu time    1.1699: real time    1.4058
       DOS:  cpu time    0.0005: real time    0.0005
    CHARGE:  cpu time    0.1351: real time    0.2542
    MIXING:  cpu time    0.0031: real time    0.0117
    --------------------------------------------
      LOOP:  cpu time    1.4987: real time    1.8626

 eigenvalue-minimisations  :   740
 total energy-change (2. order) : 0.2537846E-03  (-0.1711179E-04)
 number of electron      21.0000000 magnetization 
 augmentation part       -0.2899338 magnetization 

 Broyden mixing:
  rms(total) = 0.14303E-02    rms(broyden)= 0.14303E-02
  rms(prec ) = 0.26844E-02
  weight for this iteration     100.00

 eigenvalues of (default mixing * dielectric matrix)
  average eigenvalue GAMMA=   3.2643
 17.5117  8.2065  4.0730  3.0276  2.5609  2.0177  1.6725  0.5686  1.2014  1.2014
  0.7754  0.9922  0.9922  0.8993

 Free energy of the ion-electron system (eV)
  ---------------------------------------------------
  alpha Z        PSCENC =        -0.29549333
  Ewald energy   TEWEN  =     18453.72979959
  -Hartree energ DENC   =    -18763.60949152
  -exchange      EXHF   =         0.00000000
  -V(xc)+E(xc)   XCENC  =      -184.34555253
  PAW double counting   =       248.97737848      -25.33955611
  entropy T*S    EENTRO =        -0.00118140
  eigenvalues    EBANDS =      -129.07820281
  atomic energy  EATOM  =       374.76784764
  Solvation  Ediel_sol  =         0.00000000
  ---------------------------------------------------
  free energy    TOTEN  =       -25.19445199 eV

  energy without entropy =      -25.19327060  energy(sigma->0) =      -25.19386129


--------------------------------------------------------------------------------------------------------




--------------------------------------- Iteration      1(  20)  ---------------------------------------


    POTLOK:  cpu time    0.0607: real time    0.1242
    SETDIJ:  cpu time    0.0610: real time    0.1214
     EDDAV:  cpu time    1.2034: real time    1.2785
       DOS:  cpu time    0.0005: real time    0.0013
    CHARGE:  cpu time    0.1770: real time    0.1772
    MIXING:  cpu time    0.0074: real time    0.0074
    --------------------------------------------
      LOOP:  cpu time    1.5099: real time    1.7100

 eigenvalue-minimisations  :   795
 total energy-change (2. order) : 0.3386497E-03  (-0.8065202E-05)
 number of electron      21.0000000 magnetization 
 augmentation part       -0.2899113 magnetization 

 Broyden mixing:
  rms(total) = 0.11990E-02    rms(broyden)= 0.11990E-02
  rms(prec ) = 0.21916E-02
  weight for this iteration     100.00

 eigenvalues of (default mixing * dielectric matrix)
  average eigenvalue GAMMA=   3.4229
 19.6756  9.2474  4.5406  3.5725  2.5913  2.2760  0.5686  1.5288  1.4199  0.7756
  1.1147  1.1147  0.9965  0.9965  0.9257

 Free energy of the ion-electron system (eV)
  ---------------------------------------------------
  alpha Z        PSCENC =        -0.29549333
  Ewald energy   TEWEN  =     18453.72979959
  -Hartree energ DENC   =    -18765.31871839
  -exchange      EXHF   =         0.00000000
  -V(xc)+E(xc)   XCENC  =      -184.34437438
  PAW double counting   =       248.97503629      -25.33684104
  entropy T*S    EENTRO =        -0.00118841
  eigenvalues    EBANDS =      -127.37018131
  atomic energy  EATOM  =       374.76784764
  Solvation  Ediel_sol  =         0.00000000
  ---------------------------------------------------
  free energy    TOTEN  =       -25.19411334 eV

  energy without entropy =      -25.19292493  energy(sigma->0) =      -25.19351914


--------------------------------------------------------------------------------------------------------




--------------------------------------- Iteration      1(  21)  ---------------------------------------


    POTLOK:  cpu time    0.0813: real time    0.0820
    SETDIJ:  cpu time    0.0909: real time    0.0910
     EDDAV:  cpu time    1.1819: real time    1.1838
       DOS:  cpu time    0.0005: real time    0.0005
    CHARGE:  cpu time    0.1970: real time    0.1972
    MIXING:  cpu time    0.0078: real time    0.0078
    --------------------------------------------
      LOOP:  cpu time    1.5594: real time    1.5624

 eigenvalue-minimisations  :   775
 total energy-change (2. order) : 0.1893311E-03  (-0.2159177E-05)
 number of electron      21.0000000 magnetization 
 augmentation part       -0.2899109 magnetization 

 Broyden mixing:
  rms(total) = 0.10410E-02    rms(broyden)= 0.10410E-02
  rms(prec ) = 0.18817E-02
  weight for this iteration     100.00

 eigenvalues of (default mixing * dielectric matrix)
  average eigenvalue GAMMA=   3.7622
 22.0365 11.8100  5.1701  4.6097  2.6941  2.4659  2.0057  1.7211  0.5686  1.2281
  1.2281  0.7755  0.9955  0.9955  1.0072  0.8832

 Free energy of the ion-electron system (eV)
  ---------------------------------------------------
  alpha Z        PSCENC =        -0.29549333
  Ewald energy   TEWEN  =     18453.72979959
  -Hartree energ DENC   =    -18766.54041495
  -exchange      EXHF   =         0.00000000
  -V(xc)+E(xc)   XCENC  =      -184.34378991
  PAW double counting   =       248.98514423      -25.34736057
  entropy T*S    EENTRO =        -0.00118766
  eigenvalues    EBANDS =      -126.14846905
  atomic energy  EATOM  =       374.76784764
  Solvation  Ediel_sol  =         0.00000000
  ---------------------------------------------------
  free energy    TOTEN  =       -25.19392401 eV

  energy without entropy =      -25.19273635  energy(sigma->0) =      -25.19333018


--------------------------------------------------------------------------------------------------------




--------------------------------------- Iteration      1(  22)  ---------------------------------------


    POTLOK:  cpu time    0.0863: real time    0.0877
    SETDIJ:  cpu time    0.1057: real time    0.1060
     EDDAV:  cpu time    1.0759: real time    1.0795
       DOS:  cpu time    0.0005: real time    0.0005
    CHARGE:  cpu time    0.1879: real time    0.1900
    MIXING:  cpu time    0.0239: real time    0.0239
    --------------------------------------------
      LOOP:  cpu time    1.4803: real time    1.4876

 eigenvalue-minimisations  :   665
 total energy-change (2. order) : 0.2829180E-03  (-0.9508652E-05)
 number of electron      21.0000000 magnetization 
 augmentation part       -0.2899080 magnetization 

 Broyden mixing:
  rms(total) = 0.82888E-03    rms(broyden)= 0.82888E-03
  rms(prec ) = 0.14822E-02
  weight for this iteration     100.00

 eigenvalues of (default mixing * dielectric matrix)
  average eigenvalue GAMMA=   3.8605
 25.2472 11.9700  6.0793  4.4524  2.7294  2.5522  1.8680  1.8680  0.5686  1.3000
  1.3000  0.7755  0.9972  0.9972  0.9007  1.0111  1.0111

 Free energy of the ion-electron system (eV)
  ---------------------------------------------------
  alpha Z        PSCENC =        -0.29549333
  Ewald energy   TEWEN  =     18453.72979959
  -Hartree energ DENC   =    -18768.05494404
  -exchange      EXHF   =         0.00000000
  -V(xc)+E(xc)   XCENC  =      -184.34224161
  PAW double counting   =       248.98975595      -25.35254860
  entropy T*S    EENTRO =        -0.00119124
  eigenvalues    EBANDS =      -124.63462546
  atomic energy  EATOM  =       374.76784764
  Solvation  Ediel_sol  =         0.00000000
  ---------------------------------------------------
  free energy    TOTEN  =       -25.19364109 eV

  energy without entropy =      -25.19244985  energy(sigma->0) =      -25.19304547


--------------------------------------------------------------------------------------------------------




--------------------------------------- Iteration      1(  23)  ---------------------------------------


    POTLOK:  cpu time    0.0881: real time    0.0882
    SETDIJ:  cpu time    0.1007: real time    0.1008
     EDDAV:  cpu time    1.1371: real time    1.1392
       DOS:  cpu time    0.0005: real time    0.0005
    CHARGE:  cpu time    0.1939: real time    0.1941
    MIXING:  cpu time    0.0077: real time    0.0077
    --------------------------------------------
      LOOP:  cpu time    1.5279: real time    1.5305

 eigenvalue-minimisations  :   690
 total energy-change (2. order) : 0.4303000E-04  (-0.4895450E-06)
 number of electron      21.0000000 magnetization 
 augmentation part       -0.2899064 magnetization 

 Broyden mixing:
  rms(total) = 0.72034E-03    rms(broyden)= 0.72034E-03
  rms(prec ) = 0.12743E-02
  weight for this iteration     100.00

 eigenvalues of (default mixing * dielectric matrix)
  average eigenvalue GAMMA=   4.2442
 29.5054 13.6503  7.2270  4.9745  3.3524  2.7318  2.4290  2.0413  1.6103  0.5686
  0.7755  1.2486  1.1935  1.1935  0.9968  0.9968  1.0145  0.8860

 Free energy of the ion-electron system (eV)
  ---------------------------------------------------
  alpha Z        PSCENC =        -0.29549333
  Ewald energy   TEWEN  =     18453.72979959
  -Hartree energ DENC   =    -18768.75891163
  -exchange      EXHF   =         0.00000000
  -V(xc)+E(xc)   XCENC  =      -184.34244093
  PAW double counting   =       248.98939603      -25.35218356
  entropy T*S    EENTRO =        -0.00119208
  eigenvalues    EBANDS =      -123.93041980
  atomic energy  EATOM  =       374.76784764
  Solvation  Ediel_sol  =         0.00000000
  ---------------------------------------------------
  free energy    TOTEN  =       -25.19359806 eV

  energy without entropy =      -25.19240599  energy(sigma->0) =      -25.19300202


--------------------------------------------------------------------------------------------------------




--------------------------------------- Iteration      1(  24)  ---------------------------------------


    POTLOK:  cpu time    0.0905: real time    0.0907
    SETDIJ:  cpu time    0.1030: real time    0.1031
     EDDAV:  cpu time    1.1220: real time    1.1255
       DOS:  cpu time    0.0005: real time    0.0006
    CHARGE:  cpu time    0.1926: real time    0.1928
    MIXING:  cpu time    0.0068: real time    0.0069
    --------------------------------------------
      LOOP:  cpu time    1.5155: real time    1.5195

 eigenvalue-minimisations  :   705
 total energy-change (2. order) :-0.1372337E-03  (-0.5563644E-05)
 number of electron      21.0000000 magnetization 
 augmentation part       -0.2898879 magnetization 

 Broyden mixing:
  rms(total) = 0.59537E-03    rms(broyden)= 0.59537E-03
  rms(prec ) = 0.97023E-03
  weight for this iteration     100.00

 eigenvalues of (default mixing * dielectric matrix)
  average eigenvalue GAMMA=   4.4443
 32.8557 14.9048  7.7900  5.6707  3.1592  3.1592  2.6402  1.9753  1.9753  1.5953
  0.5686  1.2248  1.2248  0.7755  0.9953  0.9953  1.0652  0.9744  0.8920

 Free energy of the ion-electron system (eV)
  ---------------------------------------------------
  alpha Z        PSCENC =        -0.29549333
  Ewald energy   TEWEN  =     18453.72979959
  -Hartree energ DENC   =    -18769.99179950
  -exchange      EXHF   =         0.00000000
  -V(xc)+E(xc)   XCENC  =      -184.34198753
  PAW double counting   =       248.97320461      -25.33509070
  entropy T*S    EENTRO =        -0.00119760
  eigenvalues    EBANDS =      -122.69901848
  atomic energy  EATOM  =       374.76784764
  Solvation  Ediel_sol  =         0.00000000
  ---------------------------------------------------
  free energy    TOTEN  =       -25.19373530 eV

  energy without entropy =      -25.19253770  energy(sigma->0) =      -25.19313650


--------------------------------------------------------------------------------------------------------




--------------------------------------- Iteration      1(  25)  ---------------------------------------


    POTLOK:  cpu time    0.0883: real time    0.0884
    SETDIJ:  cpu time    0.1027: real time    0.1028
     EDDAV:  cpu time    1.1447: real time    1.1496
       DOS:  cpu time    0.0005: real time    0.0005
    CHARGE:  cpu time    0.2005: real time    0.2085
    MIXING:  cpu time    0.0124: real time    0.0131
    --------------------------------------------
      LOOP:  cpu time    1.5490: real time    1.5630

 eigenvalue-minimisations  :   705
 total energy-change (2. order) :-0.1235113E-03  (-0.2857899E-05)
 number of electron      21.0000000 magnetization 
 augmentation part       -0.2899045 magnetization 

 Broyden mixing:
  rms(total) = 0.51210E-03    rms(broyden)= 0.51210E-03
  rms(prec ) = 0.80444E-03
  weight for this iteration     100.00

 eigenvalues of (default mixing * dielectric matrix)
  average eigenvalue GAMMA=   4.5406
 35.6019 15.6816  8.4683  5.9014  3.6433  3.1799  2.6010  2.3659  1.8860  1.6921
  0.5686  1.2512  1.2512  0.7755  1.0008  1.0008  1.0551  1.0002  1.0002  0.8869

 Free energy of the ion-electron system (eV)
  ---------------------------------------------------
  alpha Z        PSCENC =        -0.29549333
  Ewald energy   TEWEN  =     18453.72979959
  -Hartree energ DENC   =    -18770.31886861
  -exchange      EXHF   =         0.00000000
  -V(xc)+E(xc)   XCENC  =      -184.34298520
  PAW double counting   =       248.97909571      -25.34109177
  entropy T*S    EENTRO =        -0.00119408
  eigenvalues    EBANDS =      -122.37096875
  atomic energy  EATOM  =       374.76784764
  Solvation  Ediel_sol  =         0.00000000
  ---------------------------------------------------
  free energy    TOTEN  =       -25.19385881 eV

  energy without entropy =      -25.19266473  energy(sigma->0) =      -25.19326177


--------------------------------------------------------------------------------------------------------




--------------------------------------- Iteration      1(  26)  ---------------------------------------


    POTLOK:  cpu time    0.0885: real time    0.0950
    SETDIJ:  cpu time    0.0992: real time    0.1011
     EDDAV:  cpu time    1.1187: real time    1.2019
       DOS:  cpu time    0.0005: real time    0.0005
    CHARGE:  cpu time    0.1931: real time    0.2008
    MIXING:  cpu time    0.0090: real time    0.0090
    --------------------------------------------
      LOOP:  cpu time    1.5091: real time    1.6082

 eigenvalue-minimisations  :   695
 total energy-change (2. order) :-0.6975835E-04  (-0.6141884E-06)
 number of electron      21.0000000 magnetization 
 augmentation part       -0.2898945 magnetization 

 Broyden mixing:
  rms(total) = 0.40573E-03    rms(broyden)= 0.40573E-03
  rms(prec ) = 0.65365E-03
  weight for this iteration     100.00

 eigenvalues of (default mixing * dielectric matrix)
  average eigenvalue GAMMA=   4.8306
 37.8123 19.1869  8.8907  7.3272  3.9734  3.9734  2.6908  2.5033  2.0310  1.8105
  0.5686  1.5099  0.7755  1.2668  1.1633  1.1633  0.9964  0.9964  0.9978  0.8907
  0.9145

 Free energy of the ion-electron system (eV)
  ---------------------------------------------------
  alpha Z        PSCENC =        -0.29549333
  Ewald energy   TEWEN  =     18453.72979959
  -Hartree energ DENC   =    -18770.74747796
  -exchange      EXHF   =         0.00000000
  -V(xc)+E(xc)   XCENC  =      -184.34241824
  PAW double counting   =       248.98402078      -25.34636734
  entropy T*S    EENTRO =        -0.00119500
  eigenvalues    EBANDS =      -121.94264470
  atomic energy  EATOM  =       374.76784764
  Solvation  Ediel_sol  =         0.00000000
  ---------------------------------------------------
  free energy    TOTEN  =       -25.19392857 eV

  energy without entropy =      -25.19273357  energy(sigma->0) =      -25.19333107


--------------------------------------------------------------------------------------------------------




--------------------------------------- Iteration      1(  27)  ---------------------------------------


    POTLOK:  cpu time    0.0899: real time    0.0913
    SETDIJ:  cpu time    0.0997: real time    0.1013
     EDDAV:  cpu time    1.1484: real time    1.2676
       DOS:  cpu time    0.0008: real time    0.0008
    CHARGE:  cpu time    0.1908: real time    0.1914
    MIXING:  cpu time    0.0165: real time    0.0165
    --------------------------------------------
      LOOP:  cpu time    1.5460: real time    1.6690

 eigenvalue-minimisations  :   720
 total energy-change (2. order) :-0.7547918E-04  (-0.6835863E-06)
 number of electron      21.0000000 magnetization 
 augmentation part       -0.2898931 magnetization 

 Broyden mixing:
  rms(total) = 0.32319E-03    rms(broyden)= 0.32319E-03
  rms(prec ) = 0.49568E-03
  weight for this iteration     100.00

 eigenvalues of (default mixing * dielectric matrix)
  average eigenvalue GAMMA=   4.9608
 42.0156 19.5866  9.9434  7.3776  4.5362  3.8164  2.6685  2.5742  1.9470  1.9470
  0.5686  1.5347  1.5347  0.7755  1.2135  1.2135  0.8885  1.0029  1.0029  0.9905
  0.9997  0.9997

 Free energy of the ion-electron system (eV)
  ---------------------------------------------------
  alpha Z        PSCENC =        -0.29549333
  Ewald energy   TEWEN  =     18453.72979959
  -Hartree energ DENC   =    -18771.23544695
  -exchange      EXHF   =         0.00000000
  -V(xc)+E(xc)   XCENC  =      -184.34200004
  PAW double counting   =       248.98524511      -25.34773432
  entropy T*S    EENTRO =        -0.00119709
  eigenvalues    EBANDS =      -121.45502465
  atomic energy  EATOM  =       374.76784764
  Solvation  Ediel_sol  =         0.00000000
  ---------------------------------------------------
  free energy    TOTEN  =       -25.19400405 eV

  energy without entropy =      -25.19280696  energy(sigma->0) =      -25.19340550


--------------------------------------------------------------------------------------------------------




--------------------------------------- Iteration      1(  28)  ---------------------------------------


    POTLOK:  cpu time    0.0917: real time    0.0993
    SETDIJ:  cpu time    0.0933: real time    0.1014
     EDDAV:  cpu time    1.0258: real time    1.0413
       DOS:  cpu time    0.0006: real time    0.0006
    CHARGE:  cpu time    0.2024: real time    0.2027
    MIXING:  cpu time    0.0056: real time    0.0057
    --------------------------------------------
      LOOP:  cpu time    1.4193: real time    1.4509

 eigenvalue-minimisations  :   585
 total energy-change (2. order) :-0.7263566E-04  (-0.2193942E-06)
 number of electron      21.0000000 magnetization 
 augmentation part       -0.2898953 magnetization 

 Broyden mixing:
  rms(total) = 0.24071E-03    rms(broyden)= 0.24071E-03
  rms(prec ) = 0.38576E-03
  weight for this iteration     100.00

 eigenvalues of (default mixing * dielectric matrix)
  average eigenvalue GAMMA=   5.3122
 47.2273 21.8272 11.3937  7.9996  5.3712  4.0701  3.1251  2.6608  2.4874  2.0254
  1.6390  0.5686  1.3699  1.3327  0.7755  1.1946  1.1946  0.9986  0.9986  0.8893
  1.0332  1.0332  0.9656

 Free energy of the ion-electron system (eV)
  ---------------------------------------------------
  alpha Z        PSCENC =        -0.29549333
  Ewald energy   TEWEN  =     18453.72979959
  -Hartree energ DENC   =    -18771.41423000
  -exchange      EXHF   =         0.00000000
  -V(xc)+E(xc)   XCENC  =      -184.34234532
  PAW double counting   =       248.98281806      -25.34517519
  entropy T*S    EENTRO =        -0.00119623
  eigenvalues    EBANDS =      -121.27610190
  atomic energy  EATOM  =       374.76784764
  Solvation  Ediel_sol  =         0.00000000
  ---------------------------------------------------
  free energy    TOTEN  =       -25.19407668 eV

  energy without entropy =      -25.19288045  energy(sigma->0) =      -25.19347856


--------------------------------------------------------------------------------------------------------




--------------------------------------- Iteration      1(  29)  ---------------------------------------


    POTLOK:  cpu time    0.0987: real time    0.0989
    SETDIJ:  cpu time    0.1107: real time    0.1120
     EDDAV:  cpu time    1.0407: real time    1.0681
       DOS:  cpu time    0.0006: real time    0.0006
    CHARGE:  cpu time    0.1920: real time    0.1923
    MIXING:  cpu time    0.0097: real time    0.0097
    --------------------------------------------
      LOOP:  cpu time    1.4524: real time    1.4815

 eigenvalue-minimisations  :   620
 total energy-change (2. order) :-0.5615501E-04  (-0.6142302E-06)
 number of electron      21.0000000 magnetization 
 augmentation part       -0.2898908 magnetization 

 Broyden mixing:
  rms(total) = 0.19230E-03    rms(broyden)= 0.19230E-03
  rms(prec ) = 0.29149E-03
  weight for this iteration     100.00

 eigenvalues of (default mixing * dielectric matrix)
  average eigenvalue GAMMA=   5.6829
 53.1341 23.8685 12.8437  8.6928  5.9849  4.5532  3.3657  2.9619  2.6552  2.3390
  2.1050  1.6470  1.4944  0.5686  1.2189  1.2189  0.7755  1.1332  0.9997  0.9997
  0.8882  0.9914  0.9751  0.9751

 Free energy of the ion-electron system (eV)
  ---------------------------------------------------
  alpha Z        PSCENC =        -0.29549333
  Ewald energy   TEWEN  =     18453.72979959
  -Hartree energ DENC   =    -18771.70986641
  -exchange      EXHF   =         0.00000000
  -V(xc)+E(xc)   XCENC  =      -184.34220375
  PAW double counting   =       248.97717513      -25.33924759
  entropy T*S    EENTRO =        -0.00119784
  eigenvalues    EBANDS =      -120.98094627
  atomic energy  EATOM  =       374.76784764
  Solvation  Ediel_sol  =         0.00000000
  ---------------------------------------------------
  free energy    TOTEN  =       -25.19413284 eV

  energy without entropy =      -25.19293499  energy(sigma->0) =      -25.19353391


--------------------------------------------------------------------------------------------------------




--------------------------------------- Iteration      1(  30)  ---------------------------------------


    POTLOK:  cpu time    0.0861: real time    0.0862
    SETDIJ:  cpu time    0.0985: real time    0.0986
     EDDAV:  cpu time    0.9711: real time    0.9730
       DOS:  cpu time    0.0005: real time    0.0005
    CHARGE:  cpu time    0.1821: real time    0.1849
    MIXING:  cpu time    0.0071: real time    0.0072
    --------------------------------------------
      LOOP:  cpu time    1.3454: real time    1.3504

 eigenvalue-minimisations  :   550
 total energy-change (2. order) :-0.6759212E-04  (-0.2712436E-06)
 number of electron      21.0000000 magnetization 
 augmentation part       -0.2898924 magnetization 

 Broyden mixing:
  rms(total) = 0.13019E-03    rms(broyden)= 0.13019E-03
  rms(prec ) = 0.20960E-03
  weight for this iteration     100.00

 eigenvalues of (default mixing * dielectric matrix)
  average eigenvalue GAMMA=   5.7655
 55.6577 25.6335 13.4347  9.3168  6.2148  4.9155  3.4283  3.1309  2.6633  2.4498
  1.9927  1.6640  0.5686  1.4629  1.4629  0.7755  1.2229  1.2229  0.8886  0.9998
  0.9998  1.0558  0.9887  0.9934  0.9934

 Free energy of the ion-electron system (eV)
  ---------------------------------------------------
  alpha Z        PSCENC =        -0.29549333
  Ewald energy   TEWEN  =     18453.72979959
  -Hartree energ DENC   =    -18771.84197292
  -exchange      EXHF   =         0.00000000
  -V(xc)+E(xc)   XCENC  =      -184.34242291
  PAW double counting   =       248.98171512      -25.34395197
  entropy T*S    EENTRO =        -0.00119776
  eigenvalues    EBANDS =      -120.84852389
  atomic energy  EATOM  =       374.76784764
  Solvation  Ediel_sol  =         0.00000000
  ---------------------------------------------------
  free energy    TOTEN  =       -25.19420043 eV

  energy without entropy =      -25.19300267  energy(sigma->0) =      -25.19360155


--------------------------------------------------------------------------------------------------------




--------------------------------------- Iteration      1(  31)  ---------------------------------------


    POTLOK:  cpu time    0.0889: real time    0.0894
    SETDIJ:  cpu time    0.1013: real time    0.1015
     EDDAV:  cpu time    0.9637: real time    0.9655
[...]
      7      -5.8974      2.00000
      8      -4.5782      2.00000
      9      -2.4998      2.00000
     10      -0.5746      0.00000
     11       1.1145      0.00000
     12       2.1783      0.00000
     13       2.4882      0.00000
     14       2.6611      0.00000
     15       2.6714      0.00000

 k-point     3 :       0.1538    0.0000    0.0000
  band No.  band energies     occupation 
      1     -11.7470      2.00000
      2     -11.3701      2.00000
      3     -10.7008      2.00000
      4      -9.7662      2.00000
      5      -8.5877      2.00000
      6      -7.1847      2.00000
      7      -5.5178      2.00000
      8      -4.2164      2.00000
      9      -2.1403      2.00000
     10      -0.2332      0.00000
     11       1.4207      0.00000
     12       2.4555      0.00000
     13       2.8763      0.00000
     14       2.8863      0.00000
     15       3.0620      0.00000

 k-point     4 :       0.2308    0.0000    0.0000
  band No.  band energies     occupation 
      1     -11.0999      2.00000
      2     -10.7248      2.00000
      3     -10.0581      2.00000
      4      -9.1270      2.00000
      5      -7.9531      2.00000
      6      -6.5555      2.00000
      7      -4.8902      2.00000
      8      -3.6186      2.00000
      9      -1.5742      0.17243
     10      -0.0332      0.00000
     11       0.4775      0.00000
     12       0.8726      0.00000
     13       1.2768      0.00000
     14       2.1562      0.00000
     15       2.2042      0.00000

 k-point     5 :       0.3077    0.0000    0.0000
  band No.  band energies     occupation 
      1     -10.1986      2.00000
      2      -9.8260      2.00000
      3      -9.1631      2.00000
      4      -8.2374      2.00000
      5      -7.0706      2.00000
      6      -5.6831      2.00000
      7      -4.0308      2.00000
      8      -2.8363      2.00000
      9      -2.1048      2.00000
     10      -1.7000      1.97181
     11      -1.0582      0.00000
     12      -0.4691      0.00000
     13      -0.1300      0.00000
     14       0.9769      0.00000
     15       1.3350      0.00000

 k-point     6 :       0.3846    0.0000    0.0000
  band No.  band energies     occupation 
      1      -9.0476      2.00000
      2      -8.6785      2.00000
      3      -8.0210      2.00000
      4      -7.1035      2.00000
      5      -5.9502      2.00000
      6      -4.5997      2.00000
      7      -4.1668      2.00000
      8      -3.8415      2.00000
      9      -3.2661      2.00000
     10      -2.7521      2.00000
     11      -2.1485      2.00000
     12      -1.5884      0.33528
     13      -1.0612      0.00000
     14       0.2707      0.00000
     15       0.4875      0.00000

 k-point     7 :       0.4615    0.0000    0.0000
  band No.  band energies     occupation 
      1      -7.6532      2.00000
      2      -7.2896      2.00000
      3      -6.6425      2.00000
      4      -6.0286      2.00000
      5      -5.7524      2.00000
      6      -5.6450      2.00000
      7      -5.0351      2.00000
      8      -4.6585      2.00000
      9      -4.0697      2.00000
     10      -3.1739      2.00000
     11      -2.7966      2.00000
     12      -1.5415      0.02202
     13      -1.4723      0.00002
     14      -0.3151      0.00000
     15       0.1246      0.00000

 k-point     8 :       0.0769    0.0769    0.0000
  band No.  band energies     occupation 
      1     -11.8767      2.00000
      2     -11.4995      2.00000
      3     -10.8297      2.00000
      4      -9.8943      2.00000
      5      -8.7150      2.00000
      6      -7.3111      2.00000
      7      -5.6441      2.00000
      8      -4.3368      2.00000
      9      -2.2592      2.00000
     10      -0.3435      0.00000
     11       1.3348      0.00000
     12       2.4116      0.00000
     13       2.7531      0.00000
     14       2.9158      0.00000
     15       2.9307      0.00000

 k-point     9 :       0.1538    0.0769    0.0000
  band No.  band energies     occupation 
      1     -11.3584      2.00000
      2     -10.9826      2.00000
      3     -10.3148      2.00000
      4      -9.3823      2.00000
      5      -8.2065      2.00000
      6      -6.8067      2.00000
      7      -5.1403      2.00000
      8      -3.8563      2.00000
      9      -1.7896      2.00000
     10       0.0681      0.00000
     11       1.3783      0.00000
     12       1.9447      0.00000
     13       2.0854      0.00000
     14       2.6027      0.00000
     15       2.8923      0.00000

 k-point    10 :       0.2308    0.0769    0.0000
  band No.  band energies     occupation 
      1     -10.5842      2.00000
      2     -10.2105      2.00000
      3      -9.5459      2.00000
      4      -8.6179      2.00000
      5      -7.4478      2.00000
      6      -6.0554      2.00000
      7      -4.3942      2.00000
      8      -3.1496      2.00000
      9      -1.2747      0.00000
     10      -0.8033      0.00000
     11      -0.3580      0.00000
     12       0.2385      0.00000
     13       0.8482      0.00000
     14       1.1844      0.00000
     15       2.0736      0.00000

 k-point    11 :       0.3077    0.0769    0.0000
  band No.  band energies     occupation 
      1      -9.5580      2.00000
      2      -9.1873      2.00000
      3      -8.5273      2.00000
      4      -7.6058      2.00000
      5      -6.4451      2.00000
      6      -5.0691      2.00000
      7      -3.4633      2.00000
      8      -3.0861      2.00000
      9      -2.7448      2.00000
     10      -2.1923      2.00000
     11      -1.8314      2.00000
     12      -1.0803      0.00000
     13      -0.0928      0.00000
     14       0.1068      0.00000
     15       1.2755      0.00000

 k-point    12 :       0.3846    0.0769    0.0000
  band No.  band energies     occupation 
      1      -8.2852      2.00000
      2      -7.9187      2.00000
      3      -7.2655      2.00000
      4      -6.3558      2.00000
      5      -5.2273      2.00000
      6      -5.0210      2.00000
      7      -4.6752      2.00000
      8      -4.1651      2.00000
      9      -3.7494      2.00000
     10      -3.0238      2.00000
     11      -2.1057      2.00000
     12      -1.8526      2.00000
     13      -0.9533      0.00000
     14      -0.5337      0.00000
     15       0.8513      0.00000

 k-point    13 :       0.4615    0.0769    0.0000
  band No.  band energies     occupation 
      1      -6.7782      2.00000
      2      -6.7685      2.00000
      3      -6.4298      2.00000
      4      -6.4016      2.00000
      5      -5.8078      2.00000
      6      -5.7258      2.00000
      7      -4.9417      2.00000
      8      -4.8364      2.00000
      9      -3.8921      2.00000
     10      -3.4224      2.00000
     11      -2.3414      2.00000
     12      -2.1645      2.00000
     13      -0.7986      0.00000
     14      -0.4780      0.00000
     15       0.3189      0.00000

 k-point    14 :       0.1538    0.1538   -0.0000
  band No.  band energies     occupation 
      1     -10.7129      2.00000
      2     -10.3389      2.00000
      3      -9.6738      2.00000
      4      -8.7449      2.00000
      5      -7.5738      2.00000
      6      -6.1800      2.00000
      7      -4.5169      2.00000
      8      -3.2629      2.00000
      9      -1.2486      0.00000
     10       0.1913      0.00000
     11       0.5447      0.00000
     12       0.8465      0.00000
     13       1.0916      0.00000
     14       1.3586      0.00000
     15       1.5953      0.00000

 k-point    15 :       0.2308    0.1538    0.0000
  band No.  band energies     occupation 
      1      -9.8139      2.00000
      2      -9.4424      2.00000
      3      -8.7811      2.00000
      4      -7.8578      2.00000
      5      -6.6943      2.00000
      6      -5.3117      2.00000
      7      -3.6655      2.00000
      8      -2.4909      2.00000
      9      -1.7434      1.99938
     10      -1.3444      0.00000
     11      -0.7277      0.00000
     12      -0.3851      0.00000
     13      -0.0275      0.00000
     14       0.2041      0.00000
     15       0.4159      0.00000

 k-point    16 :       0.3077    0.1538    0.0000
  band No.  band energies     occupation 
      1      -8.6657      2.00000
      2      -8.2978      2.00000
      3      -7.6421      2.00000
      4      -6.7273      2.00000
      5      -5.5783      2.00000
      6      -4.2358      2.00000
      7      -3.7975      2.00000
      8      -3.4767      2.00000
      9      -2.9083      2.00000
     10      -2.3956      2.00000
     11      -1.7936      2.00000
     12      -1.2949      0.00000
     13      -0.7376      0.00000
     14      -0.6549      0.00000
     15      -0.2557      0.00000

 k-point    17 :       0.3846    0.1538    0.0000
  band No.  band energies     occupation 
      1      -7.2746      2.00000
      2      -6.9123      2.00000
      3      -6.2670      2.00000
      4      -5.6528      2.00000
      5      -5.3793      2.00000
      6      -5.2766      2.00000
      7      -4.6659      2.00000
      8      -4.2966      2.00000
      9      -3.7059      2.00000
     10      -2.8173      2.00000
     11      -2.4370      2.00000
     12      -1.2416      0.00000
     13      -1.1767      0.00000
     14      -0.9080      0.00000
     15      -0.6149      0.00000

 k-point    18 :       0.2308    0.2308    0.0000
  band No.  band energies     occupation 
      1      -8.7928      2.00000
      2      -8.4244      2.00000
      3      -7.7679      2.00000
      4      -6.8518      2.00000
      5      -5.6997      2.00000
      6      -4.3401      2.00000
      7      -2.7888      2.00000
      8      -2.3735      2.00000
      9      -2.3471      2.00000
     10      -2.1119      2.00000
     11      -1.9060      2.00000
     12      -1.4943      0.00029
     13      -1.2636      0.00000
     14      -0.9708      0.00000
     15      -0.4799      0.00000

 k-point    19 :       0.3077    0.2308   -0.0000
  band No.  band energies     occupation 
      1      -7.5262      2.00000
      2      -7.1622      2.00000
      3      -6.5131      2.00000
      4      -5.6102      2.00000
      5      -4.4931      2.00000
      6      -4.2829      2.00000
      7      -3.9382      2.00000
      8      -3.4503      2.00000
      9      -3.0547      2.00000
     10      -2.6946      2.00000
     11      -2.4150      2.00000
     12      -2.2702      2.00000
     13      -1.8020      2.00000
     14      -1.4190      0.00000
     15      -1.0435      0.00000

 k-point    20 :       0.3846    0.2308    0.0000
  band No.  band energies     occupation 
      1      -6.0264      2.00000
      2      -6.0167      2.00000
      3      -5.6794      2.00000
      4      -5.6527      2.00000
      5      -5.0587      2.00000
      6      -4.9940      2.00000
      7      -4.2066      2.00000
      8      -4.1145      2.00000
      9      -3.2004      2.00000
     10      -2.8232      2.00000
     11      -2.7004      2.00000
     12      -2.4798      2.00000
     13      -1.9926      2.00000
     14      -1.7439      1.99941
     15      -1.2585      0.00000

 k-point    21 :       0.3077    0.3077    0.0000
  band No.  band energies     occupation 
      1      -6.1455      2.00000
      2      -5.7881      2.00000
      3      -5.1517      2.00000
      4      -4.5380      2.00000
      5      -4.5307      2.00000
      6      -4.2822      2.00000
      7      -4.1967      2.00000
      8      -4.1625      2.00000
      9      -3.5902      2.00000
     10      -3.5515      2.00000
     11      -3.2845      2.00000
     12      -2.7965      2.00000
     13      -2.4386      2.00000
     14      -1.8690      2.00000
     15      -1.2697      0.00000


--------------------------------------------------------------------------------------------------------


 soft charge-density along one line, spin component           1
         0         1         2         3         4         5         6         7         8         9
 total charge-density along one line
 
 pseudopotential strength for first ion, spin component:           1
  8.771   0.006  -0.000  -0.002   0.000  -0.000  -0.000   0.000
  0.006  -0.000  -0.000   0.000   0.000   0.000   0.000  -0.000
 -0.000  -0.000   1.971  -0.000  -0.000  -0.001   0.000   0.000
 -0.002   0.000  -0.000   1.972   0.000   0.000  -0.001  -0.000
  0.000   0.000  -0.000   0.000   1.971   0.000  -0.000  -0.001
 -0.000   0.000  -0.001   0.000   0.000  -0.018   0.000   0.000
 -0.000   0.000   0.000  -0.001  -0.000   0.000  -0.018  -0.000
  0.000  -0.000   0.000  -0.000  -0.001   0.000  -0.000  -0.018
 total augmentation occupancy for first ion, spin component:           1
  1.465  -0.289   0.000  -0.032   0.000  -0.000  -0.040  -0.000
 -0.289   0.319   0.000  -0.134  -0.000  -0.000   0.039   0.000
  0.000   0.000   0.626  -0.000   0.000  -0.113   0.000  -0.000
 -0.032  -0.134  -0.000   0.583   0.000   0.000  -0.092  -0.000
  0.000  -0.000   0.000   0.000   0.626  -0.000  -0.000  -0.113
  0.000  -0.000  -0.113   0.000  -0.000   0.024   0.000   0.000
 -0.040   0.039   0.000  -0.092  -0.000   0.000   0.018   0.000
 -0.000   0.000  -0.000  -0.000  -0.113   0.000   0.000   0.024


------------------------ aborting loop because EDIFF is reached ----------------------------------------


    CHARGE:  cpu time    0.1836: real time    0.1917
    FORLOC:  cpu time    0.0065: real time    0.0065
    FORNL :  cpu time    0.7022: real time    0.7101
    STRESS:  cpu time    2.1520: real time    2.3180
    FORCOR:  cpu time    0.0990: real time    0.1005
    FORHAR:  cpu time    0.0352: real time    0.0355
    MIXING:  cpu time    0.0146: real time    0.0146
    OFIELD:  cpu time    0.0001: real time    0.0001

  FORCE on cell =-STRESS in cart. coord.  units (eV):
  Direction    XX          YY          ZZ          XY          YZ          ZX
  --------------------------------------------------------------------------------------
  Alpha Z    -0.29549    -0.29549    -0.29549
  Ewald   18784.14507 18784.14509-19114.56297    -0.00000    -0.00000     0.00001
  Hartree 18771.97450 18771.97450-18771.43505     0.00000     0.00000    -0.00000
  E(xc)     -58.28771   -58.28771   -58.88950    -0.00000     0.00000    -0.00000
  Local  -37724.81797-37724.81797 37718.13924     0.00000     0.00000    -0.00000
  n-local   128.22415   134.39876   135.04404    -0.19082    -0.60786     1.35881
  augment    -7.68160    -7.68159    -7.84687    -0.00000    -0.00000     0.00000
  Kinetic   159.60462    39.62772   100.20323     8.14564     0.06669    -1.14399
  Fock        0.00000     0.00000     0.00000     0.00000     0.00000     0.00000
  -------------------------------------------------------------------------------------
  Total      -4.03558    -4.03558     0.35663     0.00000     0.00000     0.00000
  in kB     -11.60867   -11.60866     1.02588     0.00000     0.00000     0.00000
  external pressure =       -7.40 kB  Pullay stress =        0.00 kB


 VOLUME and BASIS-vectors are now :
 -----------------------------------------------------------------------------
  energy-cutoff  :      450.00
  volume of cell :      556.97
      direct lattice vectors                 reciprocal lattice vectors
     2.592423668 -1.496736268  0.000000000     0.385739419  0.000000000 -0.000000000
     0.000000000  2.993472536  0.000000000     0.192869710  0.334060189 -0.000000000
     0.000000000  0.000000000 71.771635044     0.000000000  0.000000000  0.013933081

  length of vectors
     2.993472888  2.993472536 71.771635044     0.385739419  0.385739465  0.013933081


 FORCES acting on ions
    electron-ion (+dipol)            ewald-force                    non-local-force                 convergence-correction
 -----------------------------------------------------------------------------------------------
   0.193E-06 0.207E-07 0.493E+03   -.189E-05 0.227E-05 -.491E+03   0.128E-16 0.000E+00 -.157E+01   -.176E-11 0.496E-11 -.147E-02
   -.416E-07 0.526E-07 0.649E-01   0.575E-07 -.724E-07 -.134E+00   0.515E-18 0.000E+00 0.116E+00   0.539E-13 0.106E-12 -.134E-04
   -.240E-06 -.681E-07 -.494E+03   0.247E-05 -.301E-05 0.492E+03   0.174E-17 0.000E+00 0.250E+01   -.400E-12 -.349E-11 0.106E-02
   0.150E-04 -.261E-04 0.164E+03   -.428E-05 0.743E-05 -.164E+03   -.158E-17 0.867E-18 0.219E+00   0.181E-10 -.277E-10 0.198E-03
   0.154E-04 -.266E-04 -.328E+03   -.461E-05 0.772E-05 0.328E+03   -.215E-16 0.139E-16 -.973E+00   0.205E-10 -.264E-10 0.285E-02
   -.150E-04 0.260E-04 0.329E+03   0.416E-05 -.727E-05 -.329E+03   -.417E-19 -.139E-16 -.598E-01   -.137E-10 0.178E-10 -.193E-02
   -.149E-04 0.258E-04 -.164E+03   0.409E-05 -.708E-05 0.164E+03   0.334E-17 0.173E-17 -.190E+00   -.146E-10 0.211E-10 -.237E-03
 -----------------------------------------------------------------------------------------------
   0.447E-06 -.811E-06 -.425E-01   -.743E-14 0.219E-16 0.000E+00   -.474E-17 0.260E-17 0.420E-01   0.829E-11 -.136E-10 0.461E-03
 
 
 POSITION                                       TOTAL-FORCE (eV/Angst)
 -----------------------------------------------------------------------------------
      0.00000      0.00000     16.30972         0.000000      0.000000      0.031939
      0.00000      0.00000     23.01204         0.000000     -0.000000      0.047287
      0.00000      0.00000     29.63146         0.000000      0.000000      0.370266
      1.72828     -0.00000     20.78362         0.000000      0.000000      0.027355
      1.72828     -0.00000     27.49771        -0.000000     -0.000000     -0.434623
      0.86414      1.49674     18.56495        -0.000000      0.000000     -0.035633
      0.86414      1.49674     25.25365        -0.000000     -0.000000     -0.006590
 -----------------------------------------------------------------------------------
    total drift:                                0.000000     -0.000001     -0.000011


--------------------------------------------------------------------------------------------------------



  FREE ENERGIE OF THE ION-ELECTRON SYSTEM (eV)
  ---------------------------------------------------
  free  energy   TOTEN  =       -25.19426292 eV

  energy  without entropy=      -25.19306559  energy(sigma->0) =      -25.19366426
 


--------------------------------------------------------------------------------------------------------


    POTLOK:  cpu time    0.1968: real time    0.1972


--------------------------------------------------------------------------------------------------------


 stress matrix after NEB project (eV)
     -4.03558      0.00000      0.00000
      0.00000     -4.03558      0.00000
     -0.00000      0.00000      0.35663
  FORCES: max atom, RMS     0.434623    0.217555
  FORCE total and by dimension    0.575597    0.434623
  Stress total and by dimension    5.718301    4.035578
     LOOP+:  cpu time   57.5736: real time   58.8832
    4ORBIT:  cpu time    0.0000: real time    0.0000

 total amount of memory used by VASP MPI-rank0    70625. kBytes
=======================================================================

   base      :      30000. kBytes
   nonl-proj :       4418. kBytes
   fftplans  :      22144. kBytes
   grid      :      10978. kBytes
   one-center:          6. kBytes
   wavefun   :       3079. kBytes
 
  
  
 General timing and accounting informations for this job:
 ========================================================
  
                  Total CPU time used (sec):       62.781
                            User time (sec):       60.686
                          System time (sec):        2.095
                         Elapsed time (sec):       64.310
  
                   Maximum memory used (kb):      161584.
                   Average memory used (kb):           0.
  
                          Minor page faults:       276556
                          Major page faults:            0
                 Voluntary context switches:          300
