       N       E                     dE             d eps       ncg     rms          rms(c)
DAV:   1     0.467625376090E+03    0.46763E+03   -0.41604E+04  2620   0.132E+03
DAV:   2    -0.943899867526E+02   -0.56202E+03   -0.53513E+03  3368   0.251E+02
DAV:   3    -0.147630987922E+03   -0.53241E+02   -0.52954E+02  3080   0.829E+01
DAV:   4    -0.148322857951E+03   -0.69187E+00   -0.69059E+00  3072   0.103E+01
DAV:   5    -0.148333720584E+03   -0.10863E-01   -0.10855E-01  3092   0.127E+00    0.220E+01
DAV:   6    -0.133639138053E+03    0.14695E+02   -0.82815E+01  2898   0.289E+01    0.742E+00
DAV:   7    -0.133482420038E+03    0.15672E+00   -0.14013E+00  2876   0.499E+00    0.451E+00
DAV:   8    -0.133382799179E+03    0.99621E-01   -0.45838E-01  3076   0.387E+00    0.750E-01
DAV:   9    -0.133367338423E+03    0.15461E-01   -0.81606E-02  2930   0.118E+00    0.472E-01
DAV:  10    -0.133365987315E+03    0.13511E-02   -0.39192E-02  3024   0.829E-01    0.252E-01
DAV:  11    -0.133365376887E+03    0.61043E-03   -0.37927E-03  3028   0.303E-01    0.147E-01
DAV:  12    -0.133364640898E+03    0.73599E-03   -0.37576E-03  3138   0.293E-01    0.829E-02
DAV:  13    -0.133364316610E+03    0.32429E-03   -0.77330E-04  3066   0.151E-01    0.663E-02
DAV:  14    -0.133363822106E+03    0.49450E-03   -0.90399E-04  3798   0.215E-01    0.381E-02
DAV:  15    -0.133363376595E+03    0.44551E-03   -0.38204E-04  3388   0.178E-01    0.196E-02
DAV:  16    -0.133362734729E+03    0.64187E-03   -0.53301E-04  4128   0.340E-01    0.177E-02
DAV:  17    -0.133362508094E+03    0.22663E-03   -0.51271E-04  3010   0.242E-01    0.171E-02
DAV:  18    -0.133362374287E+03    0.13381E-03   -0.29436E-04  3508   0.232E-01    0.136E-02
DAV:  19    -0.133362343743E+03    0.30544E-04   -0.38489E-04  2942   0.151E-01    0.163E-02
DAV:  20    -0.133362292728E+03    0.51016E-04   -0.74492E-05  3408   0.162E-01    0.106E-02
DAV:  21    -0.133362287785E+03    0.49427E-05   -0.10570E-04  2796   0.822E-02    0.718E-03
DAV:  22    -0.133362292482E+03   -0.46972E-05   -0.66236E-05  2630   0.315E-02
   1 F= -.13336229E+03 E0= -.13335978E+03  d E =-.133362E+03
       N       E                     dE             d eps       ncg     rms          rms(c)
DAV:   1    -0.133362702262E+03   -0.41448E-03   -0.25249E-02  2844   0.693E-01    0.269E-02
DAV:   2    -0.133362741534E+03   -0.39272E-04   -0.67557E-04  3032   0.116E-01    0.161E-02
DAV:   3    -0.133362732583E+03    0.89506E-05   -0.31648E-05  2574   0.328E-02    0.122E-02
DAV:   4    -0.133362724575E+03    0.80078E-05   -0.10867E-05  1750   0.237E-02    0.636E-03
DAV:   5    -0.133362713549E+03    0.11027E-04   -0.10114E-05  1986   0.406E-02    0.431E-03
DAV:   6    -0.133362710429E+03    0.31194E-05   -0.15149E-05  1980   0.277E-02
   2 F= -.13336271E+03 E0= -.13336019E+03  d E =-.417947E-03
       N       E                     dE             d eps       ncg     rms          rms(c)
DAV:   1    -0.133362841992E+03   -0.12844E-03   -0.29518E-02  2732   0.751E-01    0.253E-02
DAV:   2    -0.133362886613E+03   -0.44621E-04   -0.77986E-04  3054   0.124E-01    0.190E-02
DAV:   3    -0.133362871031E+03    0.15582E-04   -0.29800E-05  2454   0.358E-02    0.140E-02
DAV:   4    -0.133362851400E+03    0.19631E-04   -0.16998E-05  2030   0.380E-02    0.688E-03
DAV:   5    -0.133362833153E+03    0.18247E-04   -0.19476E-05  2306   0.528E-02    0.602E-03
DAV:   6    -0.133362825596E+03    0.75576E-05   -0.21821E-05  2244   0.411E-02
   3 F= -.13336283E+03 E0= -.13336028E+03  d E =-.533113E-03
       N       E                     dE             d eps       ncg     rms          rms(c)
DAV:   1    -0.133363022944E+03   -0.18979E-03   -0.64271E-02  2636   0.109E+00    0.330E-02
DAV:   2    -0.133363147264E+03   -0.12432E-03   -0.14319E-03  2906   0.151E-01    0.212E-02
DAV:   3    -0.133363136651E+03    0.10613E-04   -0.21751E-05  2188   0.290E-02    0.138E-02
DAV:   4    -0.133363129460E+03    0.71912E-05   -0.16818E-05  1794   0.294E-02    0.565E-03
DAV:   5    -0.133363128034E+03    0.14256E-05   -0.11705E-05  1624   0.205E-02    0.364E-03
DAV:   6    -0.133363127490E+03    0.54414E-06   -0.34692E-06  1590   0.951E-03
   4 F= -.13336313E+03 E0= -.13336058E+03  d E =-.301894E-03
       N       E                     dE             d eps       ncg     rms          rms(c)
DAV:   1    -0.133362956890E+03    0.17114E-03   -0.24029E-01  2656   0.211E+00    0.617E-02
DAV:   2    -0.133363399838E+03   -0.44295E-03   -0.51960E-03  2916   0.291E-01    0.382E-02
DAV:   3    -0.133363360517E+03    0.39321E-04   -0.79852E-05  3042   0.555E-02    0.264E-02
DAV:   4    -0.133363326420E+03    0.34097E-04   -0.57746E-05  2880   0.565E-02    0.115E-02
DAV:   5    -0.133363313767E+03    0.12653E-04   -0.34500E-05  2550   0.483E-02    0.839E-03
DAV:   6    -0.133363309114E+03    0.46528E-05   -0.24292E-05  2112   0.320E-02
   5 F= -.13336331E+03 E0= -.13336077E+03  d E =-.483518E-03
       N       E                     dE             d eps       ncg     rms          rms(c)
DAV:   1    -0.133363337834E+03   -0.24067E-04   -0.13698E-01  2700   0.161E+00    0.481E-02
DAV:   2    -0.133363608682E+03   -0.27085E-03   -0.31099E-03  2916   0.227E-01    0.293E-02
DAV:   3    -0.133363588704E+03    0.19979E-04   -0.52757E-05  2930   0.390E-02    0.214E-02
DAV:   4    -0.133363573049E+03    0.15655E-04   -0.43780E-05  2770   0.371E-02    0.903E-03
DAV:   5    -0.133363566762E+03    0.62869E-05   -0.12792E-05  1834   0.316E-02    0.699E-03
DAV:   6    -0.133363564781E+03    0.19811E-05   -0.12858E-05  1696   0.244E-02
   6 F= -.13336356E+03 E0= -.13336104E+03  d E =-.255667E-03
       N       E                     dE             d eps       ncg     rms          rms(c)
DAV:   1    -0.133363477924E+03    0.88838E-04   -0.96666E-02  2700   0.135E+00    0.401E-02
DAV:   2    -0.133363671246E+03   -0.19332E-03   -0.22077E-03  2916   0.190E-01    0.247E-02
DAV:   3    -0.133363655102E+03    0.16144E-04   -0.27020E-05  2410   0.306E-02    0.179E-02
DAV:   4    -0.133363640093E+03    0.15009E-04   -0.47427E-05  2674   0.423E-02    0.708E-03
DAV:   5    -0.133363637123E+03    0.29703E-05   -0.18128E-05  1780   0.251E-02    0.712E-03
DAV:   6    -0.133363635939E+03    0.11839E-05   -0.67866E-06  1584   0.132E-02
   7 F= -.13336364E+03 E0= -.13336113E+03  d E =-.326825E-03
       N       E                     dE             d eps       ncg     rms          rms(c)
DAV:   1    -0.133363608759E+03    0.28364E-04   -0.19569E-01  2676   0.190E+00    0.542E-02
DAV:   2    -0.133363970169E+03   -0.36141E-03   -0.40811E-03  2950   0.259E-01    0.334E-02
DAV:   3    -0.133363936590E+03    0.33579E-04   -0.46604E-05  2898   0.460E-02    0.229E-02
DAV:   4    -0.133363898122E+03    0.38467E-04   -0.58674E-05  2746   0.692E-02    0.845E-03
DAV:   5    -0.133363891496E+03    0.66265E-05   -0.53919E-05  2688   0.437E-02    0.954E-03
DAV:   6    -0.133363888901E+03    0.25951E-05   -0.15574E-05  1624   0.190E-02
   8 F= -.13336389E+03 E0= -.13336139E+03  d E =-.252962E-03
       N       E                     dE             d eps       ncg     rms          rms(c)
DAV:   1    -0.133363828084E+03    0.63412E-04   -0.43355E-02  2696   0.896E-01    0.260E-02
DAV:   2    -0.133363894208E+03   -0.66124E-04   -0.90352E-04  2988   0.131E-01    0.178E-02
DAV:   3    -0.133363880913E+03    0.13296E-04   -0.35310E-05  2544   0.367E-02    0.129E-02
DAV:   4    -0.133363865568E+03    0.15345E-04   -0.65513E-06  1732   0.250E-02    0.799E-03
DAV:   5    -0.133363839830E+03    0.25738E-04   -0.17048E-05  2134   0.581E-02    0.631E-03
DAV:   6    -0.133363826814E+03    0.13016E-04   -0.21360E-05  2316   0.492E-02    0.411E-03
DAV:   7    -0.133363803858E+03    0.22956E-04   -0.68673E-05  3398   0.135E-01    0.157E-02
DAV:   8    -0.133363796503E+03    0.73554E-05   -0.63003E-05  2664   0.450E-02
   9 F= -.13336380E+03 E0= -.13336130E+03  d E =-.160564E-03
       N       E                     dE             d eps       ncg     rms          rms(c)
DAV:   1    -0.133363811505E+03   -0.76473E-05   -0.14580E-02  2752   0.517E-01    0.218E-02
DAV:   2    -0.133363831574E+03   -0.20069E-04   -0.33040E-04  2954   0.786E-02    0.110E-02
DAV:   3    -0.133363828567E+03    0.30068E-05   -0.14638E-05  1784   0.194E-02    0.706E-03
DAV:   4    -0.133363826425E+03    0.21416E-05   -0.49877E-06  1624   0.120E-02    0.312E-03
DAV:   5    -0.133363825305E+03    0.11208E-05   -0.19872E-06  1630   0.111E-02    0.240E-03
DAV:   6    -0.133363824509E+03    0.79598E-06   -0.17179E-06  1684   0.135E-02
  10 F= -.13336382E+03 E0= -.13336133E+03  d E =-.188570E-03
       N       E                     dE             d eps       ncg     rms          rms(c)
DAV:   1    -0.133363829060E+03   -0.37555E-05   -0.13565E-03  2860   0.158E-01    0.523E-03
DAV:   2    -0.133363831364E+03   -0.23037E-05   -0.29543E-05  2250   0.221E-02    0.280E-03
DAV:   3    -0.133363830947E+03    0.41667E-06   -0.57614E-07  1524   0.500E-03    0.181E-03
DAV:   4    -0.133363830301E+03    0.64618E-06   -0.48250E-07  1618   0.922E-03    0.827E-04
DAV:   5    -0.133363830039E+03    0.26219E-06   -0.60029E-07  1500   0.715E-03    0.863E-04
DAV:   6    -0.133363829815E+03    0.22397E-06   -0.35284E-07  1588   0.647E-03
  11 F= -.13336383E+03 E0= -.13336134E+03  d E =-.193876E-03
       N       E                     dE             d eps       ncg     rms          rms(c)
DAV:   1    -0.133363934734E+03   -0.10470E-03   -0.39284E-02  2648   0.853E-01    0.253E-02
DAV:   2    -0.133364006681E+03   -0.71948E-04   -0.83836E-04  2946   0.118E-01    0.158E-02
DAV:   3    -0.133364000788E+03    0.58938E-05   -0.11450E-05  1904   0.197E-02    0.113E-02
DAV:   4    -0.133363995820E+03    0.49674E-05   -0.21900E-05  2344   0.282E-02    0.483E-03
DAV:   5    -0.133363995539E+03    0.28142E-06   -0.79381E-06  1590   0.141E-02    0.574E-03
DAV:   6    -0.133363994873E+03    0.66586E-06   -0.19175E-06  1584   0.780E-03
  12 F= -.13336399E+03 E0= -.13336150E+03  d E =-.165058E-03
       N       E                     dE             d eps       ncg     rms          rms(c)
DAV:   1    -0.133363925386E+03    0.70153E-04   -0.10015E-01  2628   0.136E+00    0.412E-02
DAV:   2    -0.133364107485E+03   -0.18210E-03   -0.21679E-03  2950   0.191E-01    0.252E-02
DAV:   3    -0.133364091095E+03    0.16390E-04   -0.37541E-05  2794   0.342E-02    0.183E-02
DAV:   4    -0.133364074851E+03    0.16244E-04   -0.47234E-05  2748   0.406E-02    0.896E-03
DAV:   5    -0.133364069195E+03    0.56559E-05   -0.16445E-05  1796   0.286E-02    0.970E-03
DAV:   6    -0.133364062100E+03    0.70951E-05   -0.12718E-05  1778   0.333E-02
  13 F= -.13336406E+03 E0= -.13336157E+03  d E =-.232285E-03
       N       E                     dE             d eps       ncg     rms          rms(c)
DAV:   1    -0.133364295543E+03   -0.22635E-03   -0.21209E-02  2676   0.641E-01    0.227E-02
DAV:   2    -0.133364321889E+03   -0.26346E-04   -0.53119E-04  2996   0.106E-01    0.149E-02
DAV:   3    -0.133364312253E+03    0.96362E-05   -0.34668E-05  2560   0.320E-02    0.117E-02
DAV:   4    -0.133364301242E+03    0.11011E-04   -0.61575E-06  1646   0.192E-02    0.695E-03
DAV:   5    -0.133364279066E+03    0.22176E-04   -0.12640E-05  1984   0.492E-02    0.681E-03
DAV:   6    -0.133364263413E+03    0.15653E-04   -0.15466E-05  2178   0.534E-02    0.630E-03
DAV:   7    -0.133364243706E+03    0.19707E-04   -0.38617E-05  2790   0.964E-02    0.760E-03
DAV:   8    -0.133364232939E+03    0.10767E-04   -0.31530E-05  2502   0.676E-02    0.616E-03
DAV:   9    -0.133364227673E+03    0.52658E-05   -0.22780E-05  2300   0.429E-02
  14 F= -.13336423E+03 E0= -.13336172E+03  d E =-.165573E-03
       N       E                     dE             d eps       ncg     rms          rms(c)
DAV:   1    -0.133364232104E+03    0.83504E-06   -0.12643E-03  2796   0.161E-01    0.959E-03
DAV:   2    -0.133364235952E+03   -0.38476E-05   -0.68698E-05  2814   0.366E-02    0.606E-03
DAV:   3    -0.133364235106E+03    0.84578E-06   -0.34012E-06  1590   0.866E-03    0.401E-03
DAV:   4    -0.133364234330E+03    0.77554E-06   -0.17929E-06  1590   0.610E-03    0.143E-03
DAV:   5    -0.133364233827E+03    0.50317E-06   -0.41784E-07  1590   0.501E-03    0.139E-03
DAV:   6    -0.133364232802E+03    0.10254E-05   -0.25824E-07  1590   0.111E-02
  15 F= -.13336423E+03 E0= -.13336172E+03  d E =-.170702E-03
       N       E                     dE             d eps       ncg     rms          rms(c)
DAV:   1    -0.133364311642E+03   -0.77815E-04   -0.69210E-02  2684   0.115E+00    0.335E-02
DAV:   2    -0.133364446078E+03   -0.13444E-03   -0.15196E-03  2952   0.159E-01    0.201E-02
DAV:   3    -0.133364435119E+03    0.10959E-04   -0.18310E-05  2080   0.260E-02    0.140E-02
DAV:   4    -0.133364425276E+03    0.98433E-05   -0.18327E-05  2006   0.325E-02    0.527E-03
DAV:   5    -0.133364422649E+03    0.26264E-05   -0.14338E-05  1656   0.259E-02    0.472E-03
DAV:   6    -0.133364422926E+03   -0.27707E-06   -0.62634E-06  1590   0.104E-02
  16 F= -.13336442E+03 E0= -.13336189E+03  d E =-.190125E-03
       N       E                     dE             d eps       ncg     rms          rms(c)
DAV:   1    -0.133364309859E+03    0.11279E-03   -0.12507E-01  2668   0.154E+00    0.458E-02
DAV:   2    -0.133364538068E+03   -0.22821E-03   -0.27115E-03  2946   0.215E-01    0.270E-02
DAV:   3    -0.133364512791E+03    0.25277E-04   -0.43790E-05  2954   0.422E-02    0.190E-02
DAV:   4    -0.133364489279E+03    0.23512E-04   -0.23942E-05  2318   0.430E-02    0.953E-03
DAV:   5    -0.133364467597E+03    0.21682E-04   -0.20330E-05  2132   0.564E-02    0.521E-03
DAV:   6    -0.133364463758E+03    0.38399E-05   -0.31737E-05  2254   0.300E-02
  17 F= -.13336446E+03 E0= -.13336192E+03  d E =-.230956E-03
       N       E                     dE             d eps       ncg     rms          rms(c)
DAV:   1    -0.133364465369E+03    0.22282E-05   -0.83968E-02  2760   0.126E+00    0.376E-02
DAV:   2    -0.133364620931E+03   -0.15556E-03   -0.18506E-03  2968   0.177E-01    0.230E-02
DAV:   3    -0.133364600399E+03    0.20531E-04   -0.23697E-05  2220   0.340E-02    0.160E-02
DAV:   4    -0.133364577077E+03    0.23323E-04   -0.21274E-05  2236   0.433E-02    0.748E-03
DAV:   5    -0.133364559587E+03    0.17489E-04   -0.17365E-05  1954   0.442E-02    0.488E-03
DAV:   6    -0.133364553441E+03    0.61461E-05   -0.22796E-05  1932   0.269E-02
  18 F= -.13336455E+03 E0= -.13336199E+03  d E =-.896837E-04
       N       E                     dE             d eps       ncg     rms          rms(c)
DAV:   1    -0.133364535619E+03    0.23969E-04   -0.86385E-03  2744   0.406E-01    0.118E-02
DAV:   2    -0.133364543782E+03   -0.81637E-05   -0.18797E-04  2950   0.614E-02    0.853E-03
DAV:   3    -0.133364536552E+03    0.72300E-05   -0.63410E-06  1606   0.200E-02    0.616E-03
DAV:   4    -0.133364526476E+03    0.10076E-04   -0.20010E-06  1722   0.220E-02    0.417E-03
DAV:   5    -0.133364503276E+03    0.23200E-04   -0.95745E-06  2072   0.573E-02    0.368E-03
DAV:   6    -0.133364492008E+03    0.11267E-04   -0.19187E-05  2204   0.421E-02    0.446E-03
DAV:   7    -0.133364479042E+03    0.12967E-04   -0.89508E-06  1958   0.537E-02    0.369E-03
DAV:   8    -0.133364459890E+03    0.19151E-04   -0.29613E-05  2568   0.118E-01    0.418E-03
DAV:   9    -0.133364462245E+03   -0.23546E-05   -0.61045E-05  2636   0.486E-02
  19 F= -.13336446E+03 E0= -.13336191E+03  d E =0.151288E-05
       N       E                     dE             d eps       ncg     rms          rms(c)
DAV:   1    -0.133364479026E+03   -0.19136E-04   -0.42395E-03  2856   0.283E-01    0.956E-03
DAV:   2    -0.133364485305E+03   -0.62785E-05   -0.94311E-05  2900   0.414E-02    0.733E-03
DAV:   3    -0.133364483730E+03    0.15744E-05   -0.24855E-06  1590   0.102E-02    0.491E-03
DAV:   4    -0.133364482008E+03    0.17228E-05   -0.23682E-06  1602   0.133E-02    0.187E-03
DAV:   5    -0.133364481495E+03    0.51282E-06   -0.23456E-06  1604   0.110E-02    0.178E-03
DAV:   6    -0.133364481373E+03    0.12139E-06   -0.12000E-06  1512   0.551E-03
  20 F= -.13336448E+03 E0= -.13336193E+03  d E =-.176158E-04
       N       E                     dE             d eps       ncg     rms          rms(c)
DAV:   1    -0.133364484171E+03   -0.26758E-05   -0.27076E-04  2576   0.723E-02    0.253E-03
DAV:   2    -0.133364484457E+03   -0.28646E-06   -0.70421E-06  1578   0.129E-02    0.148E-03
DAV:   3    -0.133364484228E+03    0.22943E-06   -0.70796E-07  1518   0.563E-03    0.120E-03
DAV:   4    -0.133364484072E+03    0.15576E-06   -0.20769E-07  1464   0.320E-03    0.104E-03
DAV:   5    -0.133364483635E+03    0.43715E-06   -0.12253E-07  1590   0.573E-03    0.674E-04
DAV:   6    -0.133364482940E+03    0.69492E-06   -0.59679E-07  1626   0.128E-02
  21 F= -.13336448E+03 E0= -.13336193E+03  d E =-.191822E-04
       N       E                     dE             d eps       ncg     rms          rms(c)
DAV:   1    -0.133364483925E+03   -0.29046E-06   -0.38891E-05  2338   0.278E-02    0.123E-03
DAV:   2    -0.133364483916E+03    0.95806E-08   -0.12685E-06  1464   0.564E-03    0.561E-04
DAV:   3    -0.133364483842E+03    0.73363E-07   -0.15431E-07  1464   0.258E-03    0.515E-04
DAV:   4    -0.133364483827E+03    0.15363E-07   -0.65758E-08  1410   0.115E-03    0.626E-04
DAV:   5    -0.133364483821E+03    0.62892E-08   -0.93812E-09  1392   0.394E-04    0.614E-04
DAV:   6    -0.133364483733E+03    0.87880E-07   -0.22157E-07  1410   0.191E-03
  22 F= -.13336448E+03 E0= -.13336193E+03  d E =-.199751E-04
       N       E                     dE             d eps       ncg     rms          rms(c)
DAV:   1    -0.133364587434E+03   -0.10361E-03   -0.14342E-02  2692   0.522E-01    0.174E-02
DAV:   2    -0.133364611277E+03   -0.23842E-04   -0.34613E-04  2994   0.810E-02    0.111E-02
DAV:   3    -0.133364607137E+03    0.41393E-05   -0.12915E-05  1702   0.214E-02    0.835E-03
DAV:   4    -0.133364603215E+03    0.39224E-05   -0.43004E-06  1668   0.163E-02    0.471E-03
DAV:   5    -0.133364597822E+03    0.53934E-05   -0.51335E-06  1880   0.289E-02    0.323E-03
DAV:   6    -0.133364596327E+03    0.14950E-05   -0.70230E-06  1606   0.188E-02
  23 F= -.13336460E+03 E0= -.13336204E+03  d E =-.112594E-03
       N       E                     dE             d eps       ncg     rms          rms(c)
DAV:   1    -0.133364614026E+03   -0.16204E-04   -0.10636E-02  2728   0.451E-01    0.151E-02
DAV:   2    -0.133364630366E+03   -0.16340E-04   -0.27076E-04  3010   0.745E-02    0.102E-02
DAV:   3    -0.133364625553E+03    0.48125E-05   -0.12269E-05  1632   0.219E-02    0.785E-03
DAV:   4    -0.133364619172E+03    0.63817E-05   -0.36143E-06  1742   0.194E-02    0.431E-03
DAV:   5    -0.133364609541E+03    0.96308E-05   -0.76486E-06  1956   0.401E-02    0.469E-03
DAV:   6    -0.133364606892E+03    0.26492E-05   -0.10745E-05  1704   0.241E-02
  24 F= -.13336461E+03 E0= -.13336204E+03  d E =-.123159E-03
       N       E                     dE             d eps       ncg     rms          rms(c)
DAV:   1    -0.133364717243E+03   -0.10770E-03   -0.37329E-03  2784   0.271E-01    0.108E-02
DAV:   2    -0.133364722693E+03   -0.54503E-05   -0.13530E-04  2970   0.521E-02    0.109E-02
DAV:   3    -0.133364719111E+03    0.35827E-05   -0.75484E-06  1608   0.134E-02    0.794E-03
DAV:   4    -0.133364713719E+03    0.53920E-05   -0.37117E-06  1628   0.125E-02    0.432E-03
DAV:   5    -0.133364707065E+03    0.66536E-05   -0.32196E-06  1784   0.197E-02    0.354E-03
DAV:   6    -0.133364691994E+03    0.15071E-04   -0.13419E-05  2192   0.656E-02    0.429E-03
DAV:   7    -0.133364685957E+03    0.60375E-05   -0.28120E-05  2476   0.526E-02
  25 F= -.13336469E+03 E0= -.13336212E+03  d E =-.790654E-04
       N       E                     dE             d eps       ncg     rms          rms(c)
DAV:   1    -0.133364715535E+03   -0.23541E-04   -0.24461E-03  2838   0.217E-01    0.860E-03
DAV:   2    -0.133364717215E+03   -0.16793E-05   -0.67860E-05  2834   0.354E-02    0.581E-03
DAV:   3    -0.133364714352E+03    0.28626E-05   -0.22445E-06  1590   0.115E-02    0.401E-03
DAV:   4    -0.133364709437E+03    0.49154E-05   -0.11686E-06  1682   0.174E-02    0.253E-03
DAV:   5    -0.133364702282E+03    0.71546E-05   -0.32705E-06  1822   0.290E-02    0.212E-03
DAV:   6    -0.133364695968E+03    0.63144E-05   -0.57357E-06  1766   0.338E-02
  26 F= -.13336470E+03 E0= -.13336213E+03  d E =-.890762E-04
