 vasp.5.3.5 31Mar14 (build Apr 08 2024 10:12:10) complex                        
  
 executed on             LinuxIFC date 2024.07.29  10:11:52
 running on    8 total cores
 distrk:  each k-point on    8 cores,    1 groups
 distr:  one band on NCORES_PER_BAND=   4 cores,    2 groups


--------------------------------------------------------------------------------------------------------


 INCAR:
 POTCAR:    PAW_PBE O 08Apr2002                   
 POTCAR:    PAW_PBE Mg 13Apr2007                  
 POTCAR:    PAW_PBE Al 04Jan2001                  
 POTCAR:    PAW_PBE O 08Apr2002                   
   VRHFIN =O: s2p4                                                              
   LEXCH  = PE                                                                  
   EATOM  =   432.3788 eV,   31.7789 Ry                                         
                                                                                
   TITEL  = PAW_PBE O 08Apr2002                                                 
   LULTRA =        F    use ultrasoft PP ?                                      
   IUNSCR =        1    unscreen: 0-lin 1-nonlin 2-no                           
   RPACOR =    1.200    partial core radius                                     
   POMASS =   16.000; ZVAL   =    6.000    mass and valenz                      
   RCORE  =    1.520    outmost cutoff radius                                   
   RWIGS  =    1.550; RWIGS  =    0.820    wigner-seitz radius (au A)           
   ENMAX  =  400.000; ENMIN  =  300.000 eV                                      
   ICORE  =        2    local potential                                         
   LCOR   =        T    correct aug charges                                     
   LPAW   =        T    paw PP                                                  
   EAUG   =  605.392                                                            
   DEXC   =    0.000                                                            
   RMAX   =    1.553    core radius for proj-oper                               
   RAUG   =    1.300    factor for augmentation sphere                          
   RDEP   =    1.550    radius for radial grids                                 
   RDEPT  =    1.329    core radius for aug-charge                              
                                                                                
   Atomic configuration                                                         
    4 entries                                                                   
     n  l   j            E        occ.                                          
     1  0  0.50      -514.6923   2.0000                                         
     2  0  0.50       -23.9615   2.0000                                         
     2  1  0.50        -9.0305   4.0000                                         
     3  2  1.50        -9.5241   0.0000                                         
   Description                                                                  
     l       E           TYP  RCUT    TYP  RCUT                                 
     0    -23.9615318     23  1.200                                             
     0     -9.5240782     23  1.200                                             
     1     -9.0304911     23  1.520                                             
     1      8.1634956     23  1.520                                             
     2     -9.5240782      7  1.500                                             
  local pseudopotential read in
  partial core-charges read in
  partial kinetic energy density read in
  kinetic energy density of atom read in
  atomic valenz-charges read in
  non local Contribution for L=           0  read in
    real space projection operators read in
  non local Contribution for L=           0  read in
    real space projection operators read in
  non local Contribution for L=           1  read in
    real space projection operators read in
  non local Contribution for L=           1  read in
    real space projection operators read in
    PAW grid and wavefunctions read in
 
   number of l-projection  operators is LMAX  =           4
   number of lm-projection operators is LMMAX =           8
 
 POTCAR:    PAW_PBE Mg 13Apr2007                  
   VRHFIN =Mg: s2p0                                                             
   LEXCH  = PE                                                                  
   EATOM  =    23.0369 eV,    1.6932 Ry                                         
                                                                                
   TITEL  = PAW_PBE Mg 13Apr2007                                                
   LULTRA =        F    use ultrasoft PP ?                                      
   IUNSCR =        1    unscreen: 0-lin 1-nonlin 2-no                           
   RPACOR =    1.500    partial core radius                                     
   POMASS =   24.305; ZVAL   =    2.000    mass and valenz                      
   RCORE  =    2.000    outmost cutoff radius                                   
   RWIGS  =    2.880; RWIGS  =    1.524    wigner-seitz radius (au A)           
   ENMAX  =  200.000; ENMIN  =  100.000 eV                                      
   RCLOC  =    1.506    cutoff for local pot                                    
   LCOR   =        T    correct aug charges                                     
   LPAW   =        T    paw PP                                                  
   EAUG   =  454.734                                                            
   DEXC   =    0.000                                                            
   RMAX   =    2.045    core radius for proj-oper                               
   RAUG   =    1.300    factor for augmentation sphere                          
   RDEP   =    2.025    radius for radial grids                                 
   RDEPT  =    1.942    core radius for aug-charge                              
                                                                                
   Atomic configuration                                                         
    6 entries                                                                   
     n  l   j            E        occ.                                          
     1  0  0.50     -1259.6230   2.0000                                         
     2  0  0.50       -79.8442   2.0000                                         
     2  1  1.50       -46.6121   6.0000                                         
     3  0  0.50        -4.7055   2.0000                                         
     3  1  0.50        -1.3660   0.0000                                         
     3  2  1.50        -1.3606   0.0000                                         
   Description                                                                  
     l       E           TYP  RCUT    TYP  RCUT                                 
     0     -4.7054661     23  2.000                                             
     0     27.2116520     23  2.000                                             
     1      1.3605826     23  2.000                                             
     1     27.2116520     23  2.000                                             
     2     -1.3605826     23  2.000                                             
  local pseudopotential read in
  partial core-charges read in
  partial kinetic energy density read in
  atomic valenz-charges read in
  non local Contribution for L=           0  read in
    real space projection operators read in
  non local Contribution for L=           0  read in
    real space projection operators read in
  non local Contribution for L=           1  read in
    real space projection operators read in
  non local Contribution for L=           1  read in
    real space projection operators read in
  non local Contribution for L=           2  read in
    real space projection operators read in
    PAW grid and wavefunctions read in
 
   number of l-projection  operators is LMAX  =           5
   number of lm-projection operators is LMMAX =          13
 
 POTCAR:    PAW_PBE Al 04Jan2001                  
   VRHFIN =Al: s2p1                                                             
   LEXCH  = PE                                                                  
   EATOM  =    53.5387 eV,    3.9350 Ry                                         
                                                                                
   TITEL  = PAW_PBE Al 04Jan2001                                                
   LULTRA =        F    use ultrasoft PP ?                                      
   IUNSCR =        1    unscreen: 0-lin 1-nonlin 2-no                           
   RPACOR =    1.500    partial core radius                                     
   POMASS =   26.981; ZVAL   =    3.000    mass and valenz                      
   RCORE  =    1.900    outmost cutoff radius                                   
   RWIGS  =    2.650; RWIGS  =    1.402    wigner-seitz radius (au A)           
   ENMAX  =  240.300; ENMIN  =  180.225 eV                                      
   ICORE  =        2    local potential                                         
   LCOR   =        T    correct aug charges                                     
   LPAW   =        T    paw PP                                                  
   EAUG   =  291.052                                                            
   DEXC   =    0.000                                                            
   RMAX   =    1.939    core radius for proj-oper                               
   RAUG   =    1.300    factor for augmentation sphere                          
   RDEP   =    1.966    radius for radial grids                                 
   RDEPT  =    1.856    core radius for aug-charge                              
                                                                                
   Atomic configuration                                                         
    6 entries                                                                   
     n  l   j            E        occ.                                          
     1  0  0.50     -1511.1048   2.0000                                         
     2  0  0.50      -108.1629   2.0000                                         
     2  1  1.50       -69.6402   6.0000                                         
     3  0  0.50        -7.7528   2.0000                                         
     3  1  1.50        -2.7121   1.0000                                         
     3  2  2.50        -2.7212   0.0000                                         
   Description                                                                  
     l       E           TYP  RCUT    TYP  RCUT                                 
     0     -7.7528455     23  1.900                                             
     0     -3.3096929     23  1.900                                             
     1     -2.7120682     23  1.900                                             
     1     13.6058260     23  1.900                                             
     2     -2.7211652      7  1.900                                             
  local pseudopotential read in
  partial core-charges read in
  partial kinetic energy density read in
  atomic valenz-charges read in
  non local Contribution for L=           0  read in
    real space projection operators read in
  non local Contribution for L=           0  read in
    real space projection operators read in
  non local Contribution for L=           1  read in
    real space projection operators read in
  non local Contribution for L=           1  read in
    real space projection operators read in
    PAW grid and wavefunctions read in
 
   number of l-projection  operators is LMAX  =           4
   number of lm-projection operators is LMMAX =           8
 

 ----------------------------------------------------------------------------- 
|                                                                             |
|  ADVICE TO THIS USER RUNNING 'VASP/VAMP'   (HEAR YOUR MASTER'S VOICE ...):  |
|                                                                             |
|      You have a (more or less) 'large supercell' and for larger cells       |
|      it might be more efficient to use real space projection opertators     |
|      So try LREAL= Auto  in the INCAR   file.                               |
|      Mind: At the moment your POTCAR file does not contain real space       |
|       projectors, and has to be modified,  BUT if you                       |
|      want to do an extremely  accurate calculation you might also keep the  |
|      reciprocal projection scheme          (i.e. LREAL=.FALSE.)             |
|                                                                             |
 ----------------------------------------------------------------------------- 

  PAW_PBE O 08Apr2002                   :
 energy of atom  1       EATOM= -432.3788
 kinetic energy error for atom=    0.0208 (will be added to EATOM!!)
  PAW_PBE Mg 13Apr2007                  :
 energy of atom  2       EATOM=  -23.0369
 kinetic energy error for atom=    0.0000 (will be added to EATOM!!)
  PAW_PBE Al 04Jan2001                  :
 energy of atom  3       EATOM=  -53.5387
 kinetic energy error for atom=    0.0002 (will be added to EATOM!!)
 
 
 POSCAR: Layer                                   
  positions in direct lattice
  velocities in cartesian coordinates
 exchange correlation table for  LEXCH =        8
   RHO(1)=    0.500       N(1)  =     2000
   RHO(2)=  100.500       N(2)  =     4000
 


--------------------------------------------------------------------------------------------------------


 ion  position               nearest neighbor table
   1  0.000  0.000  0.346-  14 2.13  14 2.13  14 2.13  17 2.13  17 2.13  17 2.13
   2  0.333  0.667  0.406-  14 2.13  14 2.13  14 2.13  11 2.13  11 2.13  11 2.13
   3  0.000  0.000  0.526-  18 2.13  18 2.13  18 2.13  15 2.13  15 2.13  15 2.13
   4  0.333  0.667  0.586-  15 2.13  15 2.13  15 2.13  12 2.13  12 2.13  12 2.13
   5  0.000  0.000  0.705-  16 2.13  16 2.13  16 2.13  19 2.13  19 2.13  19 2.13
   6  0.333  0.667  0.765-  16 2.13  16 2.13  16 2.13  13 2.14  13 2.14  13 2.14
   7  0.667  0.333  0.286-  17 2.13  17 2.13  17 2.13  10 2.14  10 2.14  10 2.14
   8  0.667  0.333  0.466-  11 2.12  11 2.12  11 2.12  18 2.13  18 2.13  18 2.13
   9  0.667  0.333  0.645-  19 2.13  19 2.13  19 2.13  12 2.13  12 2.13  12 2.13
  10  0.000  0.000  0.256-   7 2.14   7 2.14   7 2.14  21 2.78  17 3.05  17 3.05  17 3.05
  11  0.000  0.000  0.436-   8 2.12   8 2.12   8 2.12   2 2.13   2 2.13   2 2.13  18 3.02  18 3.02
                            18 3.02  14 3.02  14 3.02  14 3.02
  12  0.000  0.000  0.615-   4 2.13   4 2.13   4 2.13   9 2.13   9 2.13   9 2.13  15 3.02  15 3.02
                            15 3.02  19 3.02  19 3.02  19 3.02
  13  0.000  0.000  0.796-   6 2.14   6 2.14   6 2.14  24 2.78  16 3.05  16 3.05  16 3.05
  14  0.667  0.333  0.376-   2 2.13   2 2.13   2 2.13   1 2.13   1 2.13   1 2.13  11 3.02  11 3.02
                            11 3.02  17 3.02  17 3.02  17 3.02
  15  0.667  0.333  0.556-   4 2.13   4 2.13   4 2.13   3 2.13   3 2.13   3 2.13  18 3.02  18 3.02
                            18 3.02  12 3.02  12 3.02  12 3.02
  16  0.667  0.333  0.735-   5 2.13   5 2.13   5 2.13   6 2.13   6 2.13   6 2.13  19 3.03  19 3.03
                            19 3.03  13 3.05  13 3.05  13 3.05
  17  0.333  0.667  0.316-   7 2.13   7 2.13   7 2.13   1 2.13   1 2.13   1 2.13  14 3.02  14 3.02
                            14 3.02  10 3.05  10 3.05  10 3.05
  18  0.333  0.667  0.496-   3 2.13   3 2.13   3 2.13   8 2.13   8 2.13   8 2.13  11 3.02  11 3.02
                            11 3.02  15 3.02  15 3.02  15 3.02
  19  0.333  0.667  0.675-   9 2.13   9 2.13   9 2.13   5 2.13   5 2.13   5 2.13  12 3.02  12 3.02
                            12 3.02  16 3.03  16 3.03  16 3.03
  20  0.000  0.000  0.026-  25 2.83  25 2.83  25 2.83  23 2.83  23 2.83  23 2.83
  21  0.000  0.000  0.189-  10 2.78  22 2.84  22 2.84  22 2.84
  22  0.667  0.333  0.134-  21 2.84  21 2.84  21 2.84  23 2.84  23 2.84  23 2.84
  23  0.333  0.667  0.080-  20 2.83  20 2.83  20 2.83  22 2.84  22 2.84  22 2.84
  24  0.000  0.000  0.863-  13 2.78  26 2.84  26 2.84  26 2.84
  25  0.667  0.333  0.972-  20 2.83  20 2.83  20 2.83  26 2.84  26 2.84  26 2.84
  26  0.333  0.667  0.917-  24 2.84  24 2.84  24 2.84  25 2.84  25 2.84  25 2.84
 
  LATTYP: Found a hexagonal cell.
 ALAT       =     2.9929628358
 C/A-ratio  =    13.8374759853
  
  Lattice vectors:
  
 A1 = (   2.5919820457,  -1.4964810762,   0.0000000000)
 A2 = (   0.0000000000,   2.9929621524,   0.0000000000)
 A3 = (   0.0000000000,  -0.0000000000,  41.4150513653)


Analysis of symmetry for initial positions (statically):
=====================================================================
 Subroutine PRICEL returns:
 Original cell was already a primitive cell.
 

 Routine SETGRP: Setting up the symmetry group for a 
 hexagonal supercell.


 Subroutine GETGRP returns: Found  6 space group operations
 (whereof  6 operations were pure point group operations)
 out of a pool of 24 trial point group operations.


The static configuration has the point symmetry C_3v.


Analysis of symmetry for dynamics (positions and initial velocities):
=====================================================================
 Subroutine PRICEL returns:
 Original cell was already a primitive cell.
 

 Routine SETGRP: Setting up the symmetry group for a 
 hexagonal supercell.


 Subroutine GETGRP returns: Found  6 space group operations
 (whereof  6 operations were pure point group operations)
 out of a pool of 24 trial point group operations.


The dynamic configuration has the point symmetry C_3v.


Analysis of constrained symmetry for selective dynamics:
=====================================================================
 Subroutine PRICEL returns:
 Original cell was already a primitive cell.
 

 Routine SETGRP: Setting up the symmetry group for a 
 hexagonal supercell.


 Subroutine GETGRP returns: Found  6 space group operations
 (whereof  6 operations were pure point group operations)
 out of a pool of 24 trial point group operations.


The constrained configuration has the point symmetry C_3v.
 
 
 KPOINTS: K-Spacing Value to Generate K-Mesh: 0.02

Automatic generation of k-mesh.
Space group operators:
 irot       det(A)        alpha          n_x          n_y          n_z        tau_x        tau_y        tau_z
    1     1.000000     0.000001     1.000000     0.000000     0.000000     0.000000     0.000000     0.000000
    2     1.000000   120.000000    -0.000000     0.000000    -1.000000     0.000000     0.000000     0.000000
    3     1.000000   120.000000    -0.000000    -0.000000     1.000000     0.000000     0.000000     0.000000
    4    -1.000000   180.000000    -0.866025     0.500000     0.000000     0.000000     0.000000     0.000000
    5    -1.000000   180.000000     0.000000     1.000000     0.000000     0.000000     0.000000     0.000000
    6    -1.000000   180.000000    -0.866025    -0.500000    -0.000000     0.000000     0.000000     0.000000
 
 Subroutine IBZKPT returns following result:
 ===========================================
 
 Found     21 irreducible k-points:
 
 Following reciprocal coordinates:
            Coordinates               Weight
  0.000000  0.000000  0.000000      1.000000
  0.076923  0.000000 -0.000000      6.000000
  0.153846  0.000000 -0.000000      6.000000
  0.230769  0.000000 -0.000000      6.000000
  0.307692  0.000000 -0.000000      6.000000
  0.384615  0.000000 -0.000000      6.000000
  0.461538  0.000000 -0.000000      6.000000
  0.076923  0.076923  0.000000      6.000000
  0.153846  0.076923  0.000000     12.000000
  0.230769  0.076923  0.000000     12.000000
  0.307692  0.076923  0.000000     12.000000
  0.384615  0.076923  0.000000     12.000000
  0.461538  0.076923  0.000000      6.000000
  0.153846  0.153846  0.000000      6.000000
  0.230769  0.153846  0.000000     12.000000
  0.307692  0.153846  0.000000     12.000000
  0.384615  0.153846  0.000000     12.000000
  0.230769  0.230769  0.000000      6.000000
  0.307692  0.230769  0.000000     12.000000
  0.384615  0.230769  0.000000      6.000000
  0.307692  0.307692  0.000000      6.000000
 
 Following cartesian coordinates:
            Coordinates               Weight
  0.000000  0.000000  0.000000      1.000000
  0.029677 -0.000000 -0.000000      6.000000
  0.059355 -0.000000 -0.000000      6.000000
  0.089032 -0.000000 -0.000000      6.000000
  0.118709 -0.000000 -0.000000      6.000000
  0.148387 -0.000000 -0.000000      6.000000
  0.178064 -0.000000 -0.000000      6.000000
  0.044516  0.025701  0.000000      6.000000
  0.074193  0.025701  0.000000     12.000000
  0.103871  0.025701  0.000000     12.000000
  0.133548  0.025701  0.000000     12.000000
  0.163225  0.025701  0.000000     12.000000
  0.192903  0.025701  0.000000      6.000000
  0.089032  0.051403  0.000000      6.000000
  0.118709  0.051403  0.000000     12.000000
  0.148387  0.051403  0.000000     12.000000
  0.178064  0.051403  0.000000     12.000000
  0.133548  0.077104  0.000000      6.000000
  0.163225  0.077104  0.000000     12.000000
  0.192903  0.077104  0.000000      6.000000
  0.178064  0.102805  0.000000      6.000000
 


--------------------------------------------------------------------------------------------------------




 Dimension of arrays:
   k-points           NKPTS =     21   k-points in BZ     NKDIM =     21   number of bands    NBANDS=     62
   number of dos      NEDOS =    301   number of ions     NIONS =     26
   non local maximal  LDIM  =      5   non local SUM 2l+1 LMDIM =     13
   total plane-waves  NPLWV = 184320
   max r-space proj   IRMAX =      1   max aug-charges    IRDMAX= 195141
   dimension x,y,z NGX =    24 NGY =   24 NGZ =  320
   dimension x,y,z NGXF=    48 NGYF=   48 NGZF=  640
   support grid    NGXF=    96 NGYF=   96 NGZF= 1280
   ions per type =               9  10   7
 NGX,Y,Z   is equivalent  to a cutoff of  13.33, 13.33, 12.85 a.u.
 NGXF,Y,Z  is equivalent  to a cutoff of  26.66, 26.66, 25.69 a.u.


 I would recommend the setting:
   dimension x,y,z NGX =    22 NGY =   22 NGZ =  308
 SYSTEM =  unknown system                          
 POSCAR =  Layer                                   

 Startparameter for this run:
   NWRITE =      2    write-flag & timer
   PREC   = accura    normal or accurate (medium, high low for compatibility)
   ISTART =      0    job   : 0-new  1-cont  2-samecut
   ICHARG =      2    charge: 1-file 2-atom 10-const
   ISPIN  =      1    spin polarized calculation?
   LNONCOLLINEAR =      F non collinear calculations
   LSORBIT =      F    spin-orbit coupling
   INIWAV =      1    electr: 0-lowe 1-rand  2-diag
   LASPH  =      F    aspherical Exc in radial PAW
   METAGGA=      F    non-selfconsistent MetaGGA calc.

 Electronic Relaxation 1
   ENCUT  =  520.0 eV  38.22 Ry    6.18 a.u.   5.56  5.56 77.00*2*pi/ulx,y,z
   ENINI  =  520.0     initial cutoff
   ENAUG  =  605.4 eV  augmentation charge cutoff
   NELM   =    100;   NELMIN=  6; NELMDL=  0     # of ELM steps 
   EDIFF  = 0.1E-04   stopping-criterion for ELM
   LREAL  =      F    real-space projection
   NLSPLINE    = F    spline interpolate recip. space projectors
   LCOMPAT=      F    compatible to vasp.4.4
   GGA_COMPAT  = T    GGA compatible to vasp.4.4-vasp.4.6
   LMAXPAW     = -100 max onsite density
   LMAXMIX     =    2 max onsite mixed and CHGCAR
   VOSKOWN=      0    Vosko Wilk Nusair interpolation
   ROPT   =    0.00000   0.00000   0.00000
 Ionic relaxation
   EDIFFG = -.2E-01   stopping-criterion for IOM
   NSW    =    500    number of steps for IOM
   NBLOCK =      1;   KBLOCK =    500    inner block; outer block 
   IBRION =      2    ionic relax: 0-MD 1-quasi-New 2-CG
   NFREE  =      1    steps in history (QN), initial steepest desc. (CG)
   ISIF   =      2    stress and relaxation
   IWAVPR =     11    prediction:  0-non 1-charg 2-wave 3-comb
   ISYM   =      2    0-nonsym 1-usesym 2-fastsym
   LCORR  =      T    Harris-Foulkes like correction to forces

   POTIM  = 0.5000    time-step for ionic-motion
   TEIN   =    0.0    initial temperature
   TEBEG  =    0.0;   TEEND  =   0.0 temperature during run
   SMASS  =  -3.00    Nose mass-parameter (am)
   estimated Nose-frequenzy (Omega)   =  0.10E-29 period in steps =****** mass=  -0.205E-27a.u.
   SCALEE = 1.0000    scale energy and forces
   NPACO  =    256;   APACO  = 16.0  distance and # of slots for P.C.
   PSTRESS=    0.0 pullay stress

  Mass of Ions in am
   POMASS =  16.00 24.30 26.98
  Ionic Valenz
   ZVAL   =   6.00  2.00  3.00
  Atomic Wigner-Seitz radii
   RWIGS  =  -1.00 -1.00 -1.00
  virtual crystal weights 
   VCA    =   1.00  1.00  1.00
   NELECT =      95.0000    total number of electrons
   NUPDOWN=      -1.0000    fix difference up-down

 DOS related values:
   EMIN   =  10.00;   EMAX   =-10.00  energy-range for DOS
   EFERMI =   0.00
   ISMEAR =     0;   SIGMA  =   0.05  broadening in eV -4-tet -1-fermi 0-gaus

 Electronic relaxation 2 (details)
   IALGO  =     38    algorithm
   LDIAG  =      T    sub-space diagonalisation (order eigenvalues)
   LSUBROT=      F    optimize rotation matrix (better conditioning)
   TURBO    =      0    0=normal 1=particle mesh
   IRESTART =      0    0=no restart 2=restart with 2 vectors
   NREBOOT  =      0    no. of reboots
   NMIN     =      0    reboot dimension
   EREF     =   0.00    reference energy to select bands
   IMIX   =      4    mixing-type and parameters
     AMIX     =   0.40;   BMIX     =  1.00
     AMIX_MAG =   1.60;   BMIX_MAG =  1.00
     AMIN     =   0.01
     WC   =   100.;   INIMIX=   1;  MIXPRE=   1;  MAXMIX= -45

 Intra band minimization:
   WEIMIN = 0.0010     energy-eigenvalue tresh-hold
   EBREAK =  0.40E-07  absolut break condition
   DEPER  =   0.30     relativ break condition  

   TIME   =   0.40     timestep for ELM

  volume/ion in A,a.u.               =      12.36        83.39
  Fermi-wavevector in a.u.,A,eV,Ry     =   1.090650  2.061030 16.184379  1.189518
  Thomas-Fermi vector in A             =   2.226879
 
 Write flags
   LWAVE  =      F    write WAVECAR
   LCHARG =      T    write CHGCAR
   LVTOT  =      F    write LOCPOT, total local potential
   LVHAR  =      F    write LOCPOT, Hartree potential only
   LELF   =      F    write electronic localiz. function (ELF)
   LORBIT =      0    0 simple, 1 ext, 2 COOP (PROOUT)


 Dipole corrections
   LMONO  =      F    monopole corrections only (constant potential shift)
   LDIPOL =      F    correct potential (dipole corrections)
   IDIPOL =      0    1-x, 2-y, 3-z, 4-all directions 
   EPSILON=  1.0000000 bulk dielectric constant

 Exchange correlation treatment:
   GGA     =    --    GGA type
   LEXCH   =     8    internal setting for exchange type
   VOSKOWN=      0    Vosko Wilk Nusair interpolation
   LHFCALC =     F    Hartree Fock is set to
   LHFONE  =     F    Hartree Fock one center treatment
   AEXX    =    0.0000 exact exchange contribution

 Linear response parameters
   LEPSILON=     F    determine dielectric tensor
   LRPA    =     F    only Hartree local field effects (RPA)
   LNABLA  =     F    use nabla operator in PAW spheres
   LVEL    =     F    velocity operator in full k-point grid
   LINTERFAST=   F  fast interpolation
   KINTER  =     0    interpolate to denser k-point grid
   CSHIFT  =0.1000    complex shift for real part using Kramers Kronig
   OMEGAMAX=  -1.0    maximum frequency
   DEG_THRESHOLD= 0.2000000E-02 threshold for treating states as degnerate
   RTIME   =    0.100 relaxation time in fs

 Orbital magnetization related:
   ORBITALMAG=     F  switch on orbital magnetization
   LCHIMAG   =     F  perturbation theory with respect to B field
   DQ        =  0.001000  dq finite difference perturbation B field



--------------------------------------------------------------------------------------------------------


 conjugate gradient relaxation of ions
   using selective dynamics as specified on POSCAR
 charge density and potential will be updated during run
 non-spin polarized calculation
 Variant of blocked Davidson
 Davidson routine will perform the subspace rotation
 perform sub-space diagonalisation
    after iterative eigenvector-optimisation
 modified Broyden-mixing scheme, WC =      100.0
 initial mixing is a Kerker type mixing with AMIX =  0.4000 and BMIX =      1.0000
 Hartree-type preconditioning will be used
 using additional bands           14
 reciprocal scheme for non local part
 use partial core corrections
 calculate Harris-corrections to forces 
   (improved forces if not selfconsistent)
 use gradient corrections 
 use of overlap-Matrix (Vanderbilt PP)
 Gauss-broadening in eV      SIGMA  =   0.05


--------------------------------------------------------------------------------------------------------


  energy-cutoff  :      520.00
  volume of cell :      321.29
      direct lattice vectors                 reciprocal lattice vectors
     2.591982046 -1.496481076  0.000000000     0.385805142 -0.000000000 -0.000000000
     0.000000000  2.992962152  0.000000000     0.192902571  0.334117155  0.000000000
     0.000000000 -0.000000000 41.415051365     0.000000000  0.000000000  0.024145811

  length of vectors
     2.992962836  2.992962152 41.415051365     0.385805142  0.385805230  0.024145811


 
 k-points in units of 2pi/SCALE and weight: K-Spacing Value to Generate K-Mesh: 0.02
   0.00000000  0.00000000  0.00000000       0.006
   0.02967732 -0.00000000 -0.00000000       0.036
   0.05935464 -0.00000000 -0.00000000       0.036
   0.08903196 -0.00000000 -0.00000000       0.036
   0.11870927 -0.00000000 -0.00000000       0.036
   0.14838659 -0.00000000 -0.00000000       0.036
   0.17806391 -0.00000000 -0.00000000       0.036
   0.04451598  0.02570132  0.00000000       0.036
   0.07419330  0.02570132  0.00000000       0.071
   0.10387062  0.02570132  0.00000000       0.071
   0.13354793  0.02570132  0.00000000       0.071
   0.16322525  0.02570132  0.00000000       0.071
   0.19290257  0.02570132  0.00000000       0.036
   0.08903196  0.05140264  0.00000000       0.036
   0.11870927  0.05140264  0.00000000       0.071
   0.14838659  0.05140264  0.00000000       0.071
   0.17806391  0.05140264  0.00000000       0.071
   0.13354793  0.07710396  0.00000000       0.036
   0.16322525  0.07710396  0.00000000       0.071
   0.19290257  0.07710396  0.00000000       0.036
   0.17806391  0.10280528  0.00000000       0.036
 
 k-points in reciprocal lattice and weights: K-Spacing Value to Generate K-Mesh: 0.02
   0.00000000  0.00000000  0.00000000       0.006
   0.07692308  0.00000000 -0.00000000       0.036
   0.15384615  0.00000000 -0.00000000       0.036
   0.23076923  0.00000000 -0.00000000       0.036
   0.30769231  0.00000000 -0.00000000       0.036
   0.38461538  0.00000000 -0.00000000       0.036
   0.46153846  0.00000000 -0.00000000       0.036
   0.07692308  0.07692308  0.00000000       0.036
   0.15384615  0.07692308  0.00000000       0.071
   0.23076923  0.07692308  0.00000000       0.071
   0.30769231  0.07692308  0.00000000       0.071
   0.38461538  0.07692308  0.00000000       0.071
   0.46153846  0.07692308  0.00000000       0.036
   0.15384615  0.15384615  0.00000000       0.036
   0.23076923  0.15384615  0.00000000       0.071
   0.30769231  0.15384615  0.00000000       0.071
   0.38461538  0.15384615  0.00000000       0.071
   0.23076923  0.23076923  0.00000000       0.036
   0.30769231  0.23076923  0.00000000       0.071
   0.38461538  0.23076923  0.00000000       0.036
   0.30769231  0.30769231  0.00000000       0.036
 
 position of ions in fractional coordinates (direct lattice) 
   0.00000000  0.00000000  0.34625257
   0.33333300  0.66666700  0.40607432
   0.00000000  0.00000000  0.52565893
   0.33333300  0.66666700  0.58553351
   0.00000000  0.00000000  0.70539288
   0.33333300  0.66666700  0.76534519
   0.66666700  0.33333300  0.28635446
   0.66666700  0.33333300  0.46584500
   0.66666700  0.33333300  0.64544069
   0.00000000  0.00000000  0.25569341
   0.00000000  0.00000000  0.43598275
   0.00000000  0.00000000  0.61548191
   0.00000000  0.00000000  0.79600834
   0.66666700  0.33333300  0.37618162
   0.66666700  0.33333300  0.55560732
   0.66666700  0.33333300  0.73535372
   0.33333300  0.66666700  0.31629416
   0.33333300  0.66666700  0.49577000
   0.33333300  0.66666700  0.67539100
   0.00000000  0.00000000  0.02584869
   0.00000000  0.00000000  0.18862830
   0.66666700  0.33333300  0.13429759
   0.33333300  0.66666700  0.07992595
   0.00000000  0.00000000  0.86302180
   0.66666700  0.33333300  0.97180172
   0.33333300  0.66666700  0.91732915
 
 position of ions in cartesian coordinates  (Angst):
   0.00000000 -0.00000000 14.34006815
   0.86399315  1.49648257 16.81758866
   0.00000000 -0.00000000 21.77019165
   0.86399315  1.49648257 24.24990028
   0.00000000 -0.00000000 29.21388243
   0.86399315  1.49648257 31.69681051
   1.72798889 -0.00000150 11.85938474
   1.72798889 -0.00000150 19.29299452
   1.72798889 -0.00000150 26.73095936
   0.00000000 -0.00000000 10.58955560
   0.00000000 -0.00000000 18.05624816
   0.00000000 -0.00000000 25.49021510
   0.00000000 -0.00000000 32.96672644
   1.72798889 -0.00000150 15.57958132
   1.72798889 -0.00000150 23.01050551
   1.72798889 -0.00000150 30.45471218
   0.86399315  1.49648257 13.09933871
   0.86399315  1.49648257 20.53233985
   0.86399315  1.49648257 27.97135302
   0.00000000 -0.00000000  1.07052496
   0.00000000 -0.00000000  7.81205093
   1.72798889 -0.00000150  5.56194165
   0.86399315  1.49648257  3.31013720
   0.00000000 -0.00000000 35.74209207
   1.72798889 -0.00000150 40.24721824
   0.86399315  1.49648257 37.99123399
 


--------------------------------------------------------------------------------------------------------


 k-point  1 :   0.0000 0.0000 0.0000  plane waves:    8771
 k-point  2 :   0.0769 0.0000-0.0000  plane waves:    8773
 k-point  3 :   0.1538 0.0000-0.0000  plane waves:    8751
 k-point  4 :   0.2308 0.0000-0.0000  plane waves:    8688
 k-point  5 :   0.3077 0.0000-0.0000  plane waves:    8660
 k-point  6 :   0.3846 0.0000-0.0000  plane waves:    8588
 k-point  7 :   0.4615 0.0000-0.0000  plane waves:    8616
 k-point  8 :   0.0769 0.0769 0.0000  plane waves:    8743
 k-point  9 :   0.1538 0.0769 0.0000  plane waves:    8724
 k-point 10 :   0.2308 0.0769 0.0000  plane waves:    8667
 k-point 11 :   0.3077 0.0769 0.0000  plane waves:    8642
 k-point 12 :   0.3846 0.0769 0.0000  plane waves:    8602
 k-point 13 :   0.4615 0.0769 0.0000  plane waves:    8578
 k-point 14 :   0.1538 0.1538 0.0000  plane waves:    8673
 k-point 15 :   0.2308 0.1538 0.0000  plane waves:    8650
 k-point 16 :   0.3077 0.1538 0.0000  plane waves:    8630
 k-point 17 :   0.3846 0.1538 0.0000  plane waves:    8600
 k-point 18 :   0.2308 0.2308 0.0000  plane waves:    8654
 k-point 19 :   0.3077 0.2308 0.0000  plane waves:    8597
 k-point 20 :   0.3846 0.2308 0.0000  plane waves:    8632
 k-point 21 :   0.3077 0.3077 0.0000  plane waves:    8636

 maximum and minimum number of plane-waves per node :      2220     2125

 maximum number of plane-waves:      8773
 maximum index in each direction: 
   IXMAX=    5   IYMAX=    5   IZMAX=   77
   IXMIN=   -6   IYMIN=   -5   IZMIN=  -77

 NGX is ok and might be reduce to  24
 NGY is ok and might be reduce to  22
 NGZ is ok and might be reduce to 310

 parallel 3D FFT for wavefunctions:
    minimum data exchange during FFTs selected (reduces bandwidth)
 parallel 3D FFT for charge:
    minimum data exchange during FFTs selected (reduces bandwidth)


 total amount of memory used by VASP on root node   146233. kBytes
========================================================================

   base      :      30000. kBytes
   nonl-proj :      15287. kBytes
   fftplans  :      55170. kBytes
   grid      :      22118. kBytes
   one-center:         56. kBytes
   wavefun   :      23602. kBytes
 
     INWAV:  cpu time    0.00: real time    0.00
 Broyden mixing: mesh for mixing (old mesh)
   NGX = 11   NGY = 11   NGZ =155
  (NGX  = 48   NGY  = 48   NGZ  =640)
  gives a total of  18755 points

 initial charge density was supplied:
 charge density of overlapping atoms calculated
 number of electron      95.0000000 magnetization 
 keeping initial charge density in first step


--------------------------------------------------------------------------------------------------------


 Maximum index for augmentation-charges        23491 (set IRDMAX)


--------------------------------------------------------------------------------------------------------


 First call to EWALD:  gamma=   0.259
 Maximum number of real-space cells 6x 6x 1
 Maximum number of reciprocal cells 1x 1x14

 FEWALD executed in parallel
    FEWALD:  cpu time    0.00: real time    0.00


----------------------------------------- Iteration    1(   1)  ---------------------------------------


    POTLOK:  cpu time    0.10: real time    0.10
    SETDIJ:  cpu time    0.10: real time    0.10
     EDDAV:  cpu time    3.89: real time    3.89
       DOS:  cpu time    0.00: real time    0.00
    --------------------------------------------
      LOOP:  cpu time    4.10: real time    4.11

 eigenvalue-minimisations  :  2620
 total energy-change (2. order) : 0.4676254E+03  (-0.4160426E+04)
 number of electron      95.0000000 magnetization 
 augmentation part       95.0000000 magnetization 

 Free energy of the ion-electron system (eV)
  ---------------------------------------------------
  alpha Z        PSCENC =       125.85117849
  Ewald energy   TEWEN  =     12689.48707517
  -Hartree energ DENC   =    -17462.12139424
  -exchange      EXHF   =         0.00000000
  -V(xc)+E(xc)   XCENC  =      -418.38528476
  PAW double counting   =      4235.41334458    -3509.29226066
  entropy T*S    EENTRO =        -0.00471913
  eigenvalues    EBANDS =       310.31772083
  atomic energy  EATOM  =      4496.35971583
  ---------------------------------------------------
  free energy    TOTEN  =       467.62537609 eV

  energy without entropy =      467.63009522  energy(sigma->0) =      467.62773566


--------------------------------------------------------------------------------------------------------




----------------------------------------- Iteration    1(   2)  ---------------------------------------


     EDDAV:  cpu time    4.62: real time    4.62
       DOS:  cpu time    0.00: real time    0.00
    --------------------------------------------
      LOOP:  cpu time    4.62: real time    4.62

 eigenvalue-minimisations  :  3368
 total energy-change (2. order) :-0.5620154E+03  (-0.5351313E+03)
 number of electron      95.0000000 magnetization 
 augmentation part       95.0000000 magnetization 

 Free energy of the ion-electron system (eV)
  ---------------------------------------------------
  alpha Z        PSCENC =       125.85117849
  Ewald energy   TEWEN  =     12689.48707517
  -Hartree energ DENC   =    -17462.12139424
  -exchange      EXHF   =         0.00000000
  -V(xc)+E(xc)   XCENC  =      -418.38528476
  PAW double counting   =      4235.41334458    -3509.29226066
  entropy T*S    EENTRO =        -0.00264023
  eigenvalues    EBANDS =      -251.69972092
  atomic energy  EATOM  =      4496.35971583
  ---------------------------------------------------
  free energy    TOTEN  =       -94.38998675 eV

  energy without entropy =      -94.38734653  energy(sigma->0) =      -94.38866664


--------------------------------------------------------------------------------------------------------




----------------------------------------- Iteration    1(   3)  ---------------------------------------


     EDDAV:  cpu time    4.29: real time    4.29
       DOS:  cpu time    0.00: real time    0.00
    --------------------------------------------
      LOOP:  cpu time    4.29: real time    4.30

 eigenvalue-minimisations  :  3080
 total energy-change (2. order) :-0.5324100E+02  (-0.5295365E+02)
 number of electron      95.0000000 magnetization 
 augmentation part       95.0000000 magnetization 

 Free energy of the ion-electron system (eV)
  ---------------------------------------------------
  alpha Z        PSCENC =       125.85117849
  Ewald energy   TEWEN  =     12689.48707517
  -Hartree energ DENC   =    -17462.12139424
  -exchange      EXHF   =         0.00000000
  -V(xc)+E(xc)   XCENC  =      -418.38528476
  PAW double counting   =      4235.41334458    -3509.29226066
  entropy T*S    EENTRO =        -0.00429948
  eigenvalues    EBANDS =      -304.93906284
  atomic energy  EATOM  =      4496.35971583
  ---------------------------------------------------
  free energy    TOTEN  =      -147.63098792 eV

  energy without entropy =     -147.62668844  energy(sigma->0) =     -147.62883818


--------------------------------------------------------------------------------------------------------




----------------------------------------- Iteration    1(   4)  ---------------------------------------


     EDDAV:  cpu time    4.38: real time    4.39
       DOS:  cpu time    0.00: real time    0.00
    --------------------------------------------
      LOOP:  cpu time    4.38: real time    4.39

 eigenvalue-minimisations  :  3072
 total energy-change (2. order) :-0.6918700E+00  (-0.6905913E+00)
 number of electron      95.0000000 magnetization 
 augmentation part       95.0000000 magnetization 

 Free energy of the ion-electron system (eV)
  ---------------------------------------------------
  alpha Z        PSCENC =       125.85117849
  Ewald energy   TEWEN  =     12689.48707517
  -Hartree energ DENC   =    -17462.12139424
  -exchange      EXHF   =         0.00000000
  -V(xc)+E(xc)   XCENC  =      -418.38528476
  PAW double counting   =      4235.41334458    -3509.29226066
  entropy T*S    EENTRO =        -0.00449736
  eigenvalues    EBANDS =      -305.63073499
  atomic energy  EATOM  =      4496.35971583
  ---------------------------------------------------
  free energy    TOTEN  =      -148.32285795 eV

  energy without entropy =     -148.31836059  energy(sigma->0) =     -148.32060927


--------------------------------------------------------------------------------------------------------




----------------------------------------- Iteration    1(   5)  ---------------------------------------


     EDDAV:  cpu time    4.37: real time    4.37
       DOS:  cpu time    0.00: real time    0.00
    CHARGE:  cpu time    0.36: real time    0.36
    MIXING:  cpu time    0.00: real time    0.00
    --------------------------------------------
      LOOP:  cpu time    4.73: real time    4.74

 eigenvalue-minimisations  :  3092
 total energy-change (2. order) :-0.1086263E-01  (-0.1085545E-01)
 number of electron      95.0000001 magnetization 
 augmentation part        6.9406574 magnetization 

 Broyden mixing:
  rms(total) = 0.21962E+01    rms(broyden)= 0.21957E+01
  rms(prec ) = 0.22617E+01
  weight for this iteration     100.00

 Free energy of the ion-electron system (eV)
  ---------------------------------------------------
  alpha Z        PSCENC =       125.85117849
  Ewald energy   TEWEN  =     12689.48707517
  -Hartree energ DENC   =    -17462.12139424
  -exchange      EXHF   =         0.00000000
  -V(xc)+E(xc)   XCENC  =      -418.38528476
  PAW double counting   =      4235.41334458    -3509.29226066
  entropy T*S    EENTRO =        -0.00449561
  eigenvalues    EBANDS =      -305.64159937
  atomic energy  EATOM  =      4496.35971583
  ---------------------------------------------------
  free energy    TOTEN  =      -148.33372058 eV

  energy without entropy =     -148.32922497  energy(sigma->0) =     -148.33147278


--------------------------------------------------------------------------------------------------------




----------------------------------------- Iteration    1(   6)  ---------------------------------------


    POTLOK:  cpu time    0.10: real time    0.10
    SETDIJ:  cpu time    0.10: real time    0.10
     EDDAV:  cpu time    4.21: real time    4.21
       DOS:  cpu time    0.00: real time    0.00
    CHARGE:  cpu time    0.36: real time    0.36
    MIXING:  cpu time    0.00: real time    0.00
    --------------------------------------------
      LOOP:  cpu time    4.78: real time    4.78

 eigenvalue-minimisations  :  2898
 total energy-change (2. order) : 0.1469458E+02  (-0.8281495E+01)
 number of electron      95.0000001 magnetization 
 augmentation part        5.6229123 magnetization 

 Broyden mixing:
  rms(total) = 0.74153E+00    rms(broyden)= 0.74059E+00
  rms(prec ) = 0.74923E+00
  weight for this iteration     100.00

 eigenvalues of (default mixing * dielectric matrix)
  average eigenvalue GAMMA=   0.8444
  0.8444

 Free energy of the ion-electron system (eV)
  ---------------------------------------------------
  alpha Z        PSCENC =       125.85117849
  Ewald energy   TEWEN  =     12689.48707517
  -Hartree energ DENC   =    -17632.56207448
  -exchange      EXHF   =         0.00000000
  -V(xc)+E(xc)   XCENC  =      -406.22139079
  PAW double counting   =      5047.46067191    -4324.50910817
  entropy T*S    EENTRO =        -0.00572895
  eigenvalues    EBANDS =      -129.49947706
  atomic energy  EATOM  =      4496.35971583
  ---------------------------------------------------
  free energy    TOTEN  =      -133.63913805 eV

  energy without entropy =     -133.63340911  energy(sigma->0) =     -133.63627358


--------------------------------------------------------------------------------------------------------




----------------------------------------- Iteration    1(   7)  ---------------------------------------


    POTLOK:  cpu time    0.10: real time    0.10
    SETDIJ:  cpu time    0.10: real time    0.10
     EDDAV:  cpu time    4.18: real time    4.19
       DOS:  cpu time    0.00: real time    0.00
    CHARGE:  cpu time    0.36: real time    0.36
    MIXING:  cpu time    0.00: real time    0.00
    --------------------------------------------
      LOOP:  cpu time    4.75: real time    4.75

 eigenvalue-minimisations  :  2876
 total energy-change (2. order) : 0.1567180E+00  (-0.1401298E+00)
 number of electron      95.0000001 magnetization 
 augmentation part        5.6661917 magnetization 

 Broyden mixing:
  rms(total) = 0.45079E+00    rms(broyden)= 0.45078E+00
  rms(prec ) = 0.45698E+00
  weight for this iteration     100.00

 eigenvalues of (default mixing * dielectric matrix)
  average eigenvalue GAMMA=   1.6464
  0.9722  2.3205

 Free energy of the ion-electron system (eV)
  ---------------------------------------------------
  alpha Z        PSCENC =       125.85117849
  Ewald energy   TEWEN  =     12689.48707517
  -Hartree energ DENC   =    -17629.91774961
  -exchange      EXHF   =         0.00000000
  -V(xc)+E(xc)   XCENC  =      -405.81664738
  PAW double counting   =      5341.45774590    -4618.10897813
  entropy T*S    EENTRO =        -0.00438185
  eigenvalues    EBANDS =      -132.79037846
  atomic energy  EATOM  =      4496.35971583
  ---------------------------------------------------
  free energy    TOTEN  =      -133.48242004 eV

  energy without entropy =     -133.47803818  energy(sigma->0) =     -133.48022911


--------------------------------------------------------------------------------------------------------




----------------------------------------- Iteration    1(   8)  ---------------------------------------


    POTLOK:  cpu time    0.10: real time    0.10
    SETDIJ:  cpu time    0.10: real time    0.10
     EDDAV:  cpu time    4.41: real time    4.41
       DOS:  cpu time    0.00: real time    0.00
    CHARGE:  cpu time    0.36: real time    0.36
    MIXING:  cpu time    0.00: real time    0.00
    --------------------------------------------
      LOOP:  cpu time    4.97: real time    4.98

 eigenvalue-minimisations  :  3076
 total energy-change (2. order) : 0.9962086E-01  (-0.4583776E-01)
 number of electron      95.0000001 magnetization 
 augmentation part        5.7045201 magnetization 

 Broyden mixing:
  rms(total) = 0.74995E-01    rms(broyden)= 0.74961E-01
  rms(prec ) = 0.87365E-01
  weight for this iteration     100.00

 eigenvalues of (default mixing * dielectric matrix)
  average eigenvalue GAMMA=   1.4030
  2.4328  0.8881  0.8881

 Free energy of the ion-electron system (eV)
  ---------------------------------------------------
  alpha Z        PSCENC =       125.85117849
  Ewald energy   TEWEN  =     12689.48707517
  -Hartree energ DENC   =    -17634.38065920
  -exchange      EXHF   =         0.00000000
  -V(xc)+E(xc)   XCENC  =      -404.28351323
  PAW double counting   =      5864.91632418    -5141.31054051
  entropy T*S    EENTRO =        -0.00569594
  eigenvalues    EBANDS =      -130.01668397
  atomic energy  EATOM  =      4496.35971583
  ---------------------------------------------------
  free energy    TOTEN  =      -133.38279918 eV

  energy without entropy =     -133.37710324  energy(sigma->0) =     -133.37995121


--------------------------------------------------------------------------------------------------------




----------------------------------------- Iteration    1(   9)  ---------------------------------------


    POTLOK:  cpu time    0.10: real time    0.10
    SETDIJ:  cpu time    0.10: real time    0.10
     EDDAV:  cpu time    4.24: real time    4.25
       DOS:  cpu time    0.00: real time    0.00
    CHARGE:  cpu time    0.36: real time    0.36
    MIXING:  cpu time    0.01: real time    0.01
    --------------------------------------------
      LOOP:  cpu time    4.81: real time    4.82

 eigenvalue-minimisations  :  2930
 total energy-change (2. order) : 0.1546076E-01  (-0.8160588E-02)
 number of electron      95.0000001 magnetization 
 augmentation part        5.6889725 magnetization 

 Broyden mixing:
  rms(total) = 0.47188E-01    rms(broyden)= 0.47187E-01
  rms(prec ) = 0.50054E-01
  weight for this iteration     100.00

 eigenvalues of (default mixing * dielectric matrix)
  average eigenvalue GAMMA=   1.4612
  2.4592  0.9068  0.9068  1.5718

 Free energy of the ion-electron system (eV)
  ---------------------------------------------------
  alpha Z        PSCENC =       125.85117849
  Ewald energy   TEWEN  =     12689.48707517
  -Hartree energ DENC   =    -17637.13522247
  -exchange      EXHF   =         0.00000000
  -V(xc)+E(xc)   XCENC  =      -403.95946388
  PAW double counting   =      5885.33242785    -5161.76441669
  entropy T*S    EENTRO =        -0.00467532
  eigenvalues    EBANDS =      -127.53395741
  atomic energy  EATOM  =      4496.35971583
  ---------------------------------------------------
  free energy    TOTEN  =      -133.36733842 eV

  energy without entropy =     -133.36266310  energy(sigma->0) =     -133.36500076


--------------------------------------------------------------------------------------------------------




----------------------------------------- Iteration    1(  10)  ---------------------------------------


    POTLOK:  cpu time    0.14: real time    0.14
    SETDIJ:  cpu time    0.10: real time    0.10
     EDDAV:  cpu time    4.36: real time    4.36
       DOS:  cpu time    0.00: real time    0.00
    CHARGE:  cpu time    0.36: real time    0.36
    MIXING:  cpu time    0.00: real time    0.00
    --------------------------------------------
      LOOP:  cpu time    4.97: real time    4.98

 eigenvalue-minimisations  :  3024
 total energy-change (2. order) : 0.1351108E-02  (-0.3919192E-02)
 number of electron      95.0000001 magnetization 
 augmentation part        5.6718784 magnetization 

 Broyden mixing:
  rms(total) = 0.25170E-01    rms(broyden)= 0.25153E-01
  rms(prec ) = 0.27433E-01
  weight for this iteration     100.00

 eigenvalues of (default mixing * dielectric matrix)
  average eigenvalue GAMMA=   1.2953
  2.4830  1.7155  0.9146  0.9146  0.4491

 Free energy of the ion-electron system (eV)
  ---------------------------------------------------
  alpha Z        PSCENC =       125.85117849
  Ewald energy   TEWEN  =     12689.48707517
  -Hartree energ DENC   =    -17638.42281559
  -exchange      EXHF   =         0.00000000
  -V(xc)+E(xc)   XCENC  =      -403.77498527
  PAW double counting   =      5869.67595389    -5146.13915498
  entropy T*S    EENTRO =        -0.00478586
  eigenvalues    EBANDS =      -126.39816899
  atomic energy  EATOM  =      4496.35971583
  ---------------------------------------------------
  free energy    TOTEN  =      -133.36598731 eV

  energy without entropy =     -133.36120145  energy(sigma->0) =     -133.36359438


--------------------------------------------------------------------------------------------------------




----------------------------------------- Iteration    1(  11)  ---------------------------------------


    POTLOK:  cpu time    0.10: real time    0.10
    SETDIJ:  cpu time    0.11: real time    0.11
     EDDAV:  cpu time    4.38: real time    4.39
       DOS:  cpu time    0.00: real time    0.00
    CHARGE:  cpu time    0.36: real time    0.36
    MIXING:  cpu time    0.00: real time    0.00
    --------------------------------------------
      LOOP:  cpu time    4.96: real time    4.97

 eigenvalue-minimisations  :  3028
 total energy-change (2. order) : 0.6104275E-03  (-0.3792702E-03)
 number of electron      95.0000001 magnetization 
 augmentation part        5.6769562 magnetization 

 Broyden mixing:
  rms(total) = 0.14725E-01    rms(broyden)= 0.14724E-01
  rms(prec ) = 0.17872E-01
  weight for this iteration     100.00

 eigenvalues of (default mixing * dielectric matrix)
  average eigenvalue GAMMA=   1.4773
  2.8677  2.3577  1.0304  0.9789  0.9789  0.6504

 Free energy of the ion-electron system (eV)
  ---------------------------------------------------
  alpha Z        PSCENC =       125.85117849
  Ewald energy   TEWEN  =     12689.48707517
  -Hartree energ DENC   =    -17637.56473554
  -exchange      EXHF   =         0.00000000
  -V(xc)+E(xc)   XCENC  =      -403.77896532
  PAW double counting   =      5853.76741124    -5130.22418839
  entropy T*S    EENTRO =        -0.00475445
  eigenvalues    EBANDS =      -127.25811392
  atomic energy  EATOM  =      4496.35971583
  ---------------------------------------------------
  free energy    TOTEN  =      -133.36537689 eV

  energy without entropy =     -133.36062244  energy(sigma->0) =     -133.36299966


--------------------------------------------------------------------------------------------------------




----------------------------------------- Iteration    1(  12)  ---------------------------------------


    POTLOK:  cpu time    0.10: real time    0.10
    SETDIJ:  cpu time    0.10: real time    0.10
     EDDAV:  cpu time    4.49: real time    4.50
       DOS:  cpu time    0.00: real time    0.00
    CHARGE:  cpu time    0.36: real time    0.36
    MIXING:  cpu time    0.00: real time    0.00
    --------------------------------------------
      LOOP:  cpu time    5.07: real time    5.07

 eigenvalue-minimisations  :  3138
 total energy-change (2. order) : 0.7359898E-03  (-0.3757599E-03)
 number of electron      95.0000001 magnetization 
 augmentation part        5.6762563 magnetization 

 Broyden mixing:
  rms(total) = 0.82897E-02    rms(broyden)= 0.82864E-02
  rms(prec ) = 0.11553E-01
  weight for this iteration     100.00

 eigenvalues of (default mixing * dielectric matrix)
  average eigenvalue GAMMA=   1.3870
  2.9280  2.4686  0.9452  0.9452  0.8950  0.8950  0.6320

 Free energy of the ion-electron system (eV)
  ---------------------------------------------------
  alpha Z        PSCENC =       125.85117849
  Ewald energy   TEWEN  =     12689.48707517
  -Hartree energ DENC   =    -17636.77303695
  -exchange      EXHF   =         0.00000000
  -V(xc)+E(xc)   XCENC  =      -403.72031108
  PAW double counting   =      5823.75528272    -5100.22569064
  entropy T*S    EENTRO =        -0.00477954
  eigenvalues    EBANDS =      -128.09407489
  atomic energy  EATOM  =      4496.35971583
  ---------------------------------------------------
  free energy    TOTEN  =      -133.36464090 eV

  energy without entropy =     -133.35986135  energy(sigma->0) =     -133.36225113


--------------------------------------------------------------------------------------------------------




----------------------------------------- Iteration    1(  13)  ---------------------------------------


    POTLOK:  cpu time    0.10: real time    0.10
    SETDIJ:  cpu time    0.11: real time    0.11
     EDDAV:  cpu time    4.41: real time    4.41
       DOS:  cpu time    0.00: real time    0.00
    CHARGE:  cpu time    0.35: real time    0.35
    MIXING:  cpu time    0.01: real time    0.01
    --------------------------------------------
      LOOP:  cpu time    4.98: real time    4.99

 eigenvalue-minimisations  :  3066
 total energy-change (2. order) : 0.3242878E-03  (-0.7732989E-04)
 number of electron      95.0000001 magnetization 
 augmentation part        5.6782040 magnetization 

 Broyden mixing:
  rms(total) = 0.66323E-02    rms(broyden)= 0.66314E-02
  rms(prec ) = 0.99963E-02
  weight for this iteration     100.00

 eigenvalues of (default mixing * dielectric matrix)
  average eigenvalue GAMMA=   1.3663
  2.9007  2.5791  0.9986  0.9986  1.0583  1.0583  0.6685  0.6685

 Free energy of the ion-electron system (eV)
  ---------------------------------------------------
  alpha Z        PSCENC =       125.85117849
  Ewald energy   TEWEN  =     12689.48707517
  -Hartree energ DENC   =    -17636.27396468
  -exchange      EXHF   =         0.00000000
  -V(xc)+E(xc)   XCENC  =      -403.73501637
  PAW double counting   =      5820.05166374    -5096.51823972
  entropy T*S    EENTRO =        -0.00479370
  eigenvalues    EBANDS =      -128.58193538
  atomic energy  EATOM  =      4496.35971583
  ---------------------------------------------------
  free energy    TOTEN  =      -133.36431661 eV

  energy without entropy =     -133.35952291  energy(sigma->0) =     -133.36191976


--------------------------------------------------------------------------------------------------------




----------------------------------------- Iteration    1(  14)  ---------------------------------------


    POTLOK:  cpu time    0.10: real time    0.10
    SETDIJ:  cpu time    0.10: real time    0.10
     EDDAV:  cpu time    5.16: real time    5.17
       DOS:  cpu time    0.00: real time    0.00
    CHARGE:  cpu time    0.35: real time    0.35
    MIXING:  cpu time    0.00: real time    0.00
    --------------------------------------------
      LOOP:  cpu time    5.72: real time    5.73

 eigenvalue-minimisations  :  3798
 total energy-change (2. order) : 0.4945035E-03  (-0.9039936E-04)
 number of electron      95.0000001 magnetization 
 augmentation part        5.6794773 magnetization 

 Broyden mixing:
  rms(total) = 0.38079E-02    rms(broyden)= 0.38061E-02
  rms(prec ) = 0.73673E-02
  weight for this iteration     100.00

 eigenvalues of (default mixing * dielectric matrix)
  average eigenvalue GAMMA=   1.3943
  2.9045  2.3848  1.9404  0.9419  0.9419  0.9970  0.9970  0.6523  0.7890

 Free energy of the ion-electron system (eV)
  ---------------------------------------------------
  alpha Z        PSCENC =       125.85117849
  Ewald energy   TEWEN  =     12689.48707517
  -Hartree energ DENC   =    -17635.54599967
  -exchange      EXHF   =         0.00000000
  -V(xc)+E(xc)   XCENC  =      -403.74803544
  PAW double counting   =      5817.67596047    -5094.14007262
  entropy T*S    EENTRO =        -0.00481909
  eigenvalues    EBANDS =      -129.29882525
  atomic energy  EATOM  =      4496.35971583
  ---------------------------------------------------
  free energy    TOTEN  =      -133.36382211 eV

  energy without entropy =     -133.35900302  energy(sigma->0) =     -133.36141256


--------------------------------------------------------------------------------------------------------




----------------------------------------- Iteration    1(  15)  ---------------------------------------


    POTLOK:  cpu time    0.10: real time    0.10
    SETDIJ:  cpu time    0.10: real time    0.10
     EDDAV:  cpu time    4.80: real time    4.81
       DOS:  cpu time    0.00: real time    0.00
    CHARGE:  cpu time    0.36: real time    0.37
    MIXING:  cpu time    0.01: real time    0.01
    --------------------------------------------
      LOOP:  cpu time    5.38: real time    5.39

 eigenvalue-minimisations  :  3388
 total energy-change (2. order) : 0.4455114E-03  (-0.3820375E-04)
 number of electron      95.0000001 magnetization 
 augmentation part        5.6781543 magnetization 

 Broyden mixing:
  rms(total) = 0.19628E-02    rms(broyden)= 0.19621E-02
  rms(prec ) = 0.53818E-02
  weight for this iteration     100.00

 eigenvalues of (default mixing * dielectric matrix)
  average eigenvalue GAMMA=   1.5542
  3.6937  2.8637  2.3695  1.3082  0.9772  0.9772  0.9772  0.9772  0.6553  0.7425

 Free energy of the ion-electron system (eV)
  ---------------------------------------------------
  alpha Z        PSCENC =       125.85117849
  Ewald energy   TEWEN  =     12689.48707517
  -Hartree energ DENC   =    -17635.08810761
  -exchange      EXHF   =         0.00000000
  -V(xc)+E(xc)   XCENC  =      -403.73239308
  PAW double counting   =      5820.53625211    -5097.00313167
  entropy T*S    EENTRO =        -0.00485505
  eigenvalues    EBANDS =      -129.76911079
  atomic energy  EATOM  =      4496.35971583
  ---------------------------------------------------
  free energy    TOTEN  =      -133.36337659 eV

  energy without entropy =     -133.35852155  energy(sigma->0) =     -133.36094907


--------------------------------------------------------------------------------------------------------




----------------------------------------- Iteration    1(  16)  ---------------------------------------


    POTLOK:  cpu time    0.10: real time    0.10
    SETDIJ:  cpu time    0.10: real time    0.11
     EDDAV:  cpu time    5.68: real time    5.69
       DOS:  cpu time    0.00: real time    0.00
    CHARGE:  cpu time    0.36: real time    0.36
    MIXING:  cpu time    0.01: real time    0.01
    --------------------------------------------
      LOOP:  cpu time    6.26: real time    6.27

 eigenvalue-minimisations  :  4128
 total energy-change (2. order) : 0.6418656E-03  (-0.5330077E-04)
 number of electron      95.0000001 magnetization 
 augmentation part        5.6781864 magnetization 

 Broyden mixing:
  rms(total) = 0.17746E-02    rms(broyden)= 0.17739E-02
  rms(prec ) = 0.36863E-02
  weight for this iteration     100.00

 eigenvalues of (default mixing * dielectric matrix)
  average eigenvalue GAMMA=   1.6310
  4.4030  3.0109  2.3949  1.8814  0.9640  0.9640  0.9950  0.9950  0.9342  0.6588
  0.7404

 Free energy of the ion-electron system (eV)
  ---------------------------------------------------
  alpha Z        PSCENC =       125.85117849
  Ewald energy   TEWEN  =     12689.48707517
  -Hartree energ DENC   =    -17633.72101668
  -exchange      EXHF   =         0.00000000
  -V(xc)+E(xc)   XCENC  =      -403.73119899
  PAW double counting   =      5819.35837574    -5095.82478368
  entropy T*S    EENTRO =        -0.00493741
  eigenvalues    EBANDS =      -131.13714320
  atomic energy  EATOM  =      4496.35971583
  ---------------------------------------------------
  free energy    TOTEN  =      -133.36273473 eV

  energy without entropy =     -133.35779732  energy(sigma->0) =     -133.36026602


--------------------------------------------------------------------------------------------------------




----------------------------------------- Iteration    1(  17)  ---------------------------------------


    POTLOK:  cpu time    0.10: real time    0.10
    SETDIJ:  cpu time    0.10: real time    0.10
     EDDAV:  cpu time    4.45: real time    4.45
       DOS:  cpu time    0.00: real time    0.00
    CHARGE:  cpu time    0.36: real time    0.36
    MIXING:  cpu time    0.01: real time    0.01
    --------------------------------------------
      LOOP:  cpu time    5.03: real time    5.03

 eigenvalue-minimisations  :  3010
 total energy-change (2. order) : 0.2266349E-03  (-0.5127075E-04)
 number of electron      95.0000001 magnetization 
 augmentation part        5.6783073 magnetization 

 Broyden mixing:
  rms(total) = 0.17093E-02    rms(broyden)= 0.17087E-02
  rms(prec ) = 0.28228E-02
  weight for this iteration     100.00

 eigenvalues of (default mixing * dielectric matrix)
  average eigenvalue GAMMA=   1.5970
  5.0924  3.0026  2.4084  1.9409  0.9621  0.9621  1.0714  0.9461  0.9461  0.6603
  0.7429  0.4286

 Free energy of the ion-electron system (eV)
  ---------------------------------------------------
  alpha Z        PSCENC =       125.85117849
  Ewald energy   TEWEN  =     12689.48707517
  -Hartree energ DENC   =    -17632.93328881
  -exchange      EXHF   =         0.00000000
  -V(xc)+E(xc)   XCENC  =      -403.73235859
  PAW double counting   =      5820.27516226    -5096.74033257
  entropy T*S    EENTRO =        -0.00497278
  eigenvalues    EBANDS =      -131.92468708
  atomic energy  EATOM  =      4496.35971583
  ---------------------------------------------------
  free energy    TOTEN  =      -133.36250809 eV

  energy without entropy =     -133.35753532  energy(sigma->0) =     -133.36002170


--------------------------------------------------------------------------------------------------------




----------------------------------------- Iteration    1(  18)  ---------------------------------------


    POTLOK:  cpu time    0.10: real time    0.10
    SETDIJ:  cpu time    0.11: real time    0.11
     EDDAV:  cpu time    5.01: real time    5.01
       DOS:  cpu time    0.00: real time    0.00
    CHARGE:  cpu time    0.36: real time    0.36
    MIXING:  cpu time    0.01: real time    0.01
    --------------------------------------------
      LOOP:  cpu time    5.59: real time    5.59

 eigenvalue-minimisations  :  3508
 total energy-change (2. order) : 0.1338073E-03  (-0.2943626E-04)
 number of electron      95.0000001 magnetization 
 augmentation part        5.6783751 magnetization 

 Broyden mixing:
  rms(total) = 0.13593E-02    rms(broyden)= 0.13588E-02
  rms(prec ) = 0.19648E-02
  weight for this iteration     100.00

 eigenvalues of (default mixing * dielectric matrix)
  average eigenvalue GAMMA=   1.6758
  5.5952  3.1188  2.3670  2.3670  1.0070  1.0070  0.9810  0.9810  1.0508  0.9555
  0.9555  0.6568  0.7426

 Free energy of the ion-electron system (eV)
  ---------------------------------------------------
  alpha Z        PSCENC =       125.85117849
  Ewald energy   TEWEN  =     12689.48707517
  -Hartree energ DENC   =    -17632.37289140
  -exchange      EXHF   =         0.00000000
  -V(xc)+E(xc)   XCENC  =      -403.73119289
  PAW double counting   =      5821.11078064    -5097.57526724
  entropy T*S    EENTRO =        -0.00499672
  eigenvalues    EBANDS =      -132.48677618
  atomic energy  EATOM  =      4496.35971583
  ---------------------------------------------------
  free energy    TOTEN  =      -133.36237429 eV

  energy without entropy =     -133.35737757  energy(sigma->0) =     -133.35987593


--------------------------------------------------------------------------------------------------------




----------------------------------------- Iteration    1(  19)  ---------------------------------------


    POTLOK:  cpu time    0.10: real time    0.10
    SETDIJ:  cpu time    0.12: real time    0.12
     EDDAV:  cpu time    4.40: real time    4.40
       DOS:  cpu time    0.00: real time    0.00
    CHARGE:  cpu time    0.36: real time    0.36
    MIXING:  cpu time    0.01: real time    0.01
    --------------------------------------------
      LOOP:  cpu time    4.99: real time    4.99

 eigenvalue-minimisations  :  2942
 total energy-change (2. order) : 0.3054374E-04  (-0.3848878E-04)
 number of electron      95.0000001 magnetization 
 augmentation part        5.6778362 magnetization 

 Broyden mixing:
  rms(total) = 0.16265E-02    rms(broyden)= 0.16255E-02
  rms(prec ) = 0.18932E-02
  weight for this iteration     100.00

 eigenvalues of (default mixing * dielectric matrix)
  average eigenvalue GAMMA=   1.6888
  5.7982  3.6175  2.6200  2.4221  1.1812  1.1812  0.9968  0.9968  1.0151  0.9677
  0.9677  0.6558  0.7479  0.4757

 Free energy of the ion-electron system (eV)
  ---------------------------------------------------
  alpha Z        PSCENC =       125.85117849
  Ewald energy   TEWEN  =     12689.48707517
  -Hartree energ DENC   =    -17632.23497053
  -exchange      EXHF   =         0.00000000
  -V(xc)+E(xc)   XCENC  =      -403.72782714
  PAW double counting   =      5820.99590767    -5097.46110127
  entropy T*S    EENTRO =        -0.00500221
  eigenvalues    EBANDS =      -132.62731974
  atomic energy  EATOM  =      4496.35971583
  ---------------------------------------------------
  free energy    TOTEN  =      -133.36234374 eV

  energy without entropy =     -133.35734153  energy(sigma->0) =     -133.35984264


--------------------------------------------------------------------------------------------------------




----------------------------------------- Iteration    1(  20)  ---------------------------------------


    POTLOK:  cpu time    0.10: real time    0.10
    SETDIJ:  cpu time    0.10: real time    0.10
     EDDAV:  cpu time    4.92: real time    4.93
       DOS:  cpu time    0.00: real time    0.00
    CHARGE:  cpu time    0.36: real time    0.36
    MIXING:  cpu time    0.01: real time    0.01
    --------------------------------------------
      LOOP:  cpu time    5.50: real time    5.51

 eigenvalue-minimisations  :  3408
 total energy-change (2. order) : 0.5101569E-04  (-0.7449153E-05)
 number of electron      95.0000001 magnetization 
 augmentation part        5.6778676 magnetization 

 Broyden mixing:
  rms(total) = 0.10649E-02    rms(broyden)= 0.10647E-02
  rms(prec ) = 0.11851E-02
  weight for this iteration     100.00

 eigenvalues of (default mixing * dielectric matrix)
  average eigenvalue GAMMA=   2.0281
 10.7208  3.7552  2.9545  2.4001  1.5581  0.9901  0.9901  1.2314  1.1297  0.9711
  0.9711  0.7529  0.7529  0.6567  0.5864

 Free energy of the ion-electron system (eV)
  ---------------------------------------------------
  alpha Z        PSCENC =       125.85117849
  Ewald energy   TEWEN  =     12689.48707517
  -Hartree energ DENC   =    -17631.94148848
  -exchange      EXHF   =         0.00000000
  -V(xc)+E(xc)   XCENC  =      -403.72666673
  PAW double counting   =      5821.61387414    -5098.07841133
  entropy T*S    EENTRO =        -0.00501156
  eigenvalues    EBANDS =      -132.92255826
  atomic energy  EATOM  =      4496.35971583
  ---------------------------------------------------
  free energy    TOTEN  =      -133.36229273 eV

  energy without entropy =     -133.35728117  energy(sigma->0) =     -133.35978695


--------------------------------------------------------------------------------------------------------




----------------------------------------- Iteration    1(  21)  ---------------------------------------


    POTLOK:  cpu time    0.10: real time    0.10
    SETDIJ:  cpu time    0.11: real time    0.11
     EDDAV:  cpu time    4.24: real time    4.25
       DOS:  cpu time    0.00: real time    0.00
    CHARGE:  cpu time    0.36: real time    0.36
    MIXING:  cpu time    0.01: real time    0.01
    --------------------------------------------
      LOOP:  cpu time    4.82: real time    4.83

 eigenvalue-minimisations  :  2796
 total energy-change (2. order) : 0.4942727E-05  (-0.1056984E-04)
 number of electron      95.0000001 magnetization 
 augmentation part        5.6777000 magnetization 

 Broyden mixing:
  rms(total) = 0.71825E-03    rms(broyden)= 0.71788E-03
  rms(prec ) = 0.76450E-03
  weight for this iteration     100.00

 eigenvalues of (default mixing * dielectric matrix)
  average eigenvalue GAMMA=   1.8955
 10.5971  3.7380  2.9546  2.3978  1.5529  0.9906  0.9906  1.2098  1.1509  0.9731
  0.9731  0.7541  0.7541  0.6567  0.5851  0.0492

 Free energy of the ion-electron system (eV)
  ---------------------------------------------------
  alpha Z        PSCENC =       125.85117849
  Ewald energy   TEWEN  =     12689.48707517
  -Hartree energ DENC   =    -17631.82909289
  -exchange      EXHF   =         0.00000000
  -V(xc)+E(xc)   XCENC  =      -403.72522381
  PAW double counting   =      5821.23981355    -5097.70473639
  entropy T*S    EENTRO =        -0.00501715
  eigenvalues    EBANDS =      -133.03600059
  atomic energy  EATOM  =      4496.35971583
  ---------------------------------------------------
  free energy    TOTEN  =      -133.36228779 eV

  energy without entropy =     -133.35727064  energy(sigma->0) =     -133.35977921


--------------------------------------------------------------------------------------------------------




----------------------------------------- Iteration    1(  22)  ---------------------------------------


    POTLOK:  cpu time    0.10: real time    0.10
    SETDIJ:  cpu time    0.11: real time    0.11
     EDDAV:  cpu time    4.04: real time    4.04
       DOS:  cpu time    0.00: real time    0.00
    --------------------------------------------
      LOOP:  cpu time    4.25: real time    4.25

 eigenvalue-minimisations  :  2630
 total energy-change (2. order) :-0.4697205E-05  (-0.6623576E-05)
 number of electron      95.0000001 magnetization 
 augmentation part        5.6777000 magnetization 

 Free energy of the ion-electron system (eV)
  ---------------------------------------------------
  alpha Z        PSCENC =       125.85117849
  Ewald energy   TEWEN  =     12689.48707517
  -Hartree energ DENC   =    -17631.82218137
  -exchange      EXHF   =         0.00000000
  -V(xc)+E(xc)   XCENC  =      -403.72715927
  PAW double counting   =      5820.97776281    -5097.44229239
  entropy T*S    EENTRO =        -0.00501587
  eigenvalues    EBANDS =      -133.04137588
  atomic energy  EATOM  =      4496.35971583
  ---------------------------------------------------
  free energy    TOTEN  =      -133.36229248 eV

  energy without entropy =     -133.35727662  energy(sigma->0) =     -133.35978455


--------------------------------------------------------------------------------------------------------




 average (electrostatic) potential at core
  the test charge radii are     0.7215  1.0714  1.0406
  (the norm of the test charge is              1.0000)
       1 -70.0265       2 -70.0227       3 -70.0411       4 -70.0490       5 -70.0451
       6 -70.1430       7 -70.1423       8 -70.0317       9 -70.0492      10 -35.6121
      11 -35.5829      12 -35.6155      13 -35.6109      14 -35.5846      15 -35.6070
      16 -35.6297      17 -35.6166      18 -35.5935      19 -35.6174      20 -73.8674
      21 -73.8417      22 -73.8775      23 -73.8276      24 -73.8410      25 -73.8288
      26 -73.8788
 
 
 
 E-fermi :   6.7758     XC(G=0): -10.3604     alpha+bet :-12.7675


 k-point     1 :       0.0000    0.0000    0.0000
  band No.  band energies     occupation 
      1     -14.3844      2.00000
      2     -14.3131      2.00000
      3     -14.2036      2.00000
      4     -14.0569      2.00000
      5     -13.8815      2.00000
      6     -13.6948      2.00000
      7     -13.5148      2.00000
      8     -13.3639      2.00000
      9     -13.2630      2.00000
     10      -3.7939      2.00000
     11      -3.4048      2.00000
     12      -2.8047      2.00000
     13      -1.9976      2.00000
     14      -1.7559      2.00000
     15      -1.6010      2.00000
     16      -1.2376      2.00000
     17      -1.0494      2.00000
     18      -0.6182      2.00000
     19      -0.3100      2.00000
     20       0.4174      2.00000
     21       0.4261      2.00000
     22       1.2239      2.00000
     23       1.5592      2.00000
     24       2.1095      2.00000
     25       2.1612      2.00000
     26       2.1612      2.00000
     27       2.2008      2.00000
     28       2.2008      2.00000
     29       2.2570      2.00000
     30       2.2570      2.00000
     31       2.3325      2.00000
     32       2.3325      2.00000
     33       2.3678      2.00000
     34       2.4230      2.00000
     35       2.4230      2.00000
     36       2.5179      2.00000
     37       2.5179      2.00000
     38       2.6084      2.00000
     39       2.6084      2.00000
     40       2.6823      2.00000
     41       2.6823      2.00000
     42       2.7305      2.00000
     43       2.7306      2.00000
     44       2.9163      2.00000
     45       4.4285      2.00000
     46       5.5728      2.00000
     47       6.7964      0.56002
     48       7.4566      0.00000
     49       7.7090      0.00000
     50       8.4886      0.00000
     51       8.5927      0.00000
     52       9.5092      0.00000
     53       9.5448      0.00000
     54      10.1819      0.00000
     55      10.2918      0.00000
     56      10.4909      0.00000
     57      10.6119      0.00000
     58      11.7051      0.00000
     59      13.2772      0.00000
     60      14.6952      0.00000
     61      14.7172      0.00000
     62      14.7411      0.00000

 k-point     2 :       0.0769    0.0000   -0.0000
  band No.  band energies     occupation 
      1     -14.3309      2.00000
      2     -14.2613      2.00000
      3     -14.1545      2.00000
      4     -14.0113      2.00000
      5     -13.8404      2.00000
      6     -13.6586      2.00000
      7     -13.4835      2.00000
      8     -13.3370      2.00000
      9     -13.2392      2.00000
     10      -3.6638      2.00000
     11      -3.2750      2.00000
     12      -2.6755      2.00000
     13      -1.8737      2.00000
     14      -1.6733      2.00000
     15      -1.5229      2.00000
     16      -1.1725      2.00000
     17      -0.9584      2.00000
     18      -0.5483      2.00000
     19      -0.2766      2.00000
     20       0.4131      2.00000
     21       0.4932      2.00000
     22       1.1670      2.00000
     23       1.5147      2.00000
     24       1.9328      2.00000
     25       1.9768      2.00000
     26       2.0318      2.00000
     27       2.0773      2.00000
     28       2.1155      2.00000
     29       2.1171      2.00000
     30       2.1570      2.00000
     31       2.1674      2.00000
     32       2.2138      2.00000
     33       2.2620      2.00000
     34       2.2899      2.00000
     35       2.3524      2.00000
     36       2.3812      2.00000
     37       2.4194      2.00000
     38       2.4769      2.00000
     39       2.5073      2.00000
     40       2.5682      2.00000
     41       2.5703      2.00000
     42       2.6428      2.00000
     43       2.6915      2.00000
     44       3.0169      2.00000
     45       4.5623      2.00000
     46       5.7233      2.00000
     47       6.9982      0.00000
     48       7.7546      0.00000
     49       7.9755      0.00000
     50       8.6853      0.00000
     51       8.8152      0.00000
     52       9.7098      0.00000
     53       9.7567      0.00000
     54      10.4243      0.00000
     55      10.5311      0.00000
     56      10.7703      0.00000
     57      10.8419      0.00000
     58      11.8117      0.00000
     59      13.2483      0.00000
     60      13.9771      0.00000
     61      14.2641      0.00000
     62      14.5992      0.00000

 k-point     3 :       0.1538    0.0000   -0.0000
  band No.  band energies     occupation 
      1     -14.1775      2.00000
      2     -14.1128      2.00000
      3     -14.0141      2.00000
      4     -13.8819      2.00000
[...]
     45       6.1529      2.00000
     46       6.1707      2.00000
     47       6.4576      2.00000
     48       6.5445      2.00000
     49       6.9877      0.00000
     50       7.2761      0.00000
     51       7.8399      0.00000
     52       7.9147      0.00000
     53       8.0929      0.00000
     54       8.6937      0.00000
     55       8.8009      0.00000
     56       9.0634      0.00000
     57       9.8657      0.00000
     58       9.9700      0.00000
     59      10.3879      0.00000
     60      10.9859      0.00000
     61      11.1524      0.00000
     62      11.5258      0.00000

 k-point    19 :       0.3077    0.2308    0.0000
  band No.  band energies     occupation 
      1     -13.1797      2.00000
      2     -13.1627      2.00000
      3     -13.1437      2.00000
      4     -13.1077      2.00000
      5     -13.0675      2.00000
      6     -13.0252      2.00000
      7     -12.9855      2.00000
      8     -12.9523      2.00000
      9     -12.9275      2.00000
     10      -1.1445      2.00000
     11      -1.0447      2.00000
     12      -0.9104      2.00000
     13      -0.8952      2.00000
     14      -0.8369      2.00000
     15      -0.7777      2.00000
     16      -0.7248      2.00000
     17      -0.5739      2.00000
     18      -0.4208      2.00000
     19      -0.0087      2.00000
     20       0.1437      2.00000
     21       0.2861      2.00000
     22       0.4665      2.00000
     23       0.5869      2.00000
     24       0.6606      2.00000
     25       0.6968      2.00000
     26       0.7938      2.00000
     27       0.9328      2.00000
     28       0.9745      2.00000
     29       1.0400      2.00000
     30       1.1110      2.00000
     31       1.2549      2.00000
     32       1.3683      2.00000
     33       1.4283      2.00000
     34       1.5384      2.00000
     35       1.6080      2.00000
     36       1.7124      2.00000
     37       1.8031      2.00000
     38       1.9123      2.00000
     39       1.9498      2.00000
     40       2.7680      2.00000
     41       3.7625      2.00000
     42       4.2210      2.00000
     43       4.5829      2.00000
     44       4.8197      2.00000
     45       5.1819      2.00000
     46       5.7963      2.00000
     47       5.8163      2.00000
     48       6.1022      2.00000
     49       6.1783      2.00000
     50       6.6705      1.99944
     51       7.0689      0.00000
     52       7.1952      0.00000
     53       7.6619      0.00000
     54       8.1116      0.00000
     55       8.6726      0.00000
     56       8.7240      0.00000
     57       9.2463      0.00000
     58       9.5839      0.00000
     59       9.8143      0.00000
     60      10.2200      0.00000
     61      10.7206      0.00000
     62      11.0991      0.00000

 k-point    20 :       0.3846    0.2308    0.0000
  band No.  band energies     occupation 
      1     -13.0911      2.00000
      2     -13.0786      2.00000
      3     -13.0714      2.00000
      4     -13.0501      2.00000
      5     -13.0292      2.00000
      6     -13.0059      2.00000
      7     -12.9825      2.00000
      8     -12.9632      2.00000
      9     -12.9449      2.00000
     10      -1.2275      2.00000
     11      -1.1193      2.00000
     12      -0.9592      2.00000
     13      -0.7768      2.00000
     14      -0.7742      2.00000
     15      -0.7447      2.00000
     16      -0.6989      2.00000
     17      -0.6529      2.00000
     18      -0.6431      2.00000
     19       0.1757      2.00000
     20       0.1967      2.00000
     21       0.2491      2.00000
     22       0.3003      2.00000
     23       0.3044      2.00000
     24       0.3657      2.00000
     25       0.5012      2.00000
     26       0.6808      2.00000
     27       0.8584      2.00000
     28       1.1608      2.00000
     29       1.1868      2.00000
     30       1.3448      2.00000
     31       1.3949      2.00000
     32       1.4643      2.00000
     33       1.5674      2.00000
     34       1.7013      2.00000
     35       1.7806      2.00000
     36       1.7900      2.00000
     37       2.4794      2.00000
     38       2.4864      2.00000
     39       2.8521      2.00000
     40       2.8626      2.00000
     41       3.3917      2.00000
     42       3.4750      2.00000
     43       4.1729      2.00000
     44       4.2787      2.00000
     45       5.0916      2.00000
     46       5.3765      2.00000
     47       5.6913      2.00000
     48       6.0412      2.00000
     49       6.1386      2.00000
     50       6.4103      2.00000
     51       6.8245      0.36423
     52       7.2973      0.00000
     53       7.3666      0.00000
     54       7.8770      0.00000
     55       8.4764      0.00000
     56       8.6077      0.00000
     57       8.6802      0.00000
     58       9.4949      0.00000
     59       9.8863      0.00000
     60      10.0834      0.00000
     61      10.6200      0.00000
     62      11.0853      0.00000

 k-point    21 :       0.3077    0.3077    0.0000
  band No.  band energies     occupation 
      1     -13.0621      2.00000
      2     -13.0510      2.00000
      3     -13.0404      2.00000
      4     -13.0232      2.00000
      5     -13.0081      2.00000
      6     -12.9921      2.00000
      7     -12.9759      2.00000
      8     -12.9640      2.00000
      9     -12.9485      2.00000
     10      -0.8731      2.00000
     11      -0.8711      2.00000
     12      -0.7791      2.00000
     13      -0.7719      2.00000
     14      -0.6707      2.00000
     15      -0.6178      2.00000
     16      -0.4768      2.00000
     17      -0.4515      2.00000
     18      -0.3586      2.00000
     19      -0.2429      2.00000
     20      -0.1936      2.00000
     21      -0.0416      2.00000
     22       0.0134      2.00000
     23       0.0990      2.00000
     24       0.2355      2.00000
     25       0.2575      2.00000
     26       0.4099      2.00000
     27       0.4157      2.00000
     28       1.1705      2.00000
     29       1.1951      2.00000
     30       1.3745      2.00000
     31       1.5002      2.00000
     32       1.5529      2.00000
     33       1.6028      2.00000
     34       1.6093      2.00000
     35       1.6399      2.00000
     36       1.7468      2.00000
     37       2.3587      2.00000
     38       2.7360      2.00000
     39       3.3076      2.00000
     40       3.9693      2.00000
     41       3.9694      2.00000
     42       4.1066      2.00000
     43       4.3369      2.00000
     44       4.3500      2.00000
     45       4.8627      2.00000
     46       4.9157      2.00000
     47       5.0428      2.00000
     48       5.5977      2.00000
     49       5.8093      2.00000
     50       6.1426      2.00000
     51       6.7342      1.90030
     52       6.7713      1.44914
     53       7.6334      0.00000
     54       7.7755      0.00000
     55       8.2145      0.00000
     56       8.4065      0.00000
     57       8.8682      0.00000
     58       9.1245      0.00000
     59       9.5590      0.00000
     60       9.8506      0.00000
     61      10.2539      0.00000
     62      10.7719      0.00000


--------------------------------------------------------------------------------------------------------


 soft charge-density along one line, spin component           1
         0         1         2         3         4         5         6         7         8         9
 total charge-density along one line
 
 pseudopotential strength for first ion, spin component:           1
 12.171   0.000 -14.808   0.000   0.000   0.000  -0.000   0.000  -0.000   0.000  -0.000   0.000   0.000   0.000   0.000   0.000
-14.808   0.000  18.036   0.000  -0.000   0.000   0.000   0.000   0.000   0.000   0.000   0.000  -0.000   0.000  -0.000   0.000
  0.000   0.000  -0.000   0.000  -8.302   0.000  -0.000   0.000   0.000   0.000   9.936   0.000   0.000   0.000  -0.000   0.000
 -0.000   0.000   0.000   0.000  -0.000   0.000  -8.304   0.000   0.000   0.000   0.000   0.000   9.940   0.000  -0.000   0.000
 -0.000   0.000   0.000   0.000   0.000   0.000   0.000   0.000  -8.302   0.000  -0.000   0.000  -0.000   0.000   9.936   0.000
 -0.000   0.000   0.000   0.000   9.936   0.000   0.000   0.000  -0.000   0.000 -11.731   0.000  -0.000   0.000   0.000   0.000
  0.000   0.000  -0.000   0.000   0.000   0.000   9.940   0.000  -0.000   0.000  -0.000   0.000 -11.735   0.000   0.000   0.000
  0.000   0.000  -0.000   0.000  -0.000   0.000  -0.000   0.000   9.936   0.000   0.000   0.000   0.000   0.000 -11.731   0.000
 total augmentation occupancy for first ion, spin component:           1
  2.604   0.364   0.000  -0.000   0.000   0.000  -0.000   0.000
  0.364   0.069   0.000   0.000   0.000   0.000  -0.000   0.000
  0.000   0.000   2.163  -0.000   0.000   0.260  -0.000   0.000
 -0.000   0.000  -0.000   2.161   0.000  -0.000   0.262  -0.000
  0.000   0.000   0.000  -0.000   2.163   0.000  -0.000   0.260
  0.000   0.000   0.260  -0.000   0.000   0.034  -0.000   0.000
 -0.000  -0.000  -0.000   0.262   0.000  -0.000   0.034   0.000
  0.000   0.000   0.000   0.000   0.260   0.000   0.000   0.034


------------------------ aborting loop because EDIFF is reached ----------------------------------------


    CHARGE:  cpu time    0.36: real time    0.36
    FORLOC:  cpu time    0.03: real time    0.03
    FORNL :  cpu time    2.96: real time    2.97
    STRESS:  cpu time    4.13: real time    4.14
    FORCOR:  cpu time    0.14: real time    0.15
    FORHAR:  cpu time    0.06: real time    0.06
    MIXING:  cpu time    0.00: real time    0.00
    OFIELD:  cpu time    0.00: real time    0.00

  FORCE on cell =-STRESS in cart. coord.  units (eV):
  Direction    XX          YY          ZZ          XY          YZ          ZX
  --------------------------------------------------------------------------------------
  Alpha Z   125.85118   125.85118   125.85118
  Ewald   15316.36853 15316.36882-17789.29423    -0.00002    -0.00003    -0.00013
  Hartree 16927.21197 16927.21189-16071.52983    -0.00000    -0.00000     0.00004
  E(xc)    -389.83132  -389.83133  -390.42454    -0.00000     0.00000    -0.00000
  Local  -33385.00407-33385.00360 32716.16329    -0.00016     0.00003     0.00004
  n-local   -25.34188   -37.14806   -24.13262     2.65742    -1.58860     5.02575
  augment    53.89529    53.89506    53.27756     0.00016     0.00000     0.00000
  Kinetic  1406.12922  1357.99362  1375.23919     0.37599    -0.20409     0.42188
  Fock        0.00000     0.00000     0.00000     0.00000     0.00000     0.00000
  -------------------------------------------------------------------------------------
  Total      -0.69176    -0.69176    -4.85000    -0.00000     0.00000    -0.00000
  in kB      -3.44965    -3.44965   -24.18584    -0.00000     0.00000    -0.00000
  external pressure =      -10.36 kB  Pullay stress =        0.00 kB


 VOLUME and BASIS-vectors are now :
 -----------------------------------------------------------------------------
  energy-cutoff  :      520.00
  volume of cell :      321.29
      direct lattice vectors                 reciprocal lattice vectors
     2.591982046 -1.496481076  0.000000000     0.385805142 -0.000000000 -0.000000000
     0.000000000  2.992962152  0.000000000     0.192902571  0.334117155  0.000000000
     0.000000000 -0.000000000 41.415051365     0.000000000  0.000000000  0.024145811

  length of vectors
     2.992962836  2.992962152 41.415051365     0.385805142  0.385805230  0.024145811


 FORCES acting on ions
    electron-ion (+dipol)            ewald-force                    non-local-force                 convergence-correction
 -----------------------------------------------------------------------------------------------
   -.184E-07 -.276E-08 0.975E+03   -.138E-06 0.168E-06 -.975E+03   -.243E-18 -.240E-19 0.596E-01   -.778E-09 0.114E-08 0.788E-01
   0.106E-02 -.184E-02 0.650E+03   0.578E-04 -.100E-03 -.650E+03   0.543E-20 -.389E-19 0.124E-01   0.119E-08 -.221E-08 0.593E-01
   0.155E-08 -.121E-09 0.632E-03   0.501E-07 -.569E-07 -.801E-02   0.567E-20 0.414E-19 -.186E-01   0.159E-09 -.189E-09 0.150E-01
   0.106E-02 -.184E-02 -.325E+03   0.579E-04 -.100E-03 0.325E+03   0.497E-21 -.210E-20 -.742E-02   0.259E-08 -.438E-08 -.150E-01
   0.192E-07 0.245E-08 -.975E+03   0.107E-06 -.134E-06 0.976E+03   0.174E-18 -.415E-18 -.474E-01   0.455E-09 -.591E-09 -.607E-01
   0.106E-02 -.185E-02 -.130E+04   0.531E-04 -.878E-04 0.130E+04   0.723E-18 -.100E-16 -.985E+00   -.769E-09 0.143E-08 -.505E-01
   -.106E-02 0.185E-02 0.130E+04   -.531E-04 0.878E-04 -.130E+04   0.274E-17 -.108E-16 0.101E+01   -.159E-09 0.275E-09 0.672E-01
   -.106E-02 0.184E-02 0.325E+03   -.579E-04 0.100E-03 -.325E+03   0.853E-20 0.406E-19 -.166E-01   0.199E-08 -.347E-08 0.435E-01
   -.106E-02 0.184E-02 -.650E+03   -.578E-04 0.100E-03 0.650E+03   0.913E-21 0.389E-19 -.126E-01   -.262E-08 0.454E-08 -.537E-01
   -.101E-04 0.278E-05 0.467E+03   0.244E-04 -.259E-04 -.468E+03   -.249E-17 0.553E-16 0.609E+00   -.133E-10 0.119E-10 0.209E-01
   -.393E-07 0.381E-07 0.163E+03   0.587E-07 -.658E-07 -.163E+03   0.245E-20 -.510E-19 -.802E-02   -.981E-10 0.136E-09 0.193E-01
   0.538E-07 -.440E-07 -.163E+03   -.989E-07 0.111E-06 0.163E+03   0.404E-20 -.113E-18 0.113E-01   0.172E-10 -.938E-11 -.122E-01
   0.101E-04 -.278E-05 -.467E+03   -.244E-04 0.258E-04 0.468E+03   -.965E-18 0.245E-18 -.608E+00   -.939E-10 0.191E-09 -.188E-01
   0.439E-04 -.760E-04 0.271E+03   -.494E-04 0.856E-04 -.271E+03   -.193E-19 0.490E-20 -.122E-01   -.267E-09 0.453E-09 0.244E-01
   0.440E-04 -.761E-04 -.542E+02   -.495E-04 0.857E-04 0.542E+02   0.919E-19 -.354E-20 0.880E-02   0.148E-09 -.257E-09 -.314E-03
   0.440E-04 -.762E-04 -.380E+03   -.495E-04 0.857E-04 0.380E+03   -.273E-18 0.345E-17 0.520E-01   0.221E-09 -.357E-09 -.205E-01
   -.440E-04 0.761E-04 0.379E+03   0.495E-04 -.856E-04 -.379E+03   0.287E-18 0.349E-17 -.586E-01   0.445E-10 -.131E-09 0.256E-01
   -.439E-04 0.761E-04 0.542E+02   0.495E-04 -.857E-04 -.542E+02   -.270E-20 -.624E-20 -.134E-02   -.573E-10 0.473E-10 0.108E-01
   -.439E-04 0.760E-04 -.271E+03   0.494E-04 -.857E-04 0.271E+03   -.146E-18 -.588E-20 0.146E-01   0.150E-09 -.178E-09 -.205E-01
   0.107E-08 0.296E-09 0.399E+00   -.784E-08 0.781E-08 -.382E+00   -.161E-19 0.584E-19 -.104E-01   -.633E-11 0.509E-11 -.106E-01
   -.617E-06 -.425E-07 0.457E+03   0.251E-05 -.233E-05 -.457E+03   -.398E-17 -.277E-16 -.566E-01   0.948E-11 -.123E-10 0.197E-01
   0.155E-04 -.267E-04 0.303E+03   -.395E-05 0.681E-05 -.303E+03   -.133E-17 -.551E-20 0.137E-01   0.165E-10 -.288E-10 0.893E-02
   -.150E-04 0.259E-04 0.150E+03   0.402E-05 -.690E-05 -.150E+03   0.503E-17 0.342E-17 0.115E+00   -.141E-10 0.316E-10 -.142E-02
   0.615E-06 0.422E-07 -.457E+03   -.250E-05 0.232E-05 0.457E+03   -.296E-17 0.139E-16 0.619E-01   -.999E-11 0.161E-10 -.244E-01
   0.150E-04 -.259E-04 -.150E+03   -.401E-05 0.688E-05 0.150E+03   0.160E-18 0.447E-19 -.111E+00   0.918E-11 -.196E-10 -.176E-01
   -.155E-04 0.267E-04 -.303E+03   0.394E-05 -.679E-05 0.303E+03   -.215E-17 -.277E-16 -.214E-01   -.190E-10 0.208E-10 -.220E-01
 -----------------------------------------------------------------------------------------------
   0.152E-07 -.172E-07 -.624E-01   -.355E-13 0.417E-13 -.227E-12   -.533E-17 0.299E-17 -.525E-02   0.210E-08 -.353E-08 0.653E-01
 
 
 POSITION                                       TOTAL-FORCE (eV/Angst)
 -----------------------------------------------------------------------------------
     -0.00000     -0.00000     14.35004         0.000000     -0.000000      0.015540
      0.86399      1.49648     16.82547         0.000000      0.000000      0.005515
     -0.00000     -0.00000     21.77567         0.000000      0.000000     -0.010818
      0.86399      1.49648     24.24956        -0.000000      0.000000     -0.001648
     -0.00000     -0.00000     29.19986         0.000000      0.000000     -0.008749
      0.86399      1.49648     31.67272         0.000000     -0.000000      0.010036
      1.72799     -0.00000     11.87665        -0.000000      0.000000      0.006384
      1.72799     -0.00000     19.30139        -0.000000      0.000000     -0.009985
      1.72799     -0.00000     26.72489        -0.000000     -0.000000     -0.010004
     -0.00000     -0.00000     10.61082         0.000000     -0.000000     -0.000942
     -0.00000     -0.00000     18.06405         0.000000      0.000000     -0.004383
     -0.00000     -0.00000     25.48619         0.000000     -0.000000      0.010216
     -0.00000     -0.00000     32.93961         0.000000      0.000000     -0.004734
      1.72799     -0.00000     15.58892         0.000000     -0.000000      0.000342
      1.72799     -0.00000     23.01175         0.000000     -0.000000      0.014790
      1.72799     -0.00000     30.43542         0.000000      0.000000     -0.007477
      0.86399      1.49648     13.11501         0.000000      0.000000     -0.006536
      0.86399      1.49648     20.53844         0.000000     -0.000000      0.001549
      0.86399      1.49648     27.96106         0.000000     -0.000000      0.002444
     -0.00000     -0.00000      1.07039         0.000000      0.000000     -0.003987
     -0.00000     -0.00000      7.82713         0.000000     -0.000000      0.008507
      1.72799     -0.00000      5.57225         0.000000     -0.000000     -0.000389
      0.86399      1.49648      3.31190         0.000000     -0.000000      0.002533
     -0.00000     -0.00000     35.72447         0.000000      0.000000     -0.005800
      1.72799     -0.00000     40.24248         0.000000     -0.000000     -0.000026
      0.86399      1.49648     37.98143         0.000000     -0.000000     -0.002378
 -----------------------------------------------------------------------------------
    total drift:                                0.000000     -0.000000     -0.002327


--------------------------------------------------------------------------------------------------------



  FREE ENERGIE OF THE ION-ELECTRON SYSTEM (eV)
  ---------------------------------------------------
  free  energy   TOTEN  =      -133.36469597 eV

  energy  without entropy=     -133.35955437  energy(sigma->0) =     -133.36212517
 
 d Force = 0.2918585E-04[ 0.694E-05, 0.514E-04]  d Energy = 0.1001078E-04 0.192E-04
 d Force =-0.3169704E+00[-0.317E+00,-0.317E+00]  d Ewald  =-0.3169704E+00-0.341E-08


--------------------------------------------------------------------------------------------------------


    POTLOK:  cpu time    0.22: real time    0.22


--------------------------------------------------------------------------------------------------------




--------------------------------------------------------------------------------------------------------


  
 reached required accuracy - stopping structural energy minimisation
     LOOP+:  cpu time   31.92: real time   31.95
    4ORBIT:  cpu time    0.00: real time    0.00

 total amount of memory used by VASP on root node   146233. kBytes
========================================================================

   base      :      30000. kBytes
   nonl-proj :      15287. kBytes
   fftplans  :      55170. kBytes
   grid      :      22118. kBytes
   one-center:         56. kBytes
   wavefun   :      23602. kBytes
 
  
  
 General timing and accounting informations for this job:
 ========================================================
  
                  Total CPU time used (sec):      998.587
                            User time (sec):      984.043
                          System time (sec):       14.544
                         Elapsed time (sec):      999.715
  
                   Maximum memory used (kb):      251828.
                   Average memory used (kb):           0.
  
                          Minor page faults:       275669
                          Major page faults:            0
                 Voluntary context switches:          281
