       N       E                     dE             d eps       ncg     rms          rms(c)
DAV:   1     0.502570315151E+03    0.50257E+03   -0.44778E+04  2696   0.135E+03
DAV:   2    -0.106475636989E+03   -0.60905E+03   -0.58150E+03  3456   0.264E+02
DAV:   3    -0.158132798262E+03   -0.51657E+02   -0.51382E+02  3144   0.837E+01
DAV:   4    -0.158735259935E+03   -0.60246E+00   -0.60146E+00  3152   0.987E+00
DAV:   5    -0.158744085977E+03   -0.88260E-02   -0.88228E-02  3240   0.117E+00    0.237E+01
DAV:   6    -0.141976961823E+03    0.16767E+02   -0.91455E+01  3184   0.335E+01    0.789E+00
DAV:   7    -0.141974129630E+03    0.28322E-02   -0.27600E+00  3016   0.612E+00    0.492E+00
DAV:   8    -0.141843187109E+03    0.13094E+00   -0.62993E-01  3096   0.444E+00    0.126E+00
DAV:   9    -0.141813658795E+03    0.29528E-01   -0.14335E-01  3072   0.188E+00    0.644E-01
DAV:  10    -0.141809075891E+03    0.45829E-02   -0.79201E-02  3040   0.109E+00    0.298E-01
DAV:  11    -0.141804632101E+03    0.44438E-02   -0.59648E-03  3288   0.603E-01    0.218E-01
DAV:  12    -0.141801402075E+03    0.32300E-02   -0.45834E-03  3360   0.440E-01    0.133E-01
DAV:  13    -0.141795174707E+03    0.62274E-02   -0.28634E-03  4224   0.679E-01    0.823E-02
DAV:  14    -0.141790152370E+03    0.50223E-02   -0.66544E-03  3688   0.790E-01    0.916E-02
DAV:  15    -0.141782190854E+03    0.79615E-02   -0.10124E-02  4256   0.163E+00    0.882E-02
DAV:  16    -0.141781196136E+03    0.99472E-03   -0.11073E-02  3072   0.686E-01    0.701E-02
DAV:  17    -0.141780151956E+03    0.10442E-02   -0.25512E-03  3248   0.435E-01    0.344E-02
DAV:  18    -0.141779027752E+03    0.11242E-02   -0.15538E-03  4136   0.640E-01    0.560E-02
DAV:  19    -0.141778452319E+03    0.57543E-03   -0.19170E-03  3688   0.602E-01    0.628E-02
DAV:  20    -0.141778476950E+03   -0.24631E-04   -0.25800E-03  3088   0.383E-01    0.387E-02
DAV:  21    -0.141778551475E+03   -0.74525E-04   -0.12166E-03  3040   0.140E-01    0.401E-02
DAV:  22    -0.141778530068E+03    0.21408E-04   -0.24063E-04  3088   0.790E-02    0.208E-02
DAV:  23    -0.141778540613E+03   -0.10546E-04   -0.14081E-04  2952   0.604E-02    0.311E-02
DAV:  24    -0.141778528829E+03    0.11784E-04   -0.39789E-05  2680   0.271E-02    0.206E-02
DAV:  25    -0.141778523861E+03    0.49679E-05   -0.10901E-05  1720   0.197E-02
   1 F= -.14177852E+03 E0= -.14177594E+03  d E =-.141779E+03
       N       E                     dE             d eps       ncg     rms          rms(c)
DAV:   1    -0.141778632857E+03   -0.10403E-03   -0.24565E-02  2976   0.685E-01    0.233E-02
DAV:   2    -0.141778666735E+03   -0.33878E-04   -0.56630E-04  3088   0.105E-01    0.152E-02
DAV:   3    -0.141778654676E+03    0.12059E-04   -0.21765E-05  2016   0.305E-02    0.109E-02
DAV:   4    -0.141778640686E+03    0.13990E-04   -0.76149E-06  1832   0.272E-02    0.640E-03
DAV:   5    -0.141778622599E+03    0.18087E-04   -0.16699E-05  2184   0.488E-02    0.450E-03
DAV:   6    -0.141778611211E+03    0.11388E-04   -0.20329E-05  2328   0.488E-02    0.333E-03
DAV:   7    -0.141778595933E+03    0.15279E-04   -0.10829E-05  2040   0.755E-02    0.538E-03
DAV:   8    -0.141778588642E+03    0.72904E-05   -0.31299E-05  2456   0.616E-02
   2 F= -.14177859E+03 E0= -.14177601E+03  d E =-.647809E-04
