 vasp.5.3.5 31Mar14 (build Apr 08 2024 10:12:10) complex                        
  
 executed on             LinuxIFC date 2024.07.29  17:16:43
 running on    8 total cores
 distrk:  each k-point on    8 cores,    1 groups
 distr:  one band on NCORES_PER_BAND=   4 cores,    2 groups


--------------------------------------------------------------------------------------------------------


 INCAR:
 POTCAR:    PAW_PBE O 08Apr2002                   
 POTCAR:    PAW_PBE Mg 13Apr2007                  
 POTCAR:    PAW_PBE Al 04Jan2001                  
 POTCAR:    PAW_PBE O 08Apr2002                   
   VRHFIN =O: s2p4                                                              
   LEXCH  = PE                                                                  
   EATOM  =   432.3788 eV,   31.7789 Ry                                         
                                                                                
   TITEL  = PAW_PBE O 08Apr2002                                                 
   LULTRA =        F    use ultrasoft PP ?                                      
   IUNSCR =        1    unscreen: 0-lin 1-nonlin 2-no                           
   RPACOR =    1.200    partial core radius                                     
   POMASS =   16.000; ZVAL   =    6.000    mass and valenz                      
   RCORE  =    1.520    outmost cutoff radius                                   
   RWIGS  =    1.550; RWIGS  =    0.820    wigner-seitz radius (au A)           
   ENMAX  =  400.000; ENMIN  =  300.000 eV                                      
   ICORE  =        2    local potential                                         
   LCOR   =        T    correct aug charges                                     
   LPAW   =        T    paw PP                                                  
   EAUG   =  605.392                                                            
   DEXC   =    0.000                                                            
   RMAX   =    1.553    core radius for proj-oper                               
   RAUG   =    1.300    factor for augmentation sphere                          
   RDEP   =    1.550    radius for radial grids                                 
   RDEPT  =    1.329    core radius for aug-charge                              
                                                                                
   Atomic configuration                                                         
    4 entries                                                                   
     n  l   j            E        occ.                                          
     1  0  0.50      -514.6923   2.0000                                         
     2  0  0.50       -23.9615   2.0000                                         
     2  1  0.50        -9.0305   4.0000                                         
     3  2  1.50        -9.5241   0.0000                                         
   Description                                                                  
     l       E           TYP  RCUT    TYP  RCUT                                 
     0    -23.9615318     23  1.200                                             
     0     -9.5240782     23  1.200                                             
     1     -9.0304911     23  1.520                                             
     1      8.1634956     23  1.520                                             
     2     -9.5240782      7  1.500                                             
  local pseudopotential read in
  partial core-charges read in
  partial kinetic energy density read in
  kinetic energy density of atom read in
  atomic valenz-charges read in
  non local Contribution for L=           0  read in
    real space projection operators read in
  non local Contribution for L=           0  read in
    real space projection operators read in
  non local Contribution for L=           1  read in
    real space projection operators read in
  non local Contribution for L=           1  read in
    real space projection operators read in
    PAW grid and wavefunctions read in
 
   number of l-projection  operators is LMAX  =           4
   number of lm-projection operators is LMMAX =           8
 
 POTCAR:    PAW_PBE Mg 13Apr2007                  
   VRHFIN =Mg: s2p0                                                             
   LEXCH  = PE                                                                  
   EATOM  =    23.0369 eV,    1.6932 Ry                                         
                                                                                
   TITEL  = PAW_PBE Mg 13Apr2007                                                
   LULTRA =        F    use ultrasoft PP ?                                      
   IUNSCR =        1    unscreen: 0-lin 1-nonlin 2-no                           
   RPACOR =    1.500    partial core radius                                     
   POMASS =   24.305; ZVAL   =    2.000    mass and valenz                      
   RCORE  =    2.000    outmost cutoff radius                                   
   RWIGS  =    2.880; RWIGS  =    1.524    wigner-seitz radius (au A)           
   ENMAX  =  200.000; ENMIN  =  100.000 eV                                      
   RCLOC  =    1.506    cutoff for local pot                                    
   LCOR   =        T    correct aug charges                                     
   LPAW   =        T    paw PP                                                  
   EAUG   =  454.734                                                            
   DEXC   =    0.000                                                            
   RMAX   =    2.045    core radius for proj-oper                               
   RAUG   =    1.300    factor for augmentation sphere                          
   RDEP   =    2.025    radius for radial grids                                 
   RDEPT  =    1.942    core radius for aug-charge                              
                                                                                
   Atomic configuration                                                         
    6 entries                                                                   
     n  l   j            E        occ.                                          
     1  0  0.50     -1259.6230   2.0000                                         
     2  0  0.50       -79.8442   2.0000                                         
     2  1  1.50       -46.6121   6.0000                                         
     3  0  0.50        -4.7055   2.0000                                         
     3  1  0.50        -1.3660   0.0000                                         
     3  2  1.50        -1.3606   0.0000                                         
   Description                                                                  
     l       E           TYP  RCUT    TYP  RCUT                                 
     0     -4.7054661     23  2.000                                             
     0     27.2116520     23  2.000                                             
     1      1.3605826     23  2.000                                             
     1     27.2116520     23  2.000                                             
     2     -1.3605826     23  2.000                                             
  local pseudopotential read in
  partial core-charges read in
  partial kinetic energy density read in
  atomic valenz-charges read in
  non local Contribution for L=           0  read in
    real space projection operators read in
  non local Contribution for L=           0  read in
    real space projection operators read in
  non local Contribution for L=           1  read in
    real space projection operators read in
  non local Contribution for L=           1  read in
    real space projection operators read in
  non local Contribution for L=           2  read in
    real space projection operators read in
    PAW grid and wavefunctions read in
 
   number of l-projection  operators is LMAX  =           5
   number of lm-projection operators is LMMAX =          13
 
 POTCAR:    PAW_PBE Al 04Jan2001                  
   VRHFIN =Al: s2p1                                                             
   LEXCH  = PE                                                                  
   EATOM  =    53.5387 eV,    3.9350 Ry                                         
                                                                                
   TITEL  = PAW_PBE Al 04Jan2001                                                
   LULTRA =        F    use ultrasoft PP ?                                      
   IUNSCR =        1    unscreen: 0-lin 1-nonlin 2-no                           
   RPACOR =    1.500    partial core radius                                     
   POMASS =   26.981; ZVAL   =    3.000    mass and valenz                      
   RCORE  =    1.900    outmost cutoff radius                                   
   RWIGS  =    2.650; RWIGS  =    1.402    wigner-seitz radius (au A)           
   ENMAX  =  240.300; ENMIN  =  180.225 eV                                      
   ICORE  =        2    local potential                                         
   LCOR   =        T    correct aug charges                                     
   LPAW   =        T    paw PP                                                  
   EAUG   =  291.052                                                            
   DEXC   =    0.000                                                            
   RMAX   =    1.939    core radius for proj-oper                               
   RAUG   =    1.300    factor for augmentation sphere                          
   RDEP   =    1.966    radius for radial grids                                 
   RDEPT  =    1.856    core radius for aug-charge                              
                                                                                
   Atomic configuration                                                         
    6 entries                                                                   
     n  l   j            E        occ.                                          
     1  0  0.50     -1511.1048   2.0000                                         
     2  0  0.50      -108.1629   2.0000                                         
     2  1  1.50       -69.6402   6.0000                                         
     3  0  0.50        -7.7528   2.0000                                         
     3  1  1.50        -2.7121   1.0000                                         
     3  2  2.50        -2.7212   0.0000                                         
   Description                                                                  
     l       E           TYP  RCUT    TYP  RCUT                                 
     0     -7.7528455     23  1.900                                             
     0     -3.3096929     23  1.900                                             
     1     -2.7120682     23  1.900                                             
     1     13.6058260     23  1.900                                             
     2     -2.7211652      7  1.900                                             
  local pseudopotential read in
  partial core-charges read in
  partial kinetic energy density read in
  atomic valenz-charges read in
  non local Contribution for L=           0  read in
    real space projection operators read in
  non local Contribution for L=           0  read in
    real space projection operators read in
  non local Contribution for L=           1  read in
    real space projection operators read in
  non local Contribution for L=           1  read in
    real space projection operators read in
    PAW grid and wavefunctions read in
 
   number of l-projection  operators is LMAX  =           4
   number of lm-projection operators is LMMAX =           8
 

 ----------------------------------------------------------------------------- 
|                                                                             |
|  ADVICE TO THIS USER RUNNING 'VASP/VAMP'   (HEAR YOUR MASTER'S VOICE ...):  |
|                                                                             |
|      You have a (more or less) 'large supercell' and for larger cells       |
|      it might be more efficient to use real space projection opertators     |
|      So try LREAL= Auto  in the INCAR   file.                               |
|      Mind: At the moment your POTCAR file does not contain real space       |
|       projectors, and has to be modified,  BUT if you                       |
|      want to do an extremely  accurate calculation you might also keep the  |
|      reciprocal projection scheme          (i.e. LREAL=.FALSE.)             |
|                                                                             |
 ----------------------------------------------------------------------------- 

  PAW_PBE O 08Apr2002                   :
 energy of atom  1       EATOM= -432.3788
 kinetic energy error for atom=    0.0208 (will be added to EATOM!!)
  PAW_PBE Mg 13Apr2007                  :
 energy of atom  2       EATOM=  -23.0369
 kinetic energy error for atom=    0.0000 (will be added to EATOM!!)
  PAW_PBE Al 04Jan2001                  :
 energy of atom  3       EATOM=  -53.5387
 kinetic energy error for atom=    0.0002 (will be added to EATOM!!)
 
 
 POSCAR: Layer                                   
  positions in direct lattice
  velocities in cartesian coordinates
 exchange correlation table for  LEXCH =        8
   RHO(1)=    0.500       N(1)  =     2000
   RHO(2)=  100.500       N(2)  =     4000
 


--------------------------------------------------------------------------------------------------------


 ion  position               nearest neighbor table
   1  0.000  0.000  0.243-  21 1.73  14 2.07  14 2.07  14 2.07
   2  0.333  0.667  0.304-  11 2.13  11 2.13  11 2.13  14 2.13  14 2.13  14 2.13
   3  0.000  0.000  0.431-  15 2.13  15 2.13  15 2.13  17 2.13  17 2.13  17 2.13
   4  0.333  0.667  0.494-  12 2.13  12 2.13  12 2.13  15 2.13  15 2.13  15 2.13
   5  0.000  0.000  0.621-  16 2.13  16 2.13  16 2.13  18 2.13  18 2.13  18 2.13
   6  0.333  0.667  0.685-  16 2.13  16 2.13  16 2.13  13 2.13  13 2.13  13 2.13
   7  0.000  0.000  0.809-  24 1.73  19 2.07  19 2.07  19 2.07
   8  0.667  0.333  0.367-  17 2.13  17 2.13  11 2.13  11 2.13  17 2.13  11 2.13
   9  0.667  0.333  0.558-  18 2.13  18 2.13  18 2.13  12 2.13  12 2.13  12 2.13
  10  0.667  0.333  0.748-  13 2.13  13 2.13  13 2.13  19 2.13  19 2.13  19 2.13
  11  0.000  0.000  0.335-   2 2.13   2 2.13   2 2.13   8 2.13   8 2.13   8 2.13  17 3.02  17 3.02
                            17 3.02  14 3.02  14 3.02  14 3.02
  12  0.000  0.000  0.526-   4 2.13   4 2.13   4 2.13   9 2.13   9 2.13   9 2.13  18 3.02  18 3.02
                            18 3.02  15 3.02  15 3.02  15 3.02
  13  0.000  0.000  0.717-  10 2.13  10 2.13  10 2.13   6 2.13   6 2.13   6 2.13  16 3.02  16 3.02
                            16 3.02  19 3.02  19 3.02  19 3.02
  14  0.667  0.333  0.272-   1 2.07   1 2.07   1 2.07   2 2.13   2 2.13   2 2.13  11 3.02  11 3.02
                            11 3.02  21 3.34  21 3.34  21 3.34
  15  0.667  0.333  0.463-   3 2.13   3 2.13   3 2.13   4 2.13   4 2.13   4 2.13  12 3.02  12 3.02
                            12 3.02  17 3.02  17 3.02  17 3.02
  16  0.667  0.333  0.653-   6 2.13   6 2.13   6 2.13   5 2.13   5 2.13   5 2.13  13 3.02  13 3.02
                            13 3.02  18 3.02  18 3.02  18 3.02
  17  0.333  0.667  0.399-   8 2.13   8 2.13   8 2.13   3 2.13   3 2.13   3 2.13  11 3.02  11 3.02
                            11 3.02  15 3.02  15 3.02  15 3.02
  18  0.333  0.667  0.590-   9 2.13   9 2.13   9 2.13   5 2.13   5 2.13   5 2.13  16 3.02  16 3.02
                            16 3.02  12 3.02  12 3.02  12 3.02
  19  0.333  0.667  0.780-   7 2.07   7 2.07   7 2.07  10 2.13  10 2.13  10 2.13  13 3.02  13 3.02
                            13 3.02  24 3.34  24 3.34  24 3.34
  20  0.000  0.000  0.026-  25 2.84  25 2.84  25 2.84  23 2.84  23 2.84  23 2.84
  21  0.000  0.000  0.198-   1 1.73  22 2.80  22 2.80  22 2.80  14 3.34  14 3.34  14 3.34
  22  0.667  0.333  0.142-  21 2.80  21 2.80  21 2.80  23 2.85  23 2.85  23 2.85
  23  0.333  0.667  0.084-  20 2.84  20 2.84  20 2.84  22 2.85  22 2.85  22 2.85
  24  0.000  0.000  0.854-   7 1.73  26 2.80  26 2.80  26 2.80  19 3.34  19 3.34  19 3.34
  25  0.667  0.333  0.968-  20 2.84  20 2.84  20 2.84  26 2.85  26 2.85  26 2.85
  26  0.333  0.667  0.910-  24 2.80  24 2.80  24 2.80  25 2.85  25 2.85  25 2.85
 
  LATTYP: Found a hexagonal cell.
 ALAT       =     3.0027496481
 C/A-ratio  =    12.9641151248
  
  Lattice vectors:
  
 A1 = (   2.6004576727,  -1.5013744842,   0.0000000000)
 A2 = (   0.0000000000,   3.0027489684,   0.0000000000)
 A3 = (   0.0000000000,  -0.0000000000,  38.9279921293)


Analysis of symmetry for initial positions (statically):
=====================================================================
 Subroutine PRICEL returns:
 Original cell was already a primitive cell.
 

 Routine SETGRP: Setting up the symmetry group for a 
 hexagonal supercell.


 Subroutine GETGRP returns: Found  6 space group operations
 (whereof  6 operations were pure point group operations)
 out of a pool of 24 trial point group operations.


The static configuration has the point symmetry C_3v.


Analysis of symmetry for dynamics (positions and initial velocities):
=====================================================================
 Subroutine PRICEL returns:
 Original cell was already a primitive cell.
 

 Routine SETGRP: Setting up the symmetry group for a 
 hexagonal supercell.


 Subroutine GETGRP returns: Found  6 space group operations
 (whereof  6 operations were pure point group operations)
 out of a pool of 24 trial point group operations.


The dynamic configuration has the point symmetry C_3v.


Analysis of constrained symmetry for selective dynamics:
=====================================================================
 Subroutine PRICEL returns:
 Original cell was already a primitive cell.
 

 Routine SETGRP: Setting up the symmetry group for a 
 hexagonal supercell.


 Subroutine GETGRP returns: Found  6 space group operations
 (whereof  6 operations were pure point group operations)
 out of a pool of 24 trial point group operations.


The constrained configuration has the point symmetry C_3v.
 
 
 KPOINTS: K-Spacing Value to Generate K-Mesh: 0.02

Automatic generation of k-mesh.
Space group operators:
 irot       det(A)        alpha          n_x          n_y          n_z        tau_x        tau_y        tau_z
    1     1.000000     0.000000     1.000000     0.000000     0.000000     0.000000     0.000000     0.000000
    2     1.000000   120.000000    -0.000000    -0.000000    -1.000000     0.000000     0.000000     0.000000
    3     1.000000   120.000000     0.000000    -0.000000     1.000000     0.000000     0.000000     0.000000
    4    -1.000000   180.000000    -0.866025     0.500000     0.000000     0.000000     0.000000     0.000000
    5    -1.000000   179.999999     0.000000     1.000000     0.000000     0.000000     0.000000     0.000000
    6    -1.000000   180.000000    -0.866025    -0.500000     0.000000     0.000000     0.000000     0.000000
 
 Subroutine IBZKPT returns following result:
 ===========================================
 
 Found     21 irreducible k-points:
 
 Following reciprocal coordinates:
            Coordinates               Weight
  0.000000  0.000000  0.000000      1.000000
  0.076923  0.000000  0.000000      6.000000
  0.153846  0.000000 -0.000000      6.000000
  0.230769  0.000000  0.000000      6.000000
  0.307692  0.000000  0.000000      6.000000
  0.384615  0.000000  0.000000      6.000000
  0.461538  0.000000  0.000000      6.000000
  0.076923  0.076923 -0.000000      6.000000
  0.153846  0.076923  0.000000     12.000000
  0.230769  0.076923 -0.000000     12.000000
  0.307692  0.076923 -0.000000     12.000000
  0.384615  0.076923  0.000000     12.000000
  0.461538  0.076923  0.000000      6.000000
  0.153846  0.153846 -0.000000      6.000000
  0.230769  0.153846  0.000000     12.000000
  0.307692  0.153846  0.000000     12.000000
  0.384615  0.153846  0.000000     12.000000
  0.230769  0.230769 -0.000000      6.000000
  0.307692  0.230769  0.000000     12.000000
  0.384615  0.230769  0.000000      6.000000
  0.307692  0.307692 -0.000000      6.000000
 
 Following cartesian coordinates:
            Coordinates               Weight
  0.000000  0.000000  0.000000      1.000000
  0.029581  0.000000 -0.000000      6.000000
  0.059161  0.000000 -0.000000      6.000000
  0.088742  0.000000 -0.000000      6.000000
  0.118322  0.000000 -0.000000      6.000000
  0.147903  0.000000 -0.000000      6.000000
  0.177484  0.000000 -0.000000      6.000000
  0.044371  0.025618 -0.000000      6.000000
  0.073951  0.025618 -0.000000     12.000000
  0.103532  0.025618 -0.000000     12.000000
  0.133113  0.025618 -0.000000     12.000000
  0.162693  0.025618 -0.000000     12.000000
  0.192274  0.025618 -0.000000      6.000000
  0.088742  0.051235 -0.000000      6.000000
  0.118322  0.051235 -0.000000     12.000000
  0.147903  0.051235 -0.000000     12.000000
  0.177484  0.051235 -0.000000     12.000000
  0.133113  0.076853 -0.000000      6.000000
  0.162693  0.076853 -0.000000     12.000000
  0.192274  0.076853 -0.000000      6.000000
  0.177484  0.102470 -0.000000      6.000000
 


--------------------------------------------------------------------------------------------------------




 Dimension of arrays:
   k-points           NKPTS =     21   k-points in BZ     NKDIM =     21   number of bands    NBANDS=     64
   number of dos      NEDOS =    301   number of ions     NIONS =     26
   non local maximal  LDIM  =      5   non local SUM 2l+1 LMDIM =     13
   total plane-waves  NPLWV = 169344
   max r-space proj   IRMAX =      1   max aug-charges    IRDMAX= 189504
   dimension x,y,z NGX =    24 NGY =   24 NGZ =  294
   dimension x,y,z NGXF=    48 NGYF=   48 NGZF=  588
   support grid    NGXF=    96 NGYF=   96 NGZF= 1176
   ions per type =              10   9   7
 NGX,Y,Z   is equivalent  to a cutoff of  13.29, 13.29, 12.56 a.u.
 NGXF,Y,Z  is equivalent  to a cutoff of  26.57, 26.57, 25.11 a.u.


 I would recommend the setting:
   dimension x,y,z NGX =    22 NGY =   22 NGZ =  290
 SYSTEM =  unknown system                          
 POSCAR =  Layer                                   

 Startparameter for this run:
   NWRITE =      2    write-flag & timer
   PREC   = accura    normal or accurate (medium, high low for compatibility)
   ISTART =      0    job   : 0-new  1-cont  2-samecut
   ICHARG =      2    charge: 1-file 2-atom 10-const
   ISPIN  =      1    spin polarized calculation?
   LNONCOLLINEAR =      F non collinear calculations
   LSORBIT =      F    spin-orbit coupling
   INIWAV =      1    electr: 0-lowe 1-rand  2-diag
   LASPH  =      F    aspherical Exc in radial PAW
   METAGGA=      F    non-selfconsistent MetaGGA calc.

 Electronic Relaxation 1
   ENCUT  =  520.0 eV  38.22 Ry    6.18 a.u.   5.58  5.58 72.38*2*pi/ulx,y,z
   ENINI  =  520.0     initial cutoff
   ENAUG  =  605.4 eV  augmentation charge cutoff
   NELM   =    100;   NELMIN=  6; NELMDL=  0     # of ELM steps 
   EDIFF  = 0.1E-04   stopping-criterion for ELM
   LREAL  =      F    real-space projection
   NLSPLINE    = F    spline interpolate recip. space projectors
   LCOMPAT=      F    compatible to vasp.4.4
   GGA_COMPAT  = T    GGA compatible to vasp.4.4-vasp.4.6
   LMAXPAW     = -100 max onsite density
   LMAXMIX     =    2 max onsite mixed and CHGCAR
   VOSKOWN=      0    Vosko Wilk Nusair interpolation
   ROPT   =    0.00000   0.00000   0.00000
 Ionic relaxation
   EDIFFG = -.2E-01   stopping-criterion for IOM
   NSW    =    500    number of steps for IOM
   NBLOCK =      1;   KBLOCK =    500    inner block; outer block 
   IBRION =      2    ionic relax: 0-MD 1-quasi-New 2-CG
   NFREE  =      1    steps in history (QN), initial steepest desc. (CG)
   ISIF   =      2    stress and relaxation
   IWAVPR =     11    prediction:  0-non 1-charg 2-wave 3-comb
   ISYM   =      2    0-nonsym 1-usesym 2-fastsym
   LCORR  =      T    Harris-Foulkes like correction to forces

   POTIM  = 0.5000    time-step for ionic-motion
   TEIN   =    0.0    initial temperature
   TEBEG  =    0.0;   TEEND  =   0.0 temperature during run
   SMASS  =  -3.00    Nose mass-parameter (am)
   estimated Nose-frequenzy (Omega)   =  0.10E-29 period in steps =****** mass=  -0.206E-27a.u.
   SCALEE = 1.0000    scale energy and forces
   NPACO  =    256;   APACO  = 16.0  distance and # of slots for P.C.
   PSTRESS=    0.0 pullay stress

  Mass of Ions in am
   POMASS =  16.00 24.30 26.98
  Ionic Valenz
   ZVAL   =   6.00  2.00  3.00
  Atomic Wigner-Seitz radii
   RWIGS  =  -1.00 -1.00 -1.00
  virtual crystal weights 
   VCA    =   1.00  1.00  1.00
   NELECT =      99.0000    total number of electrons
   NUPDOWN=      -1.0000    fix difference up-down

 DOS related values:
   EMIN   =  10.00;   EMAX   =-10.00  energy-range for DOS
   EFERMI =   0.00
   ISMEAR =     0;   SIGMA  =   0.05  broadening in eV -4-tet -1-fermi 0-gaus

 Electronic relaxation 2 (details)
   IALGO  =     38    algorithm
   LDIAG  =      T    sub-space diagonalisation (order eigenvalues)
   LSUBROT=      F    optimize rotation matrix (better conditioning)
   TURBO    =      0    0=normal 1=particle mesh
   IRESTART =      0    0=no restart 2=restart with 2 vectors
   NREBOOT  =      0    no. of reboots
   NMIN     =      0    reboot dimension
   EREF     =   0.00    reference energy to select bands
   IMIX   =      4    mixing-type and parameters
     AMIX     =   0.40;   BMIX     =  1.00
     AMIX_MAG =   1.60;   BMIX_MAG =  1.00
     AMIN     =   0.01
     WC   =   100.;   INIMIX=   1;  MIXPRE=   1;  MAXMIX= -45

 Intra band minimization:
   WEIMIN = 0.0010     energy-eigenvalue tresh-hold
   EBREAK =  0.39E-07  absolut break condition
   DEPER  =   0.30     relativ break condition  

   TIME   =   0.40     timestep for ELM

  volume/ion in A,a.u.               =      11.69        78.90
  Fermi-wavevector in a.u.,A,eV,Ry     =   1.126358  2.128507 17.261459  1.268681
  Thomas-Fermi vector in A             =   2.263039
 
 Write flags
   LWAVE  =      F    write WAVECAR
   LCHARG =      T    write CHGCAR
   LVTOT  =      F    write LOCPOT, total local potential
   LVHAR  =      F    write LOCPOT, Hartree potential only
   LELF   =      F    write electronic localiz. function (ELF)
   LORBIT =      0    0 simple, 1 ext, 2 COOP (PROOUT)


 Dipole corrections
   LMONO  =      F    monopole corrections only (constant potential shift)
   LDIPOL =      F    correct potential (dipole corrections)
   IDIPOL =      0    1-x, 2-y, 3-z, 4-all directions 
   EPSILON=  1.0000000 bulk dielectric constant

 Exchange correlation treatment:
   GGA     =    --    GGA type
   LEXCH   =     8    internal setting for exchange type
   VOSKOWN=      0    Vosko Wilk Nusair interpolation
   LHFCALC =     F    Hartree Fock is set to
   LHFONE  =     F    Hartree Fock one center treatment
   AEXX    =    0.0000 exact exchange contribution

 Linear response parameters
   LEPSILON=     F    determine dielectric tensor
   LRPA    =     F    only Hartree local field effects (RPA)
   LNABLA  =     F    use nabla operator in PAW spheres
   LVEL    =     F    velocity operator in full k-point grid
   LINTERFAST=   F  fast interpolation
   KINTER  =     0    interpolate to denser k-point grid
   CSHIFT  =0.1000    complex shift for real part using Kramers Kronig
   OMEGAMAX=  -1.0    maximum frequency
   DEG_THRESHOLD= 0.2000000E-02 threshold for treating states as degnerate
   RTIME   =    0.100 relaxation time in fs

 Orbital magnetization related:
   ORBITALMAG=     F  switch on orbital magnetization
   LCHIMAG   =     F  perturbation theory with respect to B field
   DQ        =  0.001000  dq finite difference perturbation B field



--------------------------------------------------------------------------------------------------------


 conjugate gradient relaxation of ions
   using selective dynamics as specified on POSCAR
 charge density and potential will be updated during run
 non-spin polarized calculation
 Variant of blocked Davidson
 Davidson routine will perform the subspace rotation
 perform sub-space diagonalisation
    after iterative eigenvector-optimisation
 modified Broyden-mixing scheme, WC =      100.0
 initial mixing is a Kerker type mixing with AMIX =  0.4000 and BMIX =      1.0000
 Hartree-type preconditioning will be used
 using additional bands           14
 reciprocal scheme for non local part
 use partial core corrections
 calculate Harris-corrections to forces 
   (improved forces if not selfconsistent)
 use gradient corrections 
 use of overlap-Matrix (Vanderbilt PP)
 Gauss-broadening in eV      SIGMA  =   0.05


--------------------------------------------------------------------------------------------------------


  energy-cutoff  :      520.00
  volume of cell :      303.97
      direct lattice vectors                 reciprocal lattice vectors
     2.600457673 -1.501374484  0.000000000     0.384547693  0.000000000 -0.000000000
     0.000000000  3.002748968  0.000000000     0.192273847  0.333028172 -0.000000000
     0.000000000 -0.000000000 38.927992129     0.000000000  0.000000000  0.025688456

  length of vectors
     3.002749648  3.002748968 38.927992129     0.384547693  0.384547781  0.025688456


 
 k-points in units of 2pi/SCALE and weight: K-Spacing Value to Generate K-Mesh: 0.02
   0.00000000  0.00000000  0.00000000       0.006
   0.02958059  0.00000000 -0.00000000       0.036
   0.05916118  0.00000000 -0.00000000       0.036
   0.08874178  0.00000000 -0.00000000       0.036
   0.11832237  0.00000000 -0.00000000       0.036
   0.14790296  0.00000000 -0.00000000       0.036
   0.17748355  0.00000000 -0.00000000       0.036
   0.04437089  0.02561755 -0.00000000       0.036
   0.07395148  0.02561755 -0.00000000       0.071
   0.10353207  0.02561755 -0.00000000       0.071
   0.13311266  0.02561755 -0.00000000       0.071
   0.16269325  0.02561755 -0.00000000       0.071
   0.19227385  0.02561755 -0.00000000       0.036
   0.08874178  0.05123510 -0.00000000       0.036
   0.11832237  0.05123510 -0.00000000       0.071
   0.14790296  0.05123510 -0.00000000       0.071
   0.17748355  0.05123510 -0.00000000       0.071
   0.13311266  0.07685266 -0.00000000       0.036
   0.16269325  0.07685266 -0.00000000       0.071
   0.19227385  0.07685266 -0.00000000       0.036
   0.17748355  0.10247021 -0.00000000       0.036
 
 k-points in reciprocal lattice and weights: K-Spacing Value to Generate K-Mesh: 0.02
   0.00000000  0.00000000  0.00000000       0.006
   0.07692308  0.00000000  0.00000000       0.036
   0.15384615  0.00000000 -0.00000000       0.036
   0.23076923  0.00000000  0.00000000       0.036
   0.30769231  0.00000000  0.00000000       0.036
   0.38461538  0.00000000  0.00000000       0.036
   0.46153846  0.00000000  0.00000000       0.036
   0.07692308  0.07692308 -0.00000000       0.036
   0.15384615  0.07692308  0.00000000       0.071
   0.23076923  0.07692308 -0.00000000       0.071
   0.30769231  0.07692308 -0.00000000       0.071
   0.38461538  0.07692308  0.00000000       0.071
   0.46153846  0.07692308  0.00000000       0.036
   0.15384615  0.15384615 -0.00000000       0.036
   0.23076923  0.15384615  0.00000000       0.071
   0.30769231  0.15384615  0.00000000       0.071
   0.38461538  0.15384615  0.00000000       0.071
   0.23076923  0.23076923 -0.00000000       0.036
   0.30769231  0.23076923  0.00000000       0.071
   0.38461538  0.23076923  0.00000000       0.036
   0.30769231  0.30769231 -0.00000000       0.036
 
 position of ions in fractional coordinates (direct lattice) 
   0.00000000  0.00000000  0.24272078
   0.33333300  0.66666700  0.30370474
   0.00000000  0.00000000  0.43075787
   0.33333300  0.66666700  0.49430653
   0.00000000  0.00000000  0.62140597
   0.33333300  0.66666700  0.68489666
   0.00000000  0.00000000  0.80929717
   0.66666700  0.33333300  0.36721561
   0.66666700  0.33333300  0.55788995
   0.66666700  0.33333300  0.74834859
   0.00000000  0.00000000  0.33545551
   0.00000000  0.00000000  0.52608163
   0.00000000  0.00000000  0.71664865
   0.66666700  0.33333300  0.27185003
   0.66666700  0.33333300  0.46252875
   0.66666700  0.33333300  0.65316071
   0.33333300  0.66666700  0.39897564
   0.33333300  0.66666700  0.58962809
   0.33333300  0.66666700  0.78021349
   0.00000000  0.00000000  0.02596131
   0.00000000  0.00000000  0.19840327
   0.66666700  0.33333300  0.14192680
   0.33333300  0.66666700  0.08368953
   0.00000000  0.00000000  0.85361910
   0.66666700  0.33333300  0.96823997
   0.33333300  0.66666700  0.91004063
 
 position of ions in cartesian coordinates  (Angst):
   0.00000000 -0.00000000  9.44863258
   0.86681836  1.50137599 11.82261556
   0.00000000 -0.00000000 16.76853911
   0.86681836  1.50137599 19.24236055
   0.00000000 -0.00000000 24.19008666
   0.86681836  1.50137599 26.66165195
   0.00000000 -0.00000000 31.50431401
   1.73363932 -0.00000150 14.29496654
   1.73363932 -0.00000150 21.71753540
   1.73363932 -0.00000150 29.13170788
   0.00000000 -0.00000000 13.05860937
   0.00000000 -0.00000000 20.47930159
   0.00000000 -0.00000000 27.89769295
   1.73363932 -0.00000150 10.58257602
   1.73363932 -0.00000150 18.00531564
   1.73363932 -0.00000150 25.42623486
   0.86681836  1.50137599 15.53132047
   0.86681836  1.50137599 22.95303782
   0.86681836  1.50137599 30.37214470
   0.00000000 -0.00000000  1.01062168
   0.00000000 -0.00000000  7.72344109
   1.73363932 -0.00000150  5.52492554
   0.86681836  1.50137599  3.25786551
   0.00000000 -0.00000000 33.22967747
   1.73363932 -0.00000150 37.69163811
   0.86681836  1.50137599 35.42605461
 


--------------------------------------------------------------------------------------------------------


 k-point  1 :   0.0000 0.0000 0.0000  plane waves:    8293
 k-point  2 :   0.0769 0.0000 0.0000  plane waves:    8285
 k-point  3 :   0.1538 0.0000-0.0000  plane waves:    8251
 k-point  4 :   0.2308 0.0000 0.0000  plane waves:    8246
 k-point  5 :   0.3077 0.0000 0.0000  plane waves:    8166
 k-point  6 :   0.3846 0.0000 0.0000  plane waves:    8152
 k-point  7 :   0.4615 0.0000 0.0000  plane waves:    8150
 k-point  8 :   0.0769 0.0769-0.0000  plane waves:    8261
 k-point  9 :   0.1538 0.0769 0.0000  plane waves:    8244
 k-point 10 :   0.2308 0.0769-0.0000  plane waves:    8199
 k-point 11 :   0.3077 0.0769-0.0000  plane waves:    8180
 k-point 12 :   0.3846 0.0769 0.0000  plane waves:    8157
 k-point 13 :   0.4615 0.0769 0.0000  plane waves:    8124
 k-point 14 :   0.1538 0.1538-0.0000  plane waves:    8207
 k-point 15 :   0.2308 0.1538 0.0000  plane waves:    8176
 k-point 16 :   0.3077 0.1538 0.0000  plane waves:    8166
 k-point 17 :   0.3846 0.1538 0.0000  plane waves:    8132
 k-point 18 :   0.2308 0.2308-0.0000  plane waves:    8172
 k-point 19 :   0.3077 0.2308 0.0000  plane waves:    8163
 k-point 20 :   0.3846 0.2308 0.0000  plane waves:    8152
 k-point 21 :   0.3077 0.3077-0.0000  plane waves:    8172

 maximum and minimum number of plane-waves per node :      2118     2017

 maximum number of plane-waves:      8293
 maximum index in each direction: 
   IXMAX=    5   IYMAX=    5   IZMAX=   72
   IXMIN=   -6   IYMIN=   -5   IZMIN=  -72

 NGX is ok and might be reduce to  24
 NGY is ok and might be reduce to  22
 NGZ is ok and might be reduce to 290

 parallel 3D FFT for wavefunctions:
    minimum data exchange during FFTs selected (reduces bandwidth)
 parallel 3D FFT for charge:
    minimum data exchange during FFTs selected (reduces bandwidth)


 total amount of memory used by VASP on root node   139306. kBytes
========================================================================

   base      :      30000. kBytes
   nonl-proj :      14758. kBytes
   fftplans  :      50689. kBytes
   grid      :      20321. kBytes
   one-center:         56. kBytes
   wavefun   :      23482. kBytes
 
     INWAV:  cpu time    0.00: real time    0.00
 Broyden mixing: mesh for mixing (old mesh)
   NGX = 11   NGY = 11   NGZ =145
  (NGX  = 48   NGY  = 48   NGZ  =588)
  gives a total of  17545 points

 initial charge density was supplied:
 charge density of overlapping atoms calculated
 number of electron      99.0000000 magnetization 
 keeping initial charge density in first step


--------------------------------------------------------------------------------------------------------


 Maximum index for augmentation-charges        22832 (set IRDMAX)


--------------------------------------------------------------------------------------------------------


 First call to EWALD:  gamma=   0.264
 Maximum number of real-space cells 6x 6x 1
 Maximum number of reciprocal cells 1x 1x14

 FEWALD executed in parallel
    FEWALD:  cpu time    0.00: real time    0.00


----------------------------------------- Iteration    1(   1)  ---------------------------------------


    POTLOK:  cpu time    0.10: real time    0.10
    SETDIJ:  cpu time    0.10: real time    0.10
     EDDAV:  cpu time    4.07: real time    4.09
       DOS:  cpu time    0.00: real time    0.00
    --------------------------------------------
      LOOP:  cpu time    4.27: real time    4.29

 eigenvalue-minimisations  :  2696
 total energy-change (2. order) : 0.5025703E+03  (-0.4477805E+04)
 number of electron      99.0000000 magnetization 
 augmentation part       99.0000000 magnetization 

 Free energy of the ion-electron system (eV)
  ---------------------------------------------------
  alpha Z        PSCENC =       138.83486737
  Ewald energy   TEWEN  =      7354.68554903
  -Hartree energ DENC   =    -12561.76769862
  -exchange      EXHF   =         0.00000000
  -V(xc)+E(xc)   XCENC  =      -341.34800400
  PAW double counting   =      4516.65612620    -3844.19644948
  entropy T*S    EENTRO =        -0.00422635
  eigenvalues    EBANDS =       334.02931242
  atomic energy  EATOM  =      4905.68083858
  ---------------------------------------------------
  free energy    TOTEN  =       502.57031515 eV

  energy without entropy =      502.57454150  energy(sigma->0) =      502.57242833


--------------------------------------------------------------------------------------------------------




----------------------------------------- Iteration    1(   2)  ---------------------------------------


     EDDAV:  cpu time    4.54: real time    4.54
       DOS:  cpu time    0.00: real time    0.00
    --------------------------------------------
      LOOP:  cpu time    4.54: real time    4.54

 eigenvalue-minimisations  :  3456
 total energy-change (2. order) :-0.6090460E+03  (-0.5815027E+03)
 number of electron      99.0000000 magnetization 
 augmentation part       99.0000000 magnetization 

 Free energy of the ion-electron system (eV)
  ---------------------------------------------------
  alpha Z        PSCENC =       138.83486737
  Ewald energy   TEWEN  =      7354.68554903
  -Hartree energ DENC   =    -12561.76769862
  -exchange      EXHF   =         0.00000000
  -V(xc)+E(xc)   XCENC  =      -341.34800400
  PAW double counting   =      4516.65612620    -3844.19644948
  entropy T*S    EENTRO =        -0.00742664
  eigenvalues    EBANDS =      -275.01343943
  atomic energy  EATOM  =      4905.68083858
  ---------------------------------------------------
  free energy    TOTEN  =      -106.47563699 eV

  energy without entropy =     -106.46821035  energy(sigma->0) =     -106.47192367


--------------------------------------------------------------------------------------------------------




----------------------------------------- Iteration    1(   3)  ---------------------------------------


     EDDAV:  cpu time    4.55: real time    4.56
       DOS:  cpu time    0.00: real time    0.00
    --------------------------------------------
      LOOP:  cpu time    4.55: real time    4.56

 eigenvalue-minimisations  :  3144
 total energy-change (2. order) :-0.5165716E+02  (-0.5138199E+02)
 number of electron      99.0000000 magnetization 
 augmentation part       99.0000000 magnetization 

 Free energy of the ion-electron system (eV)
  ---------------------------------------------------
  alpha Z        PSCENC =       138.83486737
  Ewald energy   TEWEN  =      7354.68554903
  -Hartree energ DENC   =    -12561.76769862
  -exchange      EXHF   =         0.00000000
  -V(xc)+E(xc)   XCENC  =      -341.34800400
  PAW double counting   =      4516.65612620    -3844.19644948
  entropy T*S    EENTRO =        -0.00323888
  eigenvalues    EBANDS =      -326.67478846
  atomic energy  EATOM  =      4905.68083858
  ---------------------------------------------------
  free energy    TOTEN  =      -158.13279826 eV

  energy without entropy =     -158.12955938  energy(sigma->0) =     -158.13117882


--------------------------------------------------------------------------------------------------------




----------------------------------------- Iteration    1(   4)  ---------------------------------------


     EDDAV:  cpu time    4.29: real time    4.30
       DOS:  cpu time    0.00: real time    0.00
    --------------------------------------------
      LOOP:  cpu time    4.30: real time    4.30

 eigenvalue-minimisations  :  3152
 total energy-change (2. order) :-0.6024617E+00  (-0.6014625E+00)
 number of electron      99.0000000 magnetization 
 augmentation part       99.0000000 magnetization 

 Free energy of the ion-electron system (eV)
  ---------------------------------------------------
  alpha Z        PSCENC =       138.83486737
  Ewald energy   TEWEN  =      7354.68554903
  -Hartree energ DENC   =    -12561.76769862
  -exchange      EXHF   =         0.00000000
  -V(xc)+E(xc)   XCENC  =      -341.34800400
  PAW double counting   =      4516.65612620    -3844.19644948
  entropy T*S    EENTRO =        -0.00314390
  eigenvalues    EBANDS =      -327.27734511
  atomic energy  EATOM  =      4905.68083858
  ---------------------------------------------------
  free energy    TOTEN  =      -158.73525994 eV

  energy without entropy =     -158.73211603  energy(sigma->0) =     -158.73368798


--------------------------------------------------------------------------------------------------------




----------------------------------------- Iteration    1(   5)  ---------------------------------------


     EDDAV:  cpu time    4.38: real time    4.39
       DOS:  cpu time    0.00: real time    0.00
    CHARGE:  cpu time    0.35: real time    0.35
    MIXING:  cpu time    0.00: real time    0.00
    --------------------------------------------
      LOOP:  cpu time    4.74: real time    4.74

 eigenvalue-minimisations  :  3240
 total energy-change (2. order) :-0.8826042E-02  (-0.8822786E-02)
 number of electron      99.0000001 magnetization 
 augmentation part        7.8334779 magnetization 

 Broyden mixing:
  rms(total) = 0.23732E+01    rms(broyden)= 0.23727E+01
  rms(prec ) = 0.24421E+01
  weight for this iteration     100.00

 Free energy of the ion-electron system (eV)
  ---------------------------------------------------
  alpha Z        PSCENC =       138.83486737
  Ewald energy   TEWEN  =      7354.68554903
  -Hartree energ DENC   =    -12561.76769862
  -exchange      EXHF   =         0.00000000
  -V(xc)+E(xc)   XCENC  =      -341.34800400
  PAW double counting   =      4516.65612620    -3844.19644948
  entropy T*S    EENTRO =        -0.00314454
  eigenvalues    EBANDS =      -327.28617052
  atomic energy  EATOM  =      4905.68083858
  ---------------------------------------------------
  free energy    TOTEN  =      -158.74408598 eV

  energy without entropy =     -158.74094144  energy(sigma->0) =     -158.74251371


--------------------------------------------------------------------------------------------------------




----------------------------------------- Iteration    1(   6)  ---------------------------------------


    POTLOK:  cpu time    0.09: real time    0.09
    SETDIJ:  cpu time    0.09: real time    0.09
     EDDAV:  cpu time    4.33: real time    4.33
       DOS:  cpu time    0.00: real time    0.00
    CHARGE:  cpu time    0.34: real time    0.34
    MIXING:  cpu time    0.00: real time    0.00
    --------------------------------------------
      LOOP:  cpu time    4.86: real time    4.86

 eigenvalue-minimisations  :  3184
 total energy-change (2. order) : 0.1676712E+02  (-0.9145515E+01)
 number of electron      99.0000001 magnetization 
 augmentation part        6.3378984 magnetization 

 Broyden mixing:
  rms(total) = 0.78941E+00    rms(broyden)= 0.78836E+00
  rms(prec ) = 0.79754E+00
  weight for this iteration     100.00

 eigenvalues of (default mixing * dielectric matrix)
  average eigenvalue GAMMA=   0.8539
  0.8539

 Free energy of the ion-electron system (eV)
  ---------------------------------------------------
  alpha Z        PSCENC =       138.83486737
  Ewald energy   TEWEN  =      7354.68554903
  -Hartree energ DENC   =    -12760.93853123
  -exchange      EXHF   =         0.00000000
  -V(xc)+E(xc)   XCENC  =      -327.72880774
  PAW double counting   =      5439.79206220    -4770.92360301
  entropy T*S    EENTRO =        -0.00479419
  eigenvalues    EBANDS =      -121.37454283
  atomic energy  EATOM  =      4905.68083858
  ---------------------------------------------------
  free energy    TOTEN  =      -141.97696182 eV

  energy without entropy =     -141.97216763  energy(sigma->0) =     -141.97456473


--------------------------------------------------------------------------------------------------------




----------------------------------------- Iteration    1(   7)  ---------------------------------------


    POTLOK:  cpu time    0.09: real time    0.09
    SETDIJ:  cpu time    0.09: real time    0.09
     EDDAV:  cpu time    4.15: real time    4.16
       DOS:  cpu time    0.00: real time    0.00
    CHARGE:  cpu time    0.35: real time    0.35
    MIXING:  cpu time    0.00: real time    0.00
    --------------------------------------------
      LOOP:  cpu time    4.69: real time    4.69

 eigenvalue-minimisations  :  3016
 total energy-change (2. order) : 0.2832193E-02  (-0.2759962E+00)
 number of electron      99.0000001 magnetization 
 augmentation part        6.3473328 magnetization 

 Broyden mixing:
  rms(total) = 0.49222E+00    rms(broyden)= 0.49219E+00
  rms(prec ) = 0.49989E+00
  weight for this iteration     100.00

 eigenvalues of (default mixing * dielectric matrix)
  average eigenvalue GAMMA=   1.4491
  1.0306  1.8675

 Free energy of the ion-electron system (eV)
  ---------------------------------------------------
  alpha Z        PSCENC =       138.83486737
  Ewald energy   TEWEN  =      7354.68554903
  -Hartree energ DENC   =    -12762.78076208
  -exchange      EXHF   =         0.00000000
  -V(xc)+E(xc)   XCENC  =      -327.24341018
  PAW double counting   =      5828.44716551    -5159.16385643
  entropy T*S    EENTRO =        -0.00504294
  eigenvalues    EBANDS =      -120.42947850
  atomic energy  EATOM  =      4905.68083858
  ---------------------------------------------------
  free energy    TOTEN  =      -141.97412963 eV

  energy without entropy =     -141.96908668  energy(sigma->0) =     -141.97160816


--------------------------------------------------------------------------------------------------------




----------------------------------------- Iteration    1(   8)  ---------------------------------------


    POTLOK:  cpu time    0.09: real time    0.09
    SETDIJ:  cpu time    0.10: real time    0.10
     EDDAV:  cpu time    4.24: real time    4.24
       DOS:  cpu time    0.00: real time    0.00
    CHARGE:  cpu time    0.34: real time    0.34
    MIXING:  cpu time    0.01: real time    0.01
    --------------------------------------------
      LOOP:  cpu time    4.78: real time    4.78

 eigenvalue-minimisations  :  3096
 total energy-change (2. order) : 0.1309425E+00  (-0.6299253E-01)
 number of electron      99.0000001 magnetization 
 augmentation part        6.4130384 magnetization 

 Broyden mixing:
  rms(total) = 0.12570E+00    rms(broyden)= 0.12565E+00
  rms(prec ) = 0.13401E+00
  weight for this iteration     100.00

 eigenvalues of (default mixing * dielectric matrix)
  average eigenvalue GAMMA=   1.3702
  2.3799  0.8985  0.8324

 Free energy of the ion-electron system (eV)
  ---------------------------------------------------
  alpha Z        PSCENC =       138.83486737
  Ewald energy   TEWEN  =      7354.68554903
  -Hartree energ DENC   =    -12769.31752145
  -exchange      EXHF   =         0.00000000
  -V(xc)+E(xc)   XCENC  =      -326.19306107
  PAW double counting   =      6328.87950791    -5659.29278592
  entropy T*S    EENTRO =        -0.00555743
  eigenvalues    EBANDS =      -115.11502414
  atomic energy  EATOM  =      4905.68083858
  ---------------------------------------------------
  free energy    TOTEN  =      -141.84318711 eV

  energy without entropy =     -141.83762968  energy(sigma->0) =     -141.84040839


--------------------------------------------------------------------------------------------------------




----------------------------------------- Iteration    1(   9)  ---------------------------------------


    POTLOK:  cpu time    0.09: real time    0.09
    SETDIJ:  cpu time    0.09: real time    0.09
     EDDAV:  cpu time    4.20: real time    4.21
       DOS:  cpu time    0.00: real time    0.00
    CHARGE:  cpu time    0.34: real time    0.34
    MIXING:  cpu time    0.00: real time    0.00
    --------------------------------------------
      LOOP:  cpu time    4.73: real time    4.74

 eigenvalue-minimisations  :  3072
 total energy-change (2. order) : 0.2952831E-01  (-0.1433539E-01)
 number of electron      99.0000001 magnetization 
 augmentation part        6.3792556 magnetization 

 Broyden mixing:
  rms(total) = 0.64449E-01    rms(broyden)= 0.64442E-01
  rms(prec ) = 0.72270E-01
  weight for this iteration     100.00

 eigenvalues of (default mixing * dielectric matrix)
  average eigenvalue GAMMA=   1.3386
  2.3833  0.9573  0.9573  1.0564

 Free energy of the ion-electron system (eV)
  ---------------------------------------------------
  alpha Z        PSCENC =       138.83486737
  Ewald energy   TEWEN  =      7354.68554903
  -Hartree energ DENC   =    -12777.52451987
  -exchange      EXHF   =         0.00000000
  -V(xc)+E(xc)   XCENC  =      -325.50766319
  PAW double counting   =      6454.11585619    -5784.57330622
  entropy T*S    EENTRO =        -0.00535486
  eigenvalues    EBANDS =      -107.51992584
  atomic energy  EATOM  =      4905.68083858
  ---------------------------------------------------
  free energy    TOTEN  =      -141.81365879 eV

  energy without entropy =     -141.80830394  energy(sigma->0) =     -141.81098137


--------------------------------------------------------------------------------------------------------




----------------------------------------- Iteration    1(  10)  ---------------------------------------


    POTLOK:  cpu time    0.09: real time    0.09
    SETDIJ:  cpu time    0.09: real time    0.09
     EDDAV:  cpu time    4.17: real time    4.18
       DOS:  cpu time    0.00: real time    0.00
    CHARGE:  cpu time    0.34: real time    0.34
    MIXING:  cpu time    0.01: real time    0.01
    --------------------------------------------
      LOOP:  cpu time    4.70: real time    4.71

 eigenvalue-minimisations  :  3040
 total energy-change (2. order) : 0.4582903E-02  (-0.7920097E-02)
 number of electron      99.0000001 magnetization 
 augmentation part        6.3635269 magnetization 

 Broyden mixing:
  rms(total) = 0.29792E-01    rms(broyden)= 0.29756E-01
  rms(prec ) = 0.38904E-01
  weight for this iteration     100.00

 eigenvalues of (default mixing * dielectric matrix)
  average eigenvalue GAMMA=   1.3538
  2.5481  1.6303  0.9866  0.8022  0.8022

 Free energy of the ion-electron system (eV)
  ---------------------------------------------------
  alpha Z        PSCENC =       138.83486737
  Ewald energy   TEWEN  =      7354.68554903
  -Hartree energ DENC   =    -12779.85156424
  -exchange      EXHF   =         0.00000000
  -V(xc)+E(xc)   XCENC  =      -325.38389897
  PAW double counting   =      6437.78537454    -5768.25955518
  entropy T*S    EENTRO =        -0.00526250
  eigenvalues    EBANDS =      -105.29542453
  atomic energy  EATOM  =      4905.68083858
  ---------------------------------------------------
  free energy    TOTEN  =      -141.80907589 eV

  energy without entropy =     -141.80381339  energy(sigma->0) =     -141.80644464


--------------------------------------------------------------------------------------------------------




----------------------------------------- Iteration    1(  11)  ---------------------------------------


    POTLOK:  cpu time    0.09: real time    0.09
    SETDIJ:  cpu time    0.09: real time    0.09
     EDDAV:  cpu time    4.30: real time    4.31
       DOS:  cpu time    0.00: real time    0.00
    CHARGE:  cpu time    0.35: real time    0.35
    MIXING:  cpu time    0.01: real time    0.01
    --------------------------------------------
      LOOP:  cpu time    4.84: real time    4.84

 eigenvalue-minimisations  :  3288
 total energy-change (2. order) : 0.4443790E-02  (-0.5964783E-03)
 number of electron      99.0000001 magnetization 
 augmentation part        6.3599110 magnetization 

 Broyden mixing:
  rms(total) = 0.21803E-01    rms(broyden)= 0.21801E-01
  rms(prec ) = 0.33433E-01
  weight for this iteration     100.00

 eigenvalues of (default mixing * dielectric matrix)
  average eigenvalue GAMMA=   1.4141
  2.5855  2.2586  0.9446  0.9446  0.8757  0.8757

 Free energy of the ion-electron system (eV)
  ---------------------------------------------------
  alpha Z        PSCENC =       138.83486737
  Ewald energy   TEWEN  =      7354.68554903
  -Hartree energ DENC   =    -12781.85941683
  -exchange      EXHF   =         0.00000000
  -V(xc)+E(xc)   XCENC  =      -325.27984591
  PAW double counting   =      6418.52472297    -5749.01074789
  entropy T*S    EENTRO =        -0.00522904
  eigenvalues    EBANDS =      -103.37537039
  atomic energy  EATOM  =      4905.68083858
  ---------------------------------------------------
  free energy    TOTEN  =      -141.80463210 eV

  energy without entropy =     -141.79940307  energy(sigma->0) =     -141.80201758


--------------------------------------------------------------------------------------------------------




----------------------------------------- Iteration    1(  12)  ---------------------------------------


    POTLOK:  cpu time    0.10: real time    0.10
    SETDIJ:  cpu time    0.09: real time    0.09
     EDDAV:  cpu time    4.49: real time    4.49
       DOS:  cpu time    0.00: real time    0.00
    CHARGE:  cpu time    0.34: real time    0.34
    MIXING:  cpu time    0.00: real time    0.00
    --------------------------------------------
      LOOP:  cpu time    5.03: real time    5.03

 eigenvalue-minimisations  :  3360
 total energy-change (2. order) : 0.3230027E-02  (-0.4583385E-03)
 number of electron      99.0000001 magnetization 
 augmentation part        6.3597702 magnetization 

 Broyden mixing:
  rms(total) = 0.13292E-01    rms(broyden)= 0.13291E-01
  rms(prec ) = 0.26258E-01
  weight for this iteration     100.00

 eigenvalues of (default mixing * dielectric matrix)
  average eigenvalue GAMMA=   1.3788
  2.8397  2.5227  0.9544  0.9544  0.8961  0.8961  0.5880

 Free energy of the ion-electron system (eV)
  ---------------------------------------------------
  alpha Z        PSCENC =       138.83486737
  Ewald energy   TEWEN  =      7354.68554903
  -Hartree energ DENC   =    -12782.63120704
  -exchange      EXHF   =         0.00000000
  -V(xc)+E(xc)   XCENC  =      -325.27345631
  PAW double counting   =      6405.02339663    -5735.50999937
  entropy T*S    EENTRO =        -0.00522232
  eigenvalues    EBANDS =      -102.60616865
  atomic energy  EATOM  =      4905.68083858
  ---------------------------------------------------
  free energy    TOTEN  =      -141.80140207 eV

  energy without entropy =     -141.79617975  energy(sigma->0) =     -141.79879091


--------------------------------------------------------------------------------------------------------




----------------------------------------- Iteration    1(  13)  ---------------------------------------


    POTLOK:  cpu time    0.09: real time    0.09
    SETDIJ:  cpu time    0.10: real time    0.10
     EDDAV:  cpu time    5.38: real time    5.38
       DOS:  cpu time    0.00: real time    0.00
    CHARGE:  cpu time    0.34: real time    0.34
    MIXING:  cpu time    0.01: real time    0.01
    --------------------------------------------
      LOOP:  cpu time    5.92: real time    5.93

 eigenvalue-minimisations  :  4224
 total energy-change (2. order) : 0.6227368E-02  (-0.2863353E-03)
 number of electron      99.0000001 magnetization 
 augmentation part        6.3613329 magnetization 

 Broyden mixing:
  rms(total) = 0.82338E-02    rms(broyden)= 0.82327E-02
  rms(prec ) = 0.21615E-01
  weight for this iteration     100.00

 eigenvalues of (default mixing * dielectric matrix)
  average eigenvalue GAMMA=   1.3905
  2.8304  2.4638  1.3672  0.8678  0.8678  0.9771  0.9771  0.7726

 Free energy of the ion-electron system (eV)
  ---------------------------------------------------
  alpha Z        PSCENC =       138.83486737
  Ewald energy   TEWEN  =      7354.68554903
  -Hartree energ DENC   =    -12784.09268766
  -exchange      EXHF   =         0.00000000
  -V(xc)+E(xc)   XCENC  =      -325.30275944
  PAW double counting   =      6375.74239185    -5706.22346780
  entropy T*S    EENTRO =        -0.00520358
  eigenvalues    EBANDS =      -101.11470307
  atomic energy  EATOM  =      4905.68083858
  ---------------------------------------------------
  free energy    TOTEN  =      -141.79517471 eV

  energy without entropy =     -141.78997113  energy(sigma->0) =     -141.79257292


--------------------------------------------------------------------------------------------------------




----------------------------------------- Iteration    1(  14)  ---------------------------------------


    POTLOK:  cpu time    0.10: real time    0.10
    SETDIJ:  cpu time    0.09: real time    0.09
     EDDAV:  cpu time    4.84: real time    4.85
       DOS:  cpu time    0.00: real time    0.00
    CHARGE:  cpu time    0.34: real time    0.34
    MIXING:  cpu time    0.01: real time    0.01
    --------------------------------------------
      LOOP:  cpu time    5.37: real time    5.38

 eigenvalue-minimisations  :  3688
 total energy-change (2. order) : 0.5022337E-02  (-0.6654373E-03)
 number of electron      99.0000001 magnetization 
 augmentation part        6.3645855 magnetization 

 Broyden mixing:
  rms(total) = 0.91598E-02    rms(broyden)= 0.91571E-02
  rms(prec ) = 0.19260E-01
  weight for this iteration     100.00

 eigenvalues of (default mixing * dielectric matrix)
  average eigenvalue GAMMA=   1.4476
  3.0448  2.4072  2.2439  0.9037  0.9037  0.9953  0.9953  0.8184  0.7163

 Free energy of the ion-electron system (eV)
  ---------------------------------------------------
  alpha Z        PSCENC =       138.83486737
  Ewald energy   TEWEN  =      7354.68554903
  -Hartree energ DENC   =    -12785.77820827
  -exchange      EXHF   =         0.00000000
  -V(xc)+E(xc)   XCENC  =      -325.34033160
  PAW double counting   =      6376.91187354    -5707.38113069
  entropy T*S    EENTRO =        -0.00521761
  eigenvalues    EBANDS =       -99.39839273
  atomic energy  EATOM  =      4905.68083858
  ---------------------------------------------------
  free energy    TOTEN  =      -141.79015237 eV

  energy without entropy =     -141.78493476  energy(sigma->0) =     -141.78754357


--------------------------------------------------------------------------------------------------------




----------------------------------------- Iteration    1(  15)  ---------------------------------------


    POTLOK:  cpu time    0.09: real time    0.09
    SETDIJ:  cpu time    0.09: real time    0.09
     EDDAV:  cpu time    5.42: real time    5.43
       DOS:  cpu time    0.00: real time    0.00
    CHARGE:  cpu time    0.35: real time    0.35
    MIXING:  cpu time    0.00: real time    0.00
    --------------------------------------------
      LOOP:  cpu time    5.95: real time    5.96

 eigenvalue-minimisations  :  4256
 total energy-change (2. order) : 0.7961516E-02  (-0.1012359E-02)
 number of electron      99.0000001 magnetization 
 augmentation part        6.3613169 magnetization 

 Broyden mixing:
  rms(total) = 0.88213E-02    rms(broyden)= 0.88189E-02
  rms(prec ) = 0.13253E-01
  weight for this iteration     100.00

 eigenvalues of (default mixing * dielectric matrix)
  average eigenvalue GAMMA=   1.6036
  4.4125  2.7938  2.2838  1.1150  1.1150  0.8651  0.8651  1.0080  0.8403  0.7370

 Free energy of the ion-electron system (eV)
  ---------------------------------------------------
  alpha Z        PSCENC =       138.83486737
  Ewald energy   TEWEN  =      7354.68554903
  -Hartree energ DENC   =    -12790.85269555
  -exchange      EXHF   =         0.00000000
  -V(xc)+E(xc)   XCENC  =      -325.34560654
  PAW double counting   =      6380.69868604    -5711.16603969
  entropy T*S    EENTRO =        -0.00520358
  eigenvalues    EBANDS =       -94.31258653
  atomic energy  EATOM  =      4905.68083858
  ---------------------------------------------------
  free energy    TOTEN  =      -141.78219085 eV

  energy without entropy =     -141.77698728  energy(sigma->0) =     -141.77958906


--------------------------------------------------------------------------------------------------------




----------------------------------------- Iteration    1(  16)  ---------------------------------------


    POTLOK:  cpu time    0.09: real time    0.09
    SETDIJ:  cpu time    0.09: real time    0.09
     EDDAV:  cpu time    4.21: real time    4.21
       DOS:  cpu time    0.00: real time    0.00
    CHARGE:  cpu time    0.34: real time    0.34
    MIXING:  cpu time    0.01: real time    0.01
    --------------------------------------------
      LOOP:  cpu time    4.74: real time    4.74

 eigenvalue-minimisations  :  3072
 total energy-change (2. order) : 0.9947178E-03  (-0.1107297E-02)
 number of electron      99.0000001 magnetization 
 augmentation part        6.3606604 magnetization 

 Broyden mixing:
  rms(total) = 0.70118E-02    rms(broyden)= 0.70105E-02
  rms(prec ) = 0.99527E-02
  weight for this iteration     100.00

 eigenvalues of (default mixing * dielectric matrix)
  average eigenvalue GAMMA=   1.4675
  4.3841  2.7877  2.2840  0.8670  0.8670  1.0967  1.0967  1.0212  0.7442  0.8094
  0.1844

 Free energy of the ion-electron system (eV)
  ---------------------------------------------------
  alpha Z        PSCENC =       138.83486737
  Ewald energy   TEWEN  =      7354.68554903
  -Hartree energ DENC   =    -12792.48365773
  -exchange      EXHF   =         0.00000000
  -V(xc)+E(xc)   XCENC  =      -325.35483533
  PAW double counting   =      6379.81938744    -5710.28705014
  entropy T*S    EENTRO =        -0.00518319
  eigenvalues    EBANDS =       -92.67111217
  atomic energy  EATOM  =      4905.68083858
  ---------------------------------------------------
  free energy    TOTEN  =      -141.78119614 eV

  energy without entropy =     -141.77601295  energy(sigma->0) =     -141.77860454


--------------------------------------------------------------------------------------------------------




----------------------------------------- Iteration    1(  17)  ---------------------------------------


    POTLOK:  cpu time    0.09: real time    0.09
    SETDIJ:  cpu time    0.09: real time    0.09
     EDDAV:  cpu time    4.39: real time    4.40
       DOS:  cpu time    0.00: real time    0.00
    CHARGE:  cpu time    0.34: real time    0.34
    MIXING:  cpu time    0.01: real time    0.01
    --------------------------------------------
      LOOP:  cpu time    4.92: real time    4.92

 eigenvalue-minimisations  :  3248
 total energy-change (2. order) : 0.1044180E-02  (-0.2551206E-03)
 number of electron      99.0000001 magnetization 
 augmentation part        6.3598744 magnetization 

 Broyden mixing:
  rms(total) = 0.34419E-02    rms(broyden)= 0.34410E-02
  rms(prec ) = 0.65756E-02
  weight for this iteration     100.00

 eigenvalues of (default mixing * dielectric matrix)
  average eigenvalue GAMMA=   1.7354
  6.1378  2.8665  2.1421  2.1421  1.1971  1.1971  0.8815  0.8815  0.9665  0.9665
  0.7229  0.7229

 Free energy of the ion-electron system (eV)
  ---------------------------------------------------
  alpha Z        PSCENC =       138.83486737
  Ewald energy   TEWEN  =      7354.68554903
  -Hartree energ DENC   =    -12792.83121045
  -exchange      EXHF   =         0.00000000
  -V(xc)+E(xc)   XCENC  =      -325.35470265
  PAW double counting   =      6384.85661428    -5715.32654350
  entropy T*S    EENTRO =        -0.00517216
  eigenvalues    EBANDS =       -92.32039245
  atomic energy  EATOM  =      4905.68083858
  ---------------------------------------------------
  free energy    TOTEN  =      -141.78015196 eV

  energy without entropy =     -141.77497980  energy(sigma->0) =     -141.77756588


--------------------------------------------------------------------------------------------------------




----------------------------------------- Iteration    1(  18)  ---------------------------------------


    POTLOK:  cpu time    0.09: real time    0.09
    SETDIJ:  cpu time    0.09: real time    0.09
     EDDAV:  cpu time    5.31: real time    5.31
       DOS:  cpu time    0.00: real time    0.00
    CHARGE:  cpu time    0.34: real time    0.34
    MIXING:  cpu time    0.01: real time    0.01
    --------------------------------------------
      LOOP:  cpu time    5.83: real time    5.84

 eigenvalue-minimisations  :  4136
 total energy-change (2. order) : 0.1124204E-02  (-0.1553756E-03)
 number of electron      99.0000001 magnetization 
 augmentation part        6.3592846 magnetization 

 Broyden mixing:
  rms(total) = 0.56025E-02    rms(broyden)= 0.56015E-02
  rms(prec ) = 0.67335E-02
  weight for this iteration     100.00

 eigenvalues of (default mixing * dielectric matrix)
  average eigenvalue GAMMA=   1.9012
  7.8537  3.2385  2.6001  2.6001  1.2490  1.2490  0.8843  0.8843  0.9956  0.9956
  0.7925  0.7538  0.6186

 Free energy of the ion-electron system (eV)
  ---------------------------------------------------
  alpha Z        PSCENC =       138.83486737
  Ewald energy   TEWEN  =      7354.68554903
  -Hartree energ DENC   =    -12794.13663714
  -exchange      EXHF   =         0.00000000
  -V(xc)+E(xc)   XCENC  =      -325.34506968
  PAW double counting   =      6386.34106681    -5716.81547680
  entropy T*S    EENTRO =        -0.00516537
  eigenvalues    EBANDS =       -91.01900055
  atomic energy  EATOM  =      4905.68083858
  ---------------------------------------------------
  free energy    TOTEN  =      -141.77902775 eV

  energy without entropy =     -141.77386238  energy(sigma->0) =     -141.77644507


--------------------------------------------------------------------------------------------------------




----------------------------------------- Iteration    1(  19)  ---------------------------------------


    POTLOK:  cpu time    0.09: real time    0.09
    SETDIJ:  cpu time    0.09: real time    0.09
     EDDAV:  cpu time    4.74: real time    4.75
       DOS:  cpu time    0.00: real time    0.00
    CHARGE:  cpu time    0.34: real time    0.34
    MIXING:  cpu time    0.01: real time    0.01
    --------------------------------------------
      LOOP:  cpu time    5.27: real time    5.27

 eigenvalue-minimisations  :  3688
 total energy-change (2. order) : 0.5754328E-03  (-0.1917002E-03)
 number of electron      99.0000001 magnetization 
 augmentation part        6.3584776 magnetization 

 Broyden mixing:
  rms(total) = 0.62819E-02    rms(broyden)= 0.62812E-02
  rms(prec ) = 0.65792E-02
  weight for this iteration     100.00

 eigenvalues of (default mixing * dielectric matrix)
  average eigenvalue GAMMA=   2.1243
 10.6790  4.3186  2.6507  2.3847  1.4683  1.4683  0.8815  0.8815  0.9959  0.9959
  0.8361  0.8361  0.6721  0.6721

 Free energy of the ion-electron system (eV)
  ---------------------------------------------------
  alpha Z        PSCENC =       138.83486737
  Ewald energy   TEWEN  =      7354.68554903
  -Hartree energ DENC   =    -12795.28557941
  -exchange      EXHF   =         0.00000000
  -V(xc)+E(xc)   XCENC  =      -325.33590474
  PAW double counting   =      6386.80965696    -5717.28889820
  entropy T*S    EENTRO =        -0.00516061
  eigenvalues    EBANDS =       -89.87382132
  atomic energy  EATOM  =      4905.68083858
  ---------------------------------------------------
  free energy    TOTEN  =      -141.77845232 eV

  energy without entropy =     -141.77329171  energy(sigma->0) =     -141.77587202


--------------------------------------------------------------------------------------------------------




----------------------------------------- Iteration    1(  20)  ---------------------------------------


    POTLOK:  cpu time    0.09: real time    0.09
    SETDIJ:  cpu time    0.09: real time    0.09
     EDDAV:  cpu time    4.19: real time    4.20
       DOS:  cpu time    0.00: real time    0.00
    CHARGE:  cpu time    0.35: real time    0.35
    MIXING:  cpu time    0.01: real time    0.01
    --------------------------------------------
      LOOP:  cpu time    4.73: real time    4.73

 eigenvalue-minimisations  :  3088
 total energy-change (2. order) :-0.2463058E-04  (-0.2579985E-03)
 number of electron      99.0000001 magnetization 
 augmentation part        6.3579100 magnetization 

 Broyden mixing:
  rms(total) = 0.38687E-02    rms(broyden)= 0.38672E-02
  rms(prec ) = 0.39884E-02
  weight for this iteration     100.00

 eigenvalues of (default mixing * dielectric matrix)
  average eigenvalue GAMMA=   2.0663
 11.2736  4.5739  2.7246  2.4151  1.4260  1.4260  0.8856  0.8856  0.9887  0.9887
  0.7989  0.7989  0.6285  0.5903  0.5903

 Free energy of the ion-electron system (eV)
  ---------------------------------------------------
  alpha Z        PSCENC =       138.83486737
  Ewald energy   TEWEN  =      7354.68554903
  -Hartree energ DENC   =    -12795.82862030
  -exchange      EXHF   =         0.00000000
  -V(xc)+E(xc)   XCENC  =      -325.33588705
  PAW double counting   =      6386.78485236    -5717.26318936
  entropy T*S    EENTRO =        -0.00517181
  eigenvalues    EBANDS =       -89.33171577
  atomic energy  EATOM  =      4905.68083858
  ---------------------------------------------------
  free energy    TOTEN  =      -141.77847695 eV

  energy without entropy =     -141.77330514  energy(sigma->0) =     -141.77589105


--------------------------------------------------------------------------------------------------------




----------------------------------------- Iteration    1(  21)  ---------------------------------------


    POTLOK:  cpu time    0.10: real time    0.10
    SETDIJ:  cpu time    0.10: real time    0.10
     EDDAV:  cpu time    4.22: real time    4.23
       DOS:  cpu time    0.00: real time    0.00
    CHARGE:  cpu time    0.34: real time    0.34
    MIXING:  cpu time    0.01: real time    0.01
    --------------------------------------------
      LOOP:  cpu time    4.77: real time    4.77

 eigenvalue-minimisations  :  3040
 total energy-change (2. order) :-0.7452538E-04  (-0.1216644E-03)
 number of electron      99.0000001 magnetization 
 augmentation part        6.3585408 magnetization 

 Broyden mixing:
  rms(total) = 0.40075E-02    rms(broyden)= 0.40066E-02
  rms(prec ) = 0.40955E-02
  weight for this iteration     100.00

 eigenvalues of (default mixing * dielectric matrix)
  average eigenvalue GAMMA=   2.2969
 15.1236  4.6268  2.8605  2.4499  0.8898  0.8898  1.5451  0.8856  0.8856  1.0657
  1.0657  1.1200  1.1200  0.8466  0.7259  0.6491

 Free energy of the ion-electron system (eV)
  ---------------------------------------------------
  alpha Z        PSCENC =       138.83486737
  Ewald energy   TEWEN  =      7354.68554903
  -Hartree energ DENC   =    -12795.54940001
  -exchange      EXHF   =         0.00000000
  -V(xc)+E(xc)   XCENC  =      -325.34302869
  PAW double counting   =      6383.53018077    -5714.00512081
  entropy T*S    EENTRO =        -0.00517352
  eigenvalues    EBANDS =       -89.60726420
  atomic energy  EATOM  =      4905.68083858
  ---------------------------------------------------
  free energy    TOTEN  =      -141.77855148 eV

  energy without entropy =     -141.77337796  energy(sigma->0) =     -141.77596472


--------------------------------------------------------------------------------------------------------




----------------------------------------- Iteration    1(  22)  ---------------------------------------


    POTLOK:  cpu time    0.09: real time    0.09
    SETDIJ:  cpu time    0.09: real time    0.09
     EDDAV:  cpu time    4.24: real time    4.24
       DOS:  cpu time    0.00: real time    0.00
    CHARGE:  cpu time    0.34: real time    0.34
    MIXING:  cpu time    0.01: real time    0.01
    --------------------------------------------
      LOOP:  cpu time    4.77: real time    4.77

 eigenvalue-minimisations  :  3088
 total energy-change (2. order) : 0.2140767E-04  (-0.2406288E-04)
 number of electron      99.0000001 magnetization 
 augmentation part        6.3586911 magnetization 

 Broyden mixing:
  rms(total) = 0.20761E-02    rms(broyden)= 0.20755E-02
  rms(prec ) = 0.21238E-02
  weight for this iteration     100.00

 eigenvalues of (default mixing * dielectric matrix)
  average eigenvalue GAMMA=   2.7532
 22.4365  5.6685  2.8770  2.3456  2.3456  1.1257  1.1257  0.8793  0.8793  1.0538
  1.0538  1.0014  1.0014  0.8118  0.8118  0.7360  0.6504

 Free energy of the ion-electron system (eV)
  ---------------------------------------------------
  alpha Z        PSCENC =       138.83486737
  Ewald energy   TEWEN  =      7354.68554903
  -Hartree energ DENC   =    -12795.55989220
  -exchange      EXHF   =         0.00000000
  -V(xc)+E(xc)   XCENC  =      -325.34275764
  PAW double counting   =      6381.80643799    -5712.28139289
  entropy T*S    EENTRO =        -0.00517306
  eigenvalues    EBANDS =       -89.59700724
  atomic energy  EATOM  =      4905.68083858
  ---------------------------------------------------
  free energy    TOTEN  =      -141.77853007 eV

  energy without entropy =     -141.77335701  energy(sigma->0) =     -141.77594354


--------------------------------------------------------------------------------------------------------




----------------------------------------- Iteration    1(  23)  ---------------------------------------


    POTLOK:  cpu time    0.09: real time    0.09
    SETDIJ:  cpu time    0.09: real time    0.09
     EDDAV:  cpu time    4.10: real time    4.10
       DOS:  cpu time    0.00: real time    0.00
    CHARGE:  cpu time    0.34: real time    0.34
    MIXING:  cpu time    0.01: real time    0.01
    --------------------------------------------
      LOOP:  cpu time    4.63: real time    4.63

 eigenvalue-minimisations  :  2952
 total energy-change (2. order) :-0.1054578E-04  (-0.1408082E-04)
 number of electron      99.0000001 magnetization 
 augmentation part        6.3590624 magnetization 

 Broyden mixing:
  rms(total) = 0.31053E-02    rms(broyden)= 0.31047E-02
  rms(prec ) = 0.31650E-02
  weight for this iteration     100.00

 eigenvalues of (default mixing * dielectric matrix)
  average eigenvalue GAMMA=   2.6474
 21.6788  6.1485  2.8741  2.5054  2.3033  1.0901  1.0901  1.2935  0.8645  0.8645
  0.8876  0.8876  1.0377  0.9563  0.9563  0.8384  0.6492  0.7273

 Free energy of the ion-electron system (eV)
  ---------------------------------------------------
  alpha Z        PSCENC =       138.83486737
  Ewald energy   TEWEN  =      7354.68554903
  -Hartree energ DENC   =    -12795.47559217
  -exchange      EXHF   =         0.00000000
  -V(xc)+E(xc)   XCENC  =      -325.34527207
  PAW double counting   =      6379.92843378    -5710.40199495
  entropy T*S    EENTRO =        -0.00517421
  eigenvalues    EBANDS =       -89.68019598
  atomic energy  EATOM  =      4905.68083858
  ---------------------------------------------------
  free energy    TOTEN  =      -141.77854061 eV

  energy without entropy =     -141.77336640  energy(sigma->0) =     -141.77595351


--------------------------------------------------------------------------------------------------------




----------------------------------------- Iteration    1(  24)  ---------------------------------------


    POTLOK:  cpu time    0.09: real time    0.09
    SETDIJ:  cpu time    0.09: real time    0.09
     EDDAV:  cpu time    3.82: real time    3.82
       DOS:  cpu time    0.00: real time    0.00
    CHARGE:  cpu time    0.34: real time    0.34
    MIXING:  cpu time    0.01: real time    0.01
    --------------------------------------------
      LOOP:  cpu time    4.35: real time    4.35

 eigenvalue-minimisations  :  2680
 total energy-change (2. order) : 0.1178424E-04  (-0.3978894E-05)
 number of electron      99.0000001 magnetization 
 augmentation part        6.3590208 magnetization 

 Broyden mixing:
  rms(total) = 0.20642E-02    rms(broyden)= 0.20642E-02
  rms(prec ) = 0.21030E-02
  weight for this iteration     100.00

 eigenvalues of (default mixing * dielectric matrix)
  average eigenvalue GAMMA=   2.6592
 23.7880  5.9323  2.9072  2.6287  2.2460  1.5408  1.1400  1.1400  0.8162  0.8162
  0.8800  0.8800  0.9958  0.9958  0.8929  0.8929  0.7025  0.7025  0.6275

 Free energy of the ion-electron system (eV)
  ---------------------------------------------------
  alpha Z        PSCENC =       138.83486737
  Ewald energy   TEWEN  =      7354.68554903
  -Hartree energ DENC   =    -12795.47182493
  -exchange      EXHF   =         0.00000000
  -V(xc)+E(xc)   XCENC  =      -325.34458092
  PAW double counting   =      6379.58232842    -5710.05551212
  entropy T*S    EENTRO =        -0.00517387
  eigenvalues    EBANDS =       -89.68502039
  atomic energy  EATOM  =      4905.68083858
  ---------------------------------------------------
  free energy    TOTEN  =      -141.77852883 eV

  energy without entropy =     -141.77335496  energy(sigma->0) =     -141.77594189


--------------------------------------------------------------------------------------------------------




----------------------------------------- Iteration    1(  25)  ---------------------------------------


    POTLOK:  cpu time    0.09: real time    0.09
    SETDIJ:  cpu time    0.09: real time    0.09
     EDDAV:  cpu time    2.87: real time    2.87
       DOS:  cpu time    0.00: real time    0.00
    --------------------------------------------
      LOOP:  cpu time    3.05: real time    3.05

 eigenvalue-minimisations  :  1720
 total energy-change (2. order) : 0.4967927E-05  (-0.1090051E-05)
 number of electron      99.0000001 magnetization 
 augmentation part        6.3590208 magnetization 

 Free energy of the ion-electron system (eV)
  ---------------------------------------------------
  alpha Z        PSCENC =       138.83486737
  Ewald energy   TEWEN  =      7354.68554903
  -Hartree energ DENC   =    -12795.50117193
  -exchange      EXHF   =         0.00000000
  -V(xc)+E(xc)   XCENC  =      -325.34419511
[...]

 k-point    19 :       0.3077    0.2308    0.0000
  band No.  band energies     occupation 
      1     -12.5397      2.00000
      2     -12.5316      2.00000
      3     -11.6797      2.00000
      4     -11.6563      2.00000
      5     -11.6204      2.00000
      6     -11.5785      2.00000
      7     -11.5341      2.00000
      8     -11.4937      2.00000
      9     -11.4632      2.00000
     10     -11.4330      2.00000
     11      -0.4933      2.00000
     12      -0.3174      2.00000
     13      -0.0350      2.00000
     14       0.1941      2.00000
     15       0.2378      2.00000
     16       0.3825      2.00000
     17       0.4295      2.00000
     18       0.5624      2.00000
     19       0.6148      2.00000
     20       0.6899      2.00000
     21       0.7130      2.00000
     22       0.8669      2.00000
     23       1.0347      2.00000
     24       1.1089      2.00000
     25       1.2610      2.00000
     26       1.5840      2.00000
     27       1.7305      2.00000
     28       1.7437      2.00000
     29       1.7557      2.00000
     30       1.8802      2.00000
     31       1.9426      2.00000
     32       2.1206      2.00000
     33       2.1726      2.00000
     34       2.3098      2.00000
     35       2.3588      2.00000
     36       2.5038      2.00000
     37       2.6155      2.00000
     38       2.7873      2.00000
     39       2.8155      2.00000
     40       2.9397      2.00000
     41       3.0419      2.00000
     42       3.1008      2.00000
     43       3.1705      2.00000
     44       3.2140      2.00000
     45       3.2579      2.00000
     46       3.3045      2.00000
     47       3.4170      2.00000
     48       3.8093      2.00000
     49       4.3832      2.00000
     50       4.4351      2.00000
     51       4.7458      2.00000
     52       5.1133      2.00000
     53       5.4801      0.14449
     54       6.0465      0.00000
     55       6.5365      0.00000
     56       7.0757      0.00000
     57       7.7393      0.00000
     58       7.9962      0.00000
     59       8.5125      0.00000
     60       9.3693      0.00000
     61       9.7845      0.00000
     62      10.4953      0.00000
     63      11.2071      0.00000
     64      11.4419      0.00000

 k-point    20 :       0.3846    0.2308    0.0000
  band No.  band energies     occupation 
      1     -12.5041      2.00000
      2     -12.4961      2.00000
      3     -11.5889      2.00000
      4     -11.5711      2.00000
      5     -11.5558      2.00000
      6     -11.5344      2.00000
      7     -11.5111      2.00000
      8     -11.4901      2.00000
      9     -11.4721      2.00000
     10     -11.4507      2.00000
     11       0.0748      2.00000
     12       0.0869      2.00000
     13       0.2434      2.00000
     14       0.2521      2.00000
     15       0.3296      2.00000
     16       0.5112      2.00000
     17       0.7165      2.00000
     18       0.7310      2.00000
     19       0.7766      2.00000
     20       0.8193      2.00000
     21       0.9661      2.00000
     22       1.0029      2.00000
     23       1.1167      2.00000
     24       1.1715      2.00000
     25       1.4971      2.00000
     26       1.5364      2.00000
     27       1.6292      2.00000
     28       1.6445      2.00000
     29       1.7541      2.00000
     30       1.7655      2.00000
     31       1.7813      2.00000
     32       1.8387      2.00000
     33       1.9085      2.00000
     34       2.1171      2.00000
     35       2.1397      2.00000
     36       2.2508      2.00000
     37       2.3980      2.00000
     38       2.4282      2.00000
     39       2.8246      2.00000
     40       2.8342      2.00000
     41       2.8924      2.00000
     42       2.9709      2.00000
     43       3.0826      2.00000
     44       3.1534      2.00000
     45       3.1915      2.00000
     46       3.2834      2.00000
     47       3.2926      2.00000
     48       3.3371      2.00000
     49       4.2277      2.00000
     50       4.2697      2.00000
     51       4.6471      2.00000
     52       4.8325      2.00000
     53       5.2058      2.00000
     54       5.8669      0.00000
     55       6.1226      0.00000
     56       6.8638      0.00000
     57       7.6709      0.00000
     58       8.0824      0.00000
     59       8.6781      0.00000
     60       9.0953      0.00000
     61       9.4532      0.00000
     62      10.2089      0.00000
     63      11.0690      0.00000
     64      11.4097      0.00000

 k-point    21 :       0.3077    0.3077   -0.0000
  band No.  band energies     occupation 
      1     -12.4888      2.00000
      2     -12.4808      2.00000
      3     -11.5560      2.00000
      4     -11.5383      2.00000
      5     -11.5284      2.00000
      6     -11.5124      2.00000
      7     -11.4972      2.00000
      8     -11.4848      2.00000
      9     -11.4712      2.00000
     10     -11.4552      2.00000
     11       0.2104      2.00000
     12       0.2202      2.00000
     13       0.4499      2.00000
     14       0.4597      2.00000
     15       0.6484      2.00000
     16       0.6620      2.00000
     17       0.7633      2.00000
     18       0.7936      2.00000
     19       0.8606      2.00000
     20       0.9579      2.00000
     21       0.9950      2.00000
     22       1.0452      2.00000
     23       1.1586      2.00000
     24       1.2575      2.00000
     25       1.3006      2.00000
     26       1.4210      2.00000
     27       1.4545      2.00000
     28       1.4899      2.00000
     29       1.5322      2.00000
     30       1.6969      2.00000
     31       1.7668      2.00000
     32       1.8831      2.00000
     33       1.9160      2.00000
     34       2.0622      2.00000
     35       2.2413      2.00000
     36       2.5754      2.00000
     37       2.5768      2.00000
     38       2.8117      2.00000
     39       2.8756      2.00000
     40       2.9513      2.00000
     41       3.0208      2.00000
     42       3.0453      2.00000
     43       3.0482      2.00000
     44       3.0879      2.00000
     45       3.1094      2.00000
     46       3.1553      2.00000
     47       3.1780      2.00000
     48       3.2488      2.00000
     49       3.6190      2.00000
     50       3.6346      2.00000
     51       4.0885      2.00000
     52       4.4375      2.00000
     53       4.9974      2.00000
     54       5.6496      0.00000
     55       6.2254      0.00000
     56       6.4640      0.00000
     57       7.4125      0.00000
     58       7.7738      0.00000
     59       8.1971      0.00000
     60       9.3954      0.00000
     61       9.6278      0.00000
     62       9.9413      0.00000
     63      10.7530      0.00000
     64      11.5218      0.00000


--------------------------------------------------------------------------------------------------------


 soft charge-density along one line, spin component           1
         0         1         2         3         4         5         6         7         8         9
 total charge-density along one line
 
 pseudopotential strength for first ion, spin component:           1
 12.048   0.000 -14.648   0.000  -0.000   0.000   0.024   0.000   0.000   0.000   0.000   0.000  -0.030   0.000  -0.000   0.000
-14.648   0.000  17.827   0.000   0.000   0.000  -0.030   0.000  -0.000   0.000  -0.000   0.000   0.038   0.000   0.000   0.000
 -0.000   0.000   0.000   0.000  -8.127   0.000  -0.000   0.000   0.000   0.000   9.691   0.000   0.000   0.000  -0.000   0.000
  0.024   0.000  -0.030   0.000  -0.000   0.000  -8.188   0.000   0.000   0.000   0.000   0.000   9.773   0.000  -0.000   0.000
  0.000   0.000  -0.000   0.000   0.000   0.000   0.000   0.000  -8.127   0.000  -0.000   0.000  -0.000   0.000   9.691   0.000
  0.000   0.000  -0.000   0.000   9.691   0.000   0.000   0.000  -0.000   0.000 -11.385   0.000  -0.000   0.000   0.000   0.000
 -0.030   0.000   0.038   0.000   0.000   0.000   9.773   0.000  -0.000   0.000  -0.000   0.000 -11.494   0.000   0.000   0.000
 -0.000   0.000   0.000   0.000  -0.000   0.000  -0.000   0.000   9.691   0.000   0.000   0.000   0.000   0.000 -11.385   0.000
 total augmentation occupancy for first ion, spin component:           1
  2.653   0.385   0.000  -0.081  -0.000   0.000  -0.033  -0.000
  0.385   0.079   0.000  -0.076  -0.000   0.000  -0.017  -0.000
  0.000   0.000   2.133  -0.000   0.000   0.236  -0.000   0.000
 -0.081  -0.076  -0.000   2.253   0.000  -0.000   0.316   0.000
 -0.000  -0.000   0.000   0.000   2.133   0.000   0.000   0.236
  0.000   0.000   0.236  -0.000   0.000   0.029  -0.000   0.000
 -0.033  -0.017  -0.000   0.316   0.000  -0.000   0.049   0.000
 -0.000  -0.000   0.000   0.000   0.236   0.000   0.000   0.029


------------------------ aborting loop because EDIFF is reached ----------------------------------------


    CHARGE:  cpu time    0.34: real time    0.35
    FORLOC:  cpu time    0.03: real time    0.03
    FORNL :  cpu time    2.77: real time    2.77
    STRESS:  cpu time    3.69: real time    3.69
    FORCOR:  cpu time    0.12: real time    0.12
    FORHAR:  cpu time    0.05: real time    0.05
    MIXING:  cpu time    0.00: real time    0.00
    OFIELD:  cpu time    0.00: real time    0.00

  FORCE on cell =-STRESS in cart. coord.  units (eV):
  Direction    XX          YY          ZZ          XY          YZ          ZX
  --------------------------------------------------------------------------------------
  Alpha Z   138.83487   138.83487   138.83487
  Ewald    9954.46541  9954.46575-12554.87520    -0.00003    -0.00000    -0.00014
  Hartree 11832.59237 11832.59229-10871.78577    -0.00000    -0.00000     0.00005
  E(xc)    -416.07412  -416.07414  -416.73632    -0.00000     0.00000    -0.00000
  Local  -23021.87581-23021.87528 22199.98005    -0.00019    -0.00000     0.00004
  n-local   -59.29128   -74.77046   -53.20796     3.20741    -1.52750     5.06528
  augment    61.46648    61.46623    59.80198     0.00018    -0.00000     0.00000
  Kinetic  1527.26888  1506.34878  1493.16071    -3.68657    -0.68774     0.86450
  Fock        0.00000     0.00000     0.00000     0.00000     0.00000     0.00000
  -------------------------------------------------------------------------------------
  Total      -0.81259    -0.81259    -4.82763     0.00000     0.00000    -0.00000
  in kB      -4.28304    -4.28304   -25.44568     0.00000     0.00000    -0.00000
  external pressure =      -11.34 kB  Pullay stress =        0.00 kB


 VOLUME and BASIS-vectors are now :
 -----------------------------------------------------------------------------
  energy-cutoff  :      520.00
  volume of cell :      303.97
      direct lattice vectors                 reciprocal lattice vectors
     2.600457673 -1.501374484  0.000000000     0.384547693  0.000000000 -0.000000000
     0.000000000  3.002748968  0.000000000     0.192273847  0.333028172 -0.000000000
     0.000000000 -0.000000000 38.927992129     0.000000000  0.000000000  0.025688456

  length of vectors
     3.002749648  3.002748968 38.927992129     0.384547693  0.384547781  0.025688456


 FORCES acting on ions
    electron-ion (+dipol)            ewald-force                    non-local-force                 convergence-correction
 -----------------------------------------------------------------------------------------------
   0.251E-05 -.502E-06 0.107E+04   0.241E-04 -.270E-04 -.106E+04   -.161E-15 0.389E-16 -.974E+01   -.161E-08 0.228E-08 0.355E-01
   0.106E-02 -.184E-02 0.833E+03   0.596E-04 -.102E-03 -.833E+03   -.111E-18 0.419E-18 0.352E-01   -.161E-07 0.278E-07 0.449E-01
   -.283E-08 0.310E-09 0.357E+03   -.250E-07 0.292E-07 -.357E+03   -.171E-18 0.240E-19 -.949E-02   0.206E-09 -.155E-09 0.671E-01
   0.107E-02 -.185E-02 0.119E+03   0.581E-04 -.101E-03 -.119E+03   0.638E-20 0.586E-20 0.213E-02   0.225E-07 -.393E-07 0.360E-01
   0.665E-08 -.102E-08 -.356E+03   -.154E-07 0.151E-07 0.356E+03   0.410E-18 -.437E-19 0.229E-01   -.111E-08 0.162E-08 -.500E-01
   0.107E-02 -.185E-02 -.594E+03   0.583E-04 -.101E-03 0.594E+03   -.221E-18 0.100E-18 -.126E-01   -.137E-07 0.239E-07 -.347E-01
   -.252E-05 0.505E-06 -.107E+04   -.241E-04 0.270E-04 0.106E+04   0.175E-15 -.250E-16 0.975E+01   0.260E-08 -.382E-08 -.432E-01
   -.107E-02 0.185E-02 0.595E+03   -.582E-04 0.101E-03 -.595E+03   -.158E-20 0.544E-19 -.528E-03   -.579E-08 0.996E-08 0.644E-01
   -.107E-02 0.185E-02 -.118E+03   -.581E-04 0.101E-03 0.118E+03   0.420E-18 -.672E-19 0.225E-01   -.731E-08 0.125E-07 -.146E-01
   -.106E-02 0.184E-02 -.833E+03   -.597E-04 0.102E-03 0.834E+03   -.124E-17 0.218E-19 -.509E-01   0.314E-07 -.539E-07 -.341E-01
   -.285E-07 0.314E-07 0.238E+03   0.406E-07 -.453E-07 -.238E+03   -.997E-20 0.142E-20 -.333E-02   0.315E-09 -.750E-09 0.196E-01
   -.307E-07 0.292E-07 0.205E+00   0.476E-07 -.535E-07 -.213E+00   -.547E-19 0.201E-20 -.470E-02   -.701E-09 0.127E-08 0.415E-02
   0.187E-07 0.507E-08 -.238E+03   -.803E-07 0.899E-07 0.238E+03   0.737E-19 -.220E-18 0.652E-02   0.735E-09 -.108E-08 -.133E-01
   0.488E-04 -.819E-04 0.321E+03   -.548E-04 0.907E-04 -.321E+03   0.368E-17 -.697E-17 0.711E-01   -.205E-08 0.370E-08 0.124E-01
   0.439E-04 -.761E-04 0.794E+02   -.495E-04 0.858E-04 -.794E+02   -.295E-19 -.529E-19 -.305E-02   0.129E-08 -.239E-08 0.197E-01
   0.440E-04 -.762E-04 -.158E+03   -.496E-04 0.860E-04 0.158E+03   0.193E-19 0.643E-20 0.804E-03   -.201E-09 0.364E-09 -.143E-01
   -.440E-04 0.761E-04 0.159E+03   0.496E-04 -.859E-04 -.159E+03   -.846E-19 0.144E-20 -.336E-02   -.134E-09 0.209E-09 0.230E-01
   -.440E-04 0.761E-04 -.790E+02   0.496E-04 -.858E-04 0.790E+02   -.135E-19 0.193E-20 -.451E-02   -.274E-08 0.487E-08 -.111E-01
   -.488E-04 0.820E-04 -.321E+03   0.548E-04 -.908E-04 0.321E+03   -.622E-18 -.344E-17 -.629E-01   0.276E-08 -.497E-08 -.136E-01
   0.288E-09 -.388E-09 -.530E+00   0.135E-08 -.136E-08 0.534E+00   0.625E-19 -.118E-20 0.275E-02   0.236E-11 -.749E-12 -.578E-02
   -.682E-06 -.590E-07 0.587E+03   0.312E-05 -.293E-05 -.582E+03   -.968E-16 0.574E-16 -.451E+01   -.359E-10 0.439E-10 0.141E-01
   0.158E-04 -.269E-04 0.380E+03   -.440E-05 0.721E-05 -.380E+03   -.136E-16 -.452E-19 0.106E+00   0.104E-10 -.191E-10 0.686E-02
   -.148E-04 0.256E-04 0.188E+03   0.401E-05 -.687E-05 -.188E+03   -.618E-17 -.705E-17 0.252E+00   -.150E-10 0.288E-10 0.399E-03
   0.683E-06 0.602E-07 -.587E+03   -.313E-05 0.294E-05 0.583E+03   0.830E-16 -.195E-17 0.454E+01   0.490E-10 -.411E-10 -.252E-01
   0.148E-04 -.256E-04 -.189E+03   -.402E-05 0.689E-05 0.189E+03   -.729E-18 0.704E-17 -.243E+00   0.109E-10 -.159E-10 -.128E-01
   -.158E-04 0.269E-04 -.381E+03   0.442E-05 -.724E-05 0.381E+03   0.136E-16 0.278E-16 -.103E+00   -.158E-10 0.930E-11 -.200E-01
 -----------------------------------------------------------------------------------------------
   -.135E-07 0.888E-08 -.135E+00   -.489E-13 0.367E-13 -.739E-12   -.464E-17 0.870E-16 0.700E-01   0.104E-07 -.178E-07 0.554E-01
 
 
 POSITION                                       TOTAL-FORCE (eV/Angst)
 -----------------------------------------------------------------------------------
      0.00000     -0.00000      9.44889        -0.000000      0.000000     -0.006735
      0.86682      1.50138     11.82226         0.000000      0.000000      0.003982
      0.00000     -0.00000     16.76832        -0.000000     -0.000000     -0.002049
      0.86682      1.50138     19.24228         0.000000      0.000000      0.003026
      0.00000     -0.00000     24.18969         0.000000     -0.000000      0.002881
      0.86682      1.50138     26.66189        -0.000000     -0.000000     -0.004928
      0.00000     -0.00000     31.50507        -0.000000      0.000000     -0.016700
      1.73364     -0.00000     14.29494         0.000000     -0.000000      0.000744
      1.73364     -0.00000     21.71637         0.000000      0.000000      0.006703
      1.73364     -0.00000     29.13300        -0.000000      0.000000     -0.014343
      0.00000     -0.00000     13.05904         0.000000     -0.000000      0.004222
      0.00000     -0.00000     20.47983        -0.000000      0.000000     -0.008585
      0.00000     -0.00000     27.89658         0.000000     -0.000000      0.004005
      1.73364     -0.00000     10.58357         0.000000     -0.000000      0.003164
      1.73364     -0.00000     18.00549         0.000000     -0.000000      0.004323
      1.73364     -0.00000     25.42578        -0.000000      0.000000     -0.007392
      0.86682      1.50138     15.53184         0.000000     -0.000000      0.004787
      0.86682      1.50138     22.95361        -0.000000      0.000000     -0.017175
      0.86682      1.50138     30.37030         0.000000     -0.000000      0.008695
      0.00000     -0.00000      1.01068         0.000000     -0.000000      0.001445
      0.00000     -0.00000      7.72309         0.000000     -0.000000      0.013495
      1.73364     -0.00000      5.52508         0.000000     -0.000000      0.001559
      0.86682      1.50138      3.25781         0.000000     -0.000000      0.000064
      0.00000     -0.00000     33.22965         0.000000     -0.000000      0.012003
      1.73364     -0.00000     37.69180         0.000000     -0.000000      0.003011
      0.86682      1.50138     35.42600        -0.000000     -0.000000     -0.000200
 -----------------------------------------------------------------------------------
    total drift:                               -0.000000     -0.000000     -0.009530


--------------------------------------------------------------------------------------------------------



  FREE ENERGIE OF THE ION-ELECTRON SYSTEM (eV)
  ---------------------------------------------------
  free  energy   TOTEN  =      -141.77858864 eV

  energy  without entropy=     -141.77342230  energy(sigma->0) =     -141.77600547
 
 d Force = 0.8010808E-04[-0.718E-04, 0.232E-03]  d Energy = 0.6478091E-04 0.153E-04
 d Force = 0.6181877E+00[ 0.618E+00, 0.619E+00]  d Ewald  = 0.6181877E+00 0.182E-10


--------------------------------------------------------------------------------------------------------


    POTLOK:  cpu time    0.18: real time    0.18


--------------------------------------------------------------------------------------------------------


 Steepest descent step on ions:
 trial-energy change:   -0.000065  1 .order   -0.000080   -0.000232    0.000072
  (g-gl).g = 0.232E-03      g.g   = 0.232E-03  gl.gl    = 0.000E+00
 g(Force)  = 0.232E-03   g(Stress)= 0.000E+00 ortho     = 0.000E+00
 gamma     =   0.00000
 trial     =   1.00000
 opt step  =   0.76368  (harmonic =   0.76368) maximal distance =0.00098692
 next E    =  -141.778612   (d E  =  -0.00009)


--------------------------------------------------------------------------------------------------------


  
 reached required accuracy - stopping structural energy minimisation
     LOOP+:  cpu time   38.75: real time   38.80
    4ORBIT:  cpu time    0.00: real time    0.00

 total amount of memory used by VASP on root node   139306. kBytes
========================================================================

   base      :      30000. kBytes
   nonl-proj :      14758. kBytes
   fftplans  :      50689. kBytes
   grid      :      20321. kBytes
   one-center:         56. kBytes
   wavefun   :      23482. kBytes
 
  
  
 General timing and accounting informations for this job:
 ========================================================
  
                  Total CPU time used (sec):      172.666
                            User time (sec):      170.684
                          System time (sec):        1.982
                         Elapsed time (sec):      172.853
  
                   Maximum memory used (kb):      237248.
                   Average memory used (kb):           0.
  
                          Minor page faults:       105402
                          Major page faults:            0
                 Voluntary context switches:           62
