       N       E                     dE             d eps       ncg     rms          rms(c)
DAV:   1     0.602278874013E+03    0.60228E+03   -0.36290E+04477390   0.116E+03
DAV:   2    -0.258394810795E+02   -0.62812E+03   -0.58668E+03642740   0.235E+02
DAV:   3    -0.129516857180E+03   -0.10368E+03   -0.10272E+03563815   0.986E+01
DAV:   4    -0.132661377303E+03   -0.31445E+01   -0.31359E+01571435   0.198E+01
DAV:   5    -0.132753487106E+03   -0.92110E-01   -0.92044E-01670665   0.315E+00
DAV:   6    -0.132756135042E+03   -0.26479E-02   -0.26456E-02649900   0.491E-01
DAV:   7    -0.132756257028E+03   -0.12199E-03   -0.12185E-03703710   0.895E-02
DAV:   8    -0.132756260128E+03   -0.30997E-05   -0.30958E-05533340   0.134E-02
   1 F= -.13275626E+03 E0= -.13275626E+03  d E =0.000000E+00
