       N       E                     dE             d eps       ncg     rms          rms(c)
DAV:   1     0.498167468525E+03    0.49817E+03   -0.44423E+04  6296   0.135E+03
DAV:   2    -0.101715993239E+03   -0.59988E+03   -0.57188E+03  8120   0.259E+02
DAV:   3    -0.155450715420E+03   -0.53735E+02   -0.53420E+02  7344   0.841E+01
DAV:   4    -0.156119915103E+03   -0.66920E+00   -0.66809E+00  7320   0.102E+01
DAV:   5    -0.156129564350E+03   -0.96492E-02   -0.96465E-02  7464   0.121E+00    0.230E+01
DAV:   6    -0.140674580051E+03    0.15455E+02   -0.88210E+01  7600   0.322E+01    0.789E+00
DAV:   7    -0.140570576186E+03    0.10400E+00   -0.23838E+00  7080   0.628E+00    0.482E+00
DAV:   8    -0.140500648267E+03    0.69928E-01   -0.87140E-01  7392   0.480E+00    0.136E+00
DAV:   9    -0.140461241807E+03    0.39406E-01   -0.15850E-01  7248   0.174E+00    0.661E-01
DAV:  10    -0.140465452791E+03   -0.42110E-02   -0.13498E-01  7192   0.147E+00    0.475E-01
DAV:  11    -0.140461700851E+03    0.37519E-02   -0.13618E-02  7536   0.552E-01    0.295E-01
DAV:  12    -0.140461337047E+03    0.36380E-03   -0.17134E-02  7296   0.568E-01    0.137E-01
DAV:  13    -0.140461149262E+03    0.18778E-03   -0.16662E-03  7720   0.227E-01    0.758E-02
DAV:  14    -0.140461048773E+03    0.10049E-03   -0.82754E-04  7584   0.141E-01    0.223E-02
DAV:  15    -0.140460990267E+03    0.58506E-04   -0.13278E-04  7520   0.757E-02    0.110E-02
DAV:  16    -0.140460951771E+03    0.38496E-04   -0.41953E-05  6680   0.599E-02    0.130E-02
DAV:  17    -0.140460930342E+03    0.21429E-04   -0.39763E-05  6704   0.431E-02    0.681E-03
DAV:  18    -0.140460903373E+03    0.26968E-04   -0.24827E-05  5568   0.652E-02    0.104E-02
DAV:  19    -0.140460888455E+03    0.14919E-04   -0.28630E-05  6144   0.543E-02    0.100E-02
DAV:  20    -0.140460876189E+03    0.12266E-04   -0.40403E-05  6328   0.646E-02    0.530E-03
DAV:  21    -0.140460867507E+03    0.86825E-05   -0.10376E-05  4576   0.548E-02
   1 F= -.14046087E+03 E0= -.14045861E+03  d E =-.140461E+03
       N       E                     dE             d eps       ncg     rms          rms(c)
DAV:   1    -0.140462176094E+03   -0.12999E-02   -0.27287E-02  6568   0.701E-01    0.422E-02
DAV:   2    -0.140462183983E+03   -0.78893E-05   -0.16650E-03  7368   0.171E-01    0.392E-02
DAV:   3    -0.140462152897E+03    0.31086E-04   -0.16992E-04  7240   0.524E-02    0.307E-02
DAV:   4    -0.140462130233E+03    0.22663E-04   -0.52945E-05  6960   0.318E-02    0.167E-02
DAV:   5    -0.140462099059E+03    0.31174E-04   -0.43382E-05  6928   0.398E-02    0.732E-03
DAV:   6    -0.140462086108E+03    0.12951E-04   -0.18092E-05  5384   0.300E-02    0.604E-03
DAV:   7    -0.140462076753E+03    0.93551E-05   -0.10311E-05  4744   0.267E-02
   2 F= -.14046208E+03 E0= -.14045974E+03  d E =-.120925E-02
       N       E                     dE             d eps       ncg     rms          rms(c)
DAV:   1    -0.140462097977E+03   -0.11869E-04   -0.50892E-02  6480   0.955E-01    0.560E-02
DAV:   2    -0.140462107245E+03   -0.92675E-05   -0.30442E-03  7368   0.225E-01    0.528E-02
DAV:   3    -0.140462039755E+03    0.67490E-04   -0.28401E-04  7232   0.683E-02    0.403E-02
DAV:   4    -0.140461986806E+03    0.52949E-04   -0.11770E-04  7240   0.490E-02    0.204E-02
DAV:   5    -0.140461918745E+03    0.68061E-04   -0.70773E-05  7168   0.555E-02    0.999E-03
DAV:   6    -0.140461878152E+03    0.40593E-04   -0.34111E-05  6728   0.487E-02    0.742E-03
DAV:   7    -0.140461851659E+03    0.26493E-04   -0.17842E-05  5472   0.437E-02    0.665E-03
DAV:   8    -0.140461777580E+03    0.74079E-04   -0.45338E-05  6736   0.128E-01    0.900E-03
DAV:   9    -0.140461751893E+03    0.25688E-04   -0.64382E-05  7168   0.733E-02    0.875E-03
DAV:  10    -0.140461736556E+03    0.15336E-04   -0.37001E-05  6384   0.609E-02    0.755E-03
DAV:  11    -0.140461713633E+03    0.22924E-04   -0.18038E-05  5552   0.106E-01    0.364E-03
DAV:  12    -0.140461709901E+03    0.37319E-05   -0.42825E-05  6392   0.712E-02
   3 F= -.14046171E+03 E0= -.14045924E+03  d E =-.842394E-03
       N       E                     dE             d eps       ncg     rms          rms(c)
DAV:   1    -0.140462240779E+03   -0.52715E-03   -0.18188E-02  6696   0.572E-01    0.348E-02
DAV:   2    -0.140462251282E+03   -0.10503E-04   -0.11492E-03  7360   0.142E-01    0.327E-02
DAV:   3    -0.140462229733E+03    0.21549E-04   -0.10197E-04  7088   0.410E-02    0.253E-02
DAV:   4    -0.140462212338E+03    0.17396E-04   -0.45771E-05  6672   0.297E-02    0.123E-02
DAV:   5    -0.140462194063E+03    0.18275E-04   -0.37343E-05  6704   0.335E-02    0.810E-03
DAV:   6    -0.140462188120E+03    0.59432E-05   -0.12381E-05  5040   0.169E-02
   4 F= -.14046219E+03 E0= -.14045978E+03  d E =-.132061E-02
       N       E                     dE             d eps       ncg     rms          rms(c)
DAV:   1    -0.140462636988E+03   -0.44293E-03   -0.18279E-01  6320   0.189E+00    0.634E-02
DAV:   2    -0.140463080231E+03   -0.44324E-03   -0.50796E-03  7224   0.279E-01    0.393E-02
DAV:   3    -0.140463043657E+03    0.36574E-04   -0.69236E-05  7272   0.434E-02    0.270E-02
DAV:   4    -0.140462999491E+03    0.44166E-04   -0.78004E-05  7200   0.511E-02    0.123E-02
DAV:   5    -0.140462985007E+03    0.14484E-04   -0.20148E-05  5192   0.329E-02    0.965E-03
DAV:   6    -0.140462956130E+03    0.28876E-04   -0.12217E-05  4792   0.580E-02    0.461E-03
DAV:   7    -0.140462941764E+03    0.14366E-04   -0.25617E-05  5480   0.362E-02    0.539E-03
DAV:   8    -0.140462908546E+03    0.33219E-04   -0.34729E-05  6512   0.649E-02    0.162E-02
DAV:   9    -0.140462844336E+03    0.64210E-04   -0.47774E-05  6952   0.168E-01    0.146E-02
DAV:  10    -0.140462824728E+03    0.19608E-04   -0.86280E-05  7616   0.102E-01    0.914E-03
DAV:  11    -0.140462820687E+03    0.40407E-05   -0.73960E-05  7728   0.933E-02
   5 F= -.14046282E+03 E0= -.14046038E+03  d E =-.632567E-03
       N       E                     dE             d eps       ncg     rms          rms(c)
DAV:   1    -0.140462856034E+03   -0.31307E-04   -0.37699E-02  6560   0.857E-01    0.263E-02
DAV:   2    -0.140462946311E+03   -0.90277E-04   -0.99461E-04  7200   0.120E-01    0.184E-02
DAV:   3    -0.140462939628E+03    0.66834E-05   -0.82996E-06  4432   0.148E-02    0.122E-02
DAV:   4    -0.140462933437E+03    0.61905E-05   -0.13045E-05  4712   0.214E-02    0.416E-03
DAV:   5    -0.140462932331E+03    0.11059E-05   -0.52013E-06  4208   0.123E-02    0.272E-03
DAV:   6    -0.140462929835E+03    0.24959E-05   -0.98031E-07  4208   0.157E-02
   6 F= -.14046293E+03 E0= -.14046047E+03  d E =-.741715E-03
       N       E                     dE             d eps       ncg     rms          rms(c)
DAV:   1    -0.140463327941E+03   -0.39561E-03   -0.32719E-01  6528   0.236E+00    0.793E-02
DAV:   2    -0.140464034817E+03   -0.70688E-03   -0.84332E-03  7216   0.327E-01    0.459E-02
DAV:   3    -0.140463986955E+03    0.47862E-04   -0.14684E-04  7456   0.576E-02    0.334E-02
DAV:   4    -0.140463955177E+03    0.31778E-04   -0.91935E-05  7312   0.483E-02    0.140E-02
DAV:   5    -0.140463944991E+03    0.10186E-04   -0.30047E-05  6792   0.286E-02    0.632E-03
DAV:   6    -0.140463943146E+03    0.18451E-05   -0.17442E-05  5576   0.168E-02
   7 F= -.14046394E+03 E0= -.14046150E+03  d E =-.101331E-02
       N       E                     dE             d eps       ncg     rms          rms(c)
DAV:   1    -0.140463375386E+03    0.56961E-03   -0.60716E-01  6520   0.322E+00    0.108E-01
DAV:   2    -0.140464685929E+03   -0.13105E-02   -0.15628E-02  7208   0.446E-01    0.623E-02
DAV:   3    -0.140464594253E+03    0.91676E-04   -0.26330E-04  7464   0.797E-02    0.450E-02
DAV:   4    -0.140464533207E+03    0.61046E-04   -0.16893E-04  7344   0.684E-02    0.185E-02
DAV:   5    -0.140464515244E+03    0.17962E-04   -0.59894E-05  7216   0.439E-02    0.838E-03
DAV:   6    -0.140464512729E+03    0.25156E-05   -0.33674E-05  6656   0.253E-02
   8 F= -.14046451E+03 E0= -.14046209E+03  d E =-.158289E-02
       N       E                     dE             d eps       ncg     rms          rms(c)
DAV:   1    -0.140464972150E+03   -0.45691E-03   -0.25197E-01  6352   0.224E+00    0.663E-02
DAV:   2    -0.140465486317E+03   -0.51417E-03   -0.57173E-03  7184   0.303E-01    0.373E-02
DAV:   3    -0.140465454000E+03    0.32317E-04   -0.48104E-05  7000   0.440E-02    0.252E-02
DAV:   4    -0.140465426743E+03    0.27258E-04   -0.93539E-05  7008   0.724E-02    0.700E-03
DAV:   5    -0.140465428810E+03   -0.20677E-05   -0.51948E-05  6600   0.315E-02    0.944E-03
DAV:   6    -0.140465427798E+03    0.10124E-05   -0.22909E-06  4008   0.656E-03
   9 F= -.14046543E+03 E0= -.14046299E+03  d E =-.915069E-03
       N       E                     dE             d eps       ncg     rms          rms(c)
DAV:   1    -0.140463140421E+03    0.22884E-02   -0.17416E+00  6304   0.589E+00    0.175E-01
DAV:   2    -0.140466704000E+03   -0.35636E-02   -0.39985E-02  7168   0.802E-01    0.101E-01
DAV:   3    -0.140466463653E+03    0.24035E-03   -0.37071E-04  7416   0.120E-01    0.679E-02
DAV:   4    -0.140466242592E+03    0.22106E-03   -0.66055E-04  7560   0.196E-01    0.216E-02
DAV:   5    -0.140466237829E+03    0.47629E-05   -0.36351E-04  7256   0.888E-02    0.268E-02
DAV:   6    -0.140466223073E+03    0.14756E-04   -0.34041E-05  5952   0.254E-02    0.203E-02
DAV:   7    -0.140466173808E+03    0.49265E-04   -0.38977E-05  6488   0.440E-02    0.105E-02
DAV:   8    -0.140466129863E+03    0.43945E-04   -0.16052E-05  4832   0.566E-02    0.109E-02
DAV:   9    -0.140466055791E+03    0.74072E-04   -0.72979E-05  8416   0.134E-01    0.131E-02
DAV:  10    -0.140466005628E+03    0.50163E-04   -0.82795E-05  8136   0.123E-01    0.185E-02
DAV:  11    -0.140465937286E+03    0.68342E-04   -0.12896E-04  9096   0.205E-01    0.180E-02
DAV:  12    -0.140465935286E+03    0.20004E-05   -0.19739E-04  7040   0.935E-02    0.265E-02
DAV:  13    -0.140465925142E+03    0.10144E-04   -0.63435E-05  6512   0.405E-02    0.203E-02
DAV:  14    -0.140465920133E+03    0.50083E-05   -0.13994E-05  4392   0.200E-02
  10 F= -.14046592E+03 E0= -.14046342E+03  d E =-.140740E-02
       N       E                     dE             d eps       ncg     rms          rms(c)
DAV:   1    -0.140465790066E+03    0.13508E-03   -0.15798E-01  6392   0.177E+00    0.513E-02
DAV:   2    -0.140466106999E+03   -0.31693E-03   -0.35714E-03  7176   0.240E-01    0.309E-02
DAV:   3    -0.140466083782E+03    0.23217E-04   -0.29049E-05  6208   0.368E-02    0.211E-02
DAV:   4    -0.140466061764E+03    0.22019E-04   -0.73244E-05  6968   0.680E-02    0.599E-03
DAV:   5    -0.140466063600E+03   -0.18367E-05   -0.45088E-05  6280   0.279E-02    0.911E-03
DAV:   6    -0.140466063126E+03    0.47387E-06   -0.11774E-06  3944   0.456E-03
  11 F= -.14046606E+03 E0= -.14046357E+03  d E =-.155040E-02
       N       E                     dE             d eps       ncg     rms          rms(c)
DAV:   1    -0.140466294640E+03   -0.23104E-03   -0.68734E-02  6328   0.117E+00    0.317E-02
DAV:   2    -0.140466432512E+03   -0.13787E-03   -0.15194E-03  7120   0.159E-01    0.188E-02
DAV:   3    -0.140466423720E+03    0.87923E-05   -0.14374E-05  4792   0.215E-02    0.131E-02
DAV:   4    -0.140466413224E+03    0.10497E-04   -0.13929E-05  4344   0.278E-02    0.443E-03
DAV:   5    -0.140466410910E+03    0.23132E-05   -0.95531E-06  4168   0.207E-02    0.392E-03
DAV:   6    -0.140466408885E+03    0.20258E-05   -0.41597E-06  4160   0.164E-02
  12 F= -.14046641E+03 E0= -.14046391E+03  d E =-.345758E-03
       N       E                     dE             d eps       ncg     rms          rms(c)
DAV:   1    -0.140466036118E+03    0.37479E-03   -0.61843E-01  6328   0.351E+00    0.101E-01
DAV:   2    -0.140467324257E+03   -0.12881E-02   -0.13967E-02  7096   0.481E-01    0.566E-02
DAV:   3    -0.140467257366E+03    0.66891E-04   -0.12396E-04  7424   0.543E-02    0.382E-02
DAV:   4    -0.140467202549E+03    0.54818E-04   -0.18083E-04  7272   0.703E-02    0.137E-02
DAV:   5    -0.140467200864E+03    0.16851E-05   -0.58750E-05  6720   0.386E-02    0.119E-02
DAV:   6    -0.140467195898E+03    0.49656E-05   -0.15998E-05  4640   0.262E-02
  13 F= -.14046720E+03 E0= -.14046468E+03  d E =-.113277E-02
       N       E                     dE             d eps       ncg     rms          rms(c)
DAV:   1    -0.140462887087E+03    0.43138E-02   -0.24752E+00  6336   0.703E+00    0.204E-01
DAV:   2    -0.140468073221E+03   -0.51861E-02   -0.56261E-02  7096   0.963E-01    0.114E-01
DAV:   3    -0.140467805267E+03    0.26795E-03   -0.51668E-04  7376   0.110E-01    0.765E-02
DAV:   4    -0.140467595106E+03    0.21016E-03   -0.66628E-04  7376   0.132E-01    0.275E-02
DAV:   5    -0.140467584888E+03    0.10218E-04   -0.21318E-04  7240   0.776E-02    0.232E-02
DAV:   6    -0.140467565979E+03    0.18908E-04   -0.81393E-05  6832   0.579E-02    0.107E-02
DAV:   7    -0.140467546816E+03    0.19163E-04   -0.93200E-06  4800   0.413E-02    0.710E-03
DAV:   8    -0.140467515345E+03    0.31472E-04   -0.10974E-05  4760   0.629E-02    0.609E-03
DAV:   9    -0.140467491696E+03    0.23648E-04   -0.18716E-05  5096   0.513E-02    0.634E-03
DAV:  10    -0.140467445803E+03    0.45893E-04   -0.16662E-05  5296   0.108E-01    0.591E-03
DAV:  11    -0.140467404170E+03    0.41633E-04   -0.10591E-04  8472   0.178E-01    0.798E-03
DAV:  12    -0.140467405413E+03   -0.12432E-05   -0.11768E-04  7072   0.928E-02    0.919E-03
DAV:  13    -0.140467410783E+03   -0.53697E-05   -0.91268E-05  6680   0.352E-02
  14 F= -.14046741E+03 E0= -.14046489E+03  d E =-.134766E-02
       N       E                     dE             d eps       ncg     rms          rms(c)
DAV:   1    -0.140467054353E+03    0.35106E-03   -0.24013E-01  6392   0.218E+00    0.661E-02
DAV:   2    -0.140467558194E+03   -0.50384E-03   -0.55379E-03  7104   0.300E-01    0.343E-02
DAV:   3    -0.140467532911E+03    0.25284E-04   -0.56925E-05  7392   0.368E-02    0.232E-02
DAV:   4    -0.140467514216E+03    0.18694E-04   -0.63641E-05  7048   0.390E-02    0.910E-03
DAV:   5    -0.140467513132E+03    0.10846E-05   -0.17705E-05  4744   0.240E-02    0.814E-03
DAV:   6    -0.140467511534E+03    0.15978E-05   -0.10657E-05  4304   0.213E-02
  15 F= -.14046751E+03 E0= -.14046500E+03  d E =-.144841E-02
       N       E                     dE             d eps       ncg     rms          rms(c)
DAV:   1    -0.140467768952E+03   -0.25582E-03   -0.16470E-01  6312   0.182E+00    0.543E-02
DAV:   2    -0.140468132363E+03   -0.36341E-03   -0.40734E-03  7208   0.254E-01    0.306E-02
DAV:   3    -0.140468114158E+03    0.18205E-04   -0.58917E-05  7416   0.353E-02    0.220E-02
DAV:   4    -0.140468102592E+03    0.11566E-04   -0.27093E-05  5584   0.255E-02    0.966E-03
DAV:   5    -0.140468099476E+03    0.31157E-05   -0.11789E-05  4688   0.201E-02    0.514E-03
DAV:   6    -0.140468099274E+03    0.20274E-06   -0.84531E-06  4112   0.162E-02
  16 F= -.14046810E+03 E0= -.14046559E+03  d E =-.587740E-03
       N       E                     dE             d eps       ncg     rms          rms(c)
DAV:   1    -0.140465981300E+03    0.21182E-02   -0.14823E+00  6288   0.545E+00    0.165E-01
DAV:   2    -0.140469303722E+03   -0.33224E-02   -0.37033E-02  7208   0.760E-01    0.922E-02
DAV:   3    -0.140469132663E+03    0.17106E-03   -0.47632E-04  7488   0.102E-01    0.650E-02
DAV:   4    -0.140469028577E+03    0.10409E-03   -0.27106E-04  7320   0.796E-02    0.272E-02
DAV:   5    -0.140469005076E+03    0.23501E-04   -0.98311E-05  7424   0.526E-02    0.135E-02
DAV:   6    -0.140469002542E+03    0.25338E-05   -0.60534E-05  7168   0.376E-02
  17 F= -.14046900E+03 E0= -.14046652E+03  d E =-.149101E-02
       N       E                     dE             d eps       ncg     rms          rms(c)
DAV:   1    -0.140469343426E+03   -0.33835E-03   -0.10498E-01  6352   0.144E+00    0.465E-02
DAV:   2    -0.140469562419E+03   -0.21899E-03   -0.25261E-03  7192   0.207E-01    0.250E-02
DAV:   3    -0.140469547874E+03    0.14545E-04   -0.39242E-05  6808   0.322E-02    0.182E-02
DAV:   4    -0.140469536742E+03    0.11132E-04   -0.38900E-05  6600   0.313E-02    0.754E-03
DAV:   5    -0.140469533041E+03    0.37010E-05   -0.85884E-06  4384   0.204E-02    0.600E-03
DAV:   6    -0.140469530560E+03    0.24809E-05   -0.95556E-06  4648   0.201E-02
  18 F= -.14046953E+03 E0= -.14046704E+03  d E =-.528018E-03
       N       E                     dE             d eps       ncg     rms          rms(c)
DAV:   1    -0.140468868764E+03    0.66428E-03   -0.63395E-01  6304   0.355E+00    0.105E-01
DAV:   2    -0.140470186927E+03   -0.13182E-02   -0.14915E-02  7160   0.503E-01    0.642E-02
DAV:   3    -0.140470101869E+03    0.85058E-04   -0.20944E-04  7456   0.733E-02    0.466E-02
DAV:   4    -0.140470037151E+03    0.64718E-04   -0.26779E-04  7112   0.790E-02    0.191E-02
DAV:   5    -0.140470026709E+03    0.10442E-04   -0.59391E-05  7008   0.458E-02    0.170E-02
DAV:   6    -0.140470020239E+03    0.64701E-05   -0.66764E-05  6600   0.470E-02
  19 F= -.14047002E+03 E0= -.14046753E+03  d E =-.101770E-02
       N       E                     dE             d eps       ncg     rms          rms(c)
DAV:   1    -0.140470205919E+03   -0.17921E-03   -0.88428E-02  6280   0.130E+00    0.384E-02
DAV:   2    -0.140470382290E+03   -0.17637E-03   -0.18795E-03  7024   0.175E-01    0.207E-02
DAV:   3    -0.140470373736E+03    0.85536E-05   -0.17039E-05  5016   0.203E-02    0.138E-02
DAV:   4    -0.140470369222E+03    0.45143E-05   -0.31088E-05  6200   0.305E-02    0.469E-03
DAV:   5    -0.140470369517E+03   -0.29457E-06   -0.84730E-06  3752   0.122E-02    0.489E-03
DAV:   6    -0.140470369319E+03    0.19751E-06   -0.11059E-06  3624   0.520E-03
  20 F= -.14047037E+03 E0= -.14046788E+03  d E =-.349080E-03
       N       E                     dE             d eps       ncg     rms          rms(c)
DAV:   1    -0.140469724786E+03    0.64473E-03   -0.79559E-01  6280   0.389E+00    0.110E-01
DAV:   2    -0.140471303905E+03   -0.15791E-02   -0.16848E-02  7104   0.523E-01    0.622E-02
DAV:   3    -0.140471222690E+03    0.81215E-04   -0.14590E-04  7520   0.614E-02    0.427E-02
DAV:   4    -0.140471165299E+03    0.57392E-04   -0.31700E-04  7432   0.112E-01    0.148E-02
DAV:   5    -0.140471172192E+03   -0.68940E-05   -0.12689E-04  6872   0.453E-02    0.206E-02
DAV:   6    -0.140471169323E+03    0.28695E-05   -0.42821E-06  4056   0.960E-03
  21 F= -.14047117E+03 E0= -.14046867E+03  d E =-.114908E-02
       N       E                     dE             d eps       ncg     rms          rms(c)
DAV:   1    -0.140465777964E+03    0.53942E-02   -0.31838E+00  6280   0.779E+00    0.222E-01
DAV:   2    -0.140472141371E+03   -0.63634E-02   -0.68167E-02  7136   0.105E+00    0.126E-01
DAV:   3    -0.140471807136E+03    0.33423E-03   -0.61610E-04  7544   0.126E-01    0.862E-02
DAV:   4    -0.140471563928E+03    0.24321E-03   -0.12784E-03  7440   0.225E-01    0.314E-02
DAV:   5    -0.140471588181E+03   -0.24253E-04   -0.51458E-04  7176   0.927E-02    0.423E-02
DAV:   6    -0.140471573036E+03    0.15145E-04   -0.27182E-05  5400   0.236E-02    0.320E-02
DAV:   7    -0.140471549509E+03    0.23527E-04   -0.86235E-05  7000   0.392E-02    0.130E-02
DAV:   8    -0.140471543517E+03    0.59919E-05   -0.55757E-05  6768   0.402E-02
  22 F= -.14047154E+03 E0= -.14046903E+03  d E =-.152328E-02
       N       E                     dE             d eps       ncg     rms          rms(c)
DAV:   1    -0.140471222200E+03    0.32731E-03   -0.57950E-01  6368   0.338E+00    0.999E-02
DAV:   2    -0.140472460153E+03   -0.12380E-02   -0.13510E-02  7128   0.477E-01    0.574E-02
DAV:   3    -0.140472398292E+03    0.61861E-04   -0.16394E-04  7408   0.594E-02    0.417E-02
DAV:   4    -0.140472358012E+03    0.40280E-04   -0.21232E-04  7120   0.723E-02    0.166E-02
DAV:   5    -0.140472356676E+03    0.13353E-05   -0.52170E-05  6432   0.334E-02    0.175E-02
DAV:   6    -0.140472353085E+03    0.35910E-05   -0.23402E-05  5096   0.254E-02
  23 F= -.14047235E+03 E0= -.14046984E+03  d E =-.809569E-03
       N       E                     dE             d eps       ncg     rms          rms(c)
DAV:   1    -0.140471733799E+03    0.62288E-03   -0.44260E-01  6384   0.296E+00    0.891E-02
DAV:   2    -0.140472687626E+03   -0.95383E-03   -0.10385E-02  7104   0.418E-01    0.510E-02
DAV:   3    -0.140472637209E+03    0.50417E-04   -0.12337E-04  7368   0.533E-02    0.368E-02
DAV:   4    -0.140472605760E+03    0.31449E-04   -0.18678E-04  7072   0.685E-02    0.148E-02
DAV:   5    -0.140472603481E+03    0.22797E-05   -0.39524E-05  6096   0.301E-02    0.145E-02
DAV:   6    -0.140472600324E+03    0.31570E-05   -0.21509E-05  5048   0.236E-02
  24 F= -.14047260E+03 E0= -.14047009E+03  d E =-.105681E-02
       N       E                     dE             d eps       ncg     rms          rms(c)
DAV:   1    -0.140472739399E+03   -0.13592E-03   -0.18122E-01  6560   0.189E+00    0.554E-02
DAV:   2    -0.140473081017E+03   -0.34162E-03   -0.41054E-03  7216   0.265E-01    0.342E-02
DAV:   3    -0.140473044617E+03    0.36400E-04   -0.59443E-05  7256   0.425E-02    0.244E-02
DAV:   4    -0.140473015138E+03    0.29479E-04   -0.63366E-05  6936   0.462E-02    0.101E-02
DAV:   5    -0.140473003198E+03    0.11940E-04   -0.25840E-05  5576   0.324E-02    0.617E-03
DAV:   6    -0.140472995263E+03    0.79346E-05   -0.14870E-05  4672   0.282E-02
  25 F= -.14047300E+03 E0= -.14047048E+03  d E =-.394940E-03
       N       E                     dE             d eps       ncg     rms          rms(c)
DAV:   1    -0.140472933007E+03    0.70191E-04   -0.74200E-02  6616   0.121E+00    0.338E-02
DAV:   2    -0.140473065188E+03   -0.13218E-03   -0.16476E-03  7248   0.168E-01    0.228E-02
DAV:   3    -0.140473045155E+03    0.20033E-04   -0.19651E-05  5168   0.274E-02    0.160E-02
DAV:   4    -0.140473022432E+03    0.22722E-04   -0.34975E-05  6384   0.386E-02    0.636E-03
DAV:   5    -0.140473013454E+03    0.89787E-05   -0.16574E-05  4648   0.273E-02    0.395E-03
DAV:   6    -0.140472996452E+03    0.17001E-04   -0.15690E-05  5232   0.475E-02    0.728E-03
DAV:   7    -0.140472988115E+03    0.83369E-05   -0.13667E-05  4648   0.285E-02
  26 F= -.14047299E+03 E0= -.14047047E+03  d E =-.387792E-03
       N       E                     dE             d eps       ncg     rms          rms(c)
DAV:   1    -0.140472986202E+03    0.10250E-04   -0.37715E-03  6648   0.273E-01    0.992E-03
DAV:   2    -0.140472991590E+03   -0.53872E-05   -0.10117E-04  7072   0.434E-02    0.653E-03
DAV:   3    -0.140472989518E+03    0.20714E-05   -0.28937E-06  4104   0.115E-02    0.497E-03
DAV:   4    -0.140472985791E+03    0.37274E-05   -0.23942E-06  4152   0.178E-02    0.230E-03
DAV:   5    -0.140472982632E+03    0.31584E-05   -0.34118E-06  4288   0.205E-02    0.373E-03
DAV:   6    -0.140472980244E+03    0.23884E-05   -0.27627E-06  4112   0.163E-02
  27 F= -.14047298E+03 E0= -.14047046E+03  d E =-.379920E-03
       N       E                     dE             d eps       ncg     rms          rms(c)
DAV:   1    -0.140472959341E+03    0.23292E-04   -0.87463E-03  7104   0.418E-01    0.136E-02
DAV:   2    -0.140472980711E+03   -0.21370E-04   -0.24701E-04  7232   0.644E-02    0.101E-02
DAV:   3    -0.140472978581E+03    0.21297E-05   -0.44916E-06  4080   0.112E-02    0.652E-03
DAV:   4    -0.140472977217E+03    0.13638E-05   -0.56391E-06  4064   0.106E-02    0.223E-03
DAV:   5    -0.140472976995E+03    0.22190E-06   -0.12114E-06  3776   0.600E-03    0.154E-03
DAV:   6    -0.140472976659E+03    0.33653E-06   -0.39284E-07  3976   0.822E-03
  28 F= -.14047298E+03 E0= -.14047046E+03  d E =-.376335E-03
       N       E                     dE             d eps       ncg     rms          rms(c)
DAV:   1    -0.140473106858E+03   -0.12986E-03   -0.17428E-02  6656   0.590E-01    0.191E-02
DAV:   2    -0.140473140989E+03   -0.34131E-04   -0.45956E-04  7328   0.914E-02    0.141E-02
DAV:   3    -0.140473136447E+03    0.45421E-05   -0.10433E-05  4296   0.177E-02    0.107E-02
DAV:   4    -0.140473131424E+03    0.50225E-05   -0.17863E-05  4696   0.242E-02    0.438E-03
DAV:   5    -0.140473130448E+03    0.97577E-06   -0.80005E-06  4120   0.147E-02    0.571E-03
DAV:   6    -0.140473129904E+03    0.54394E-06   -0.19112E-06  3872   0.681E-03
  29 F= -.14047313E+03 E0= -.14047061E+03  d E =-.153246E-03
