 vasp.5.3.5 31Mar14 (build Apr 08 2024 10:12:10) complex                        
  
 executed on             LinuxIFC date 2024.07.29  14:46:15
 running on    8 total cores
 distrk:  each k-point on    8 cores,    1 groups
 distr:  one band on NCORES_PER_BAND=   4 cores,    2 groups


--------------------------------------------------------------------------------------------------------


 INCAR:
 POTCAR:    PAW_PBE O 08Apr2002                   
 POTCAR:    PAW_PBE Mg 13Apr2007                  
 POTCAR:    PAW_PBE Al 04Jan2001                  
 POTCAR:    PAW_PBE O 08Apr2002                   
   VRHFIN =O: s2p4                                                              
   LEXCH  = PE                                                                  
   EATOM  =   432.3788 eV,   31.7789 Ry                                         
                                                                                
   TITEL  = PAW_PBE O 08Apr2002                                                 
   LULTRA =        F    use ultrasoft PP ?                                      
   IUNSCR =        1    unscreen: 0-lin 1-nonlin 2-no                           
   RPACOR =    1.200    partial core radius                                     
   POMASS =   16.000; ZVAL   =    6.000    mass and valenz                      
   RCORE  =    1.520    outmost cutoff radius                                   
   RWIGS  =    1.550; RWIGS  =    0.820    wigner-seitz radius (au A)           
   ENMAX  =  400.000; ENMIN  =  300.000 eV                                      
   ICORE  =        2    local potential                                         
   LCOR   =        T    correct aug charges                                     
   LPAW   =        T    paw PP                                                  
   EAUG   =  605.392                                                            
   DEXC   =    0.000                                                            
   RMAX   =    1.553    core radius for proj-oper                               
   RAUG   =    1.300    factor for augmentation sphere                          
   RDEP   =    1.550    radius for radial grids                                 
   RDEPT  =    1.329    core radius for aug-charge                              
                                                                                
   Atomic configuration                                                         
    4 entries                                                                   
     n  l   j            E        occ.                                          
     1  0  0.50      -514.6923   2.0000                                         
     2  0  0.50       -23.9615   2.0000                                         
     2  1  0.50        -9.0305   4.0000                                         
     3  2  1.50        -9.5241   0.0000                                         
   Description                                                                  
     l       E           TYP  RCUT    TYP  RCUT                                 
     0    -23.9615318     23  1.200                                             
     0     -9.5240782     23  1.200                                             
     1     -9.0304911     23  1.520                                             
     1      8.1634956     23  1.520                                             
     2     -9.5240782      7  1.500                                             
  local pseudopotential read in
  partial core-charges read in
  partial kinetic energy density read in
  kinetic energy density of atom read in
  atomic valenz-charges read in
  non local Contribution for L=           0  read in
    real space projection operators read in
  non local Contribution for L=           0  read in
    real space projection operators read in
  non local Contribution for L=           1  read in
    real space projection operators read in
  non local Contribution for L=           1  read in
    real space projection operators read in
    PAW grid and wavefunctions read in
 
   number of l-projection  operators is LMAX  =           4
   number of lm-projection operators is LMMAX =           8
 
 POTCAR:    PAW_PBE Mg 13Apr2007                  
   VRHFIN =Mg: s2p0                                                             
   LEXCH  = PE                                                                  
   EATOM  =    23.0369 eV,    1.6932 Ry                                         
                                                                                
   TITEL  = PAW_PBE Mg 13Apr2007                                                
   LULTRA =        F    use ultrasoft PP ?                                      
   IUNSCR =        1    unscreen: 0-lin 1-nonlin 2-no                           
   RPACOR =    1.500    partial core radius                                     
   POMASS =   24.305; ZVAL   =    2.000    mass and valenz                      
   RCORE  =    2.000    outmost cutoff radius                                   
   RWIGS  =    2.880; RWIGS  =    1.524    wigner-seitz radius (au A)           
   ENMAX  =  200.000; ENMIN  =  100.000 eV                                      
   RCLOC  =    1.506    cutoff for local pot                                    
   LCOR   =        T    correct aug charges                                     
   LPAW   =        T    paw PP                                                  
   EAUG   =  454.734                                                            
   DEXC   =    0.000                                                            
   RMAX   =    2.045    core radius for proj-oper                               
   RAUG   =    1.300    factor for augmentation sphere                          
   RDEP   =    2.025    radius for radial grids                                 
   RDEPT  =    1.942    core radius for aug-charge                              
                                                                                
   Atomic configuration                                                         
    6 entries                                                                   
     n  l   j            E        occ.                                          
     1  0  0.50     -1259.6230   2.0000                                         
     2  0  0.50       -79.8442   2.0000                                         
     2  1  1.50       -46.6121   6.0000                                         
     3  0  0.50        -4.7055   2.0000                                         
     3  1  0.50        -1.3660   0.0000                                         
     3  2  1.50        -1.3606   0.0000                                         
   Description                                                                  
     l       E           TYP  RCUT    TYP  RCUT                                 
     0     -4.7054661     23  2.000                                             
     0     27.2116520     23  2.000                                             
     1      1.3605826     23  2.000                                             
     1     27.2116520     23  2.000                                             
     2     -1.3605826     23  2.000                                             
  local pseudopotential read in
  partial core-charges read in
  partial kinetic energy density read in
  atomic valenz-charges read in
  non local Contribution for L=           0  read in
    real space projection operators read in
  non local Contribution for L=           0  read in
    real space projection operators read in
  non local Contribution for L=           1  read in
    real space projection operators read in
  non local Contribution for L=           1  read in
    real space projection operators read in
  non local Contribution for L=           2  read in
    real space projection operators read in
    PAW grid and wavefunctions read in
 
   number of l-projection  operators is LMAX  =           5
   number of lm-projection operators is LMMAX =          13
 
 POTCAR:    PAW_PBE Al 04Jan2001                  
   VRHFIN =Al: s2p1                                                             
   LEXCH  = PE                                                                  
   EATOM  =    53.5387 eV,    3.9350 Ry                                         
                                                                                
   TITEL  = PAW_PBE Al 04Jan2001                                                
   LULTRA =        F    use ultrasoft PP ?                                      
   IUNSCR =        1    unscreen: 0-lin 1-nonlin 2-no                           
   RPACOR =    1.500    partial core radius                                     
   POMASS =   26.981; ZVAL   =    3.000    mass and valenz                      
   RCORE  =    1.900    outmost cutoff radius                                   
   RWIGS  =    2.650; RWIGS  =    1.402    wigner-seitz radius (au A)           
   ENMAX  =  240.300; ENMIN  =  180.225 eV                                      
   ICORE  =        2    local potential                                         
   LCOR   =        T    correct aug charges                                     
   LPAW   =        T    paw PP                                                  
   EAUG   =  291.052                                                            
   DEXC   =    0.000                                                            
   RMAX   =    1.939    core radius for proj-oper                               
   RAUG   =    1.300    factor for augmentation sphere                          
   RDEP   =    1.966    radius for radial grids                                 
   RDEPT  =    1.856    core radius for aug-charge                              
                                                                                
   Atomic configuration                                                         
    6 entries                                                                   
     n  l   j            E        occ.                                          
     1  0  0.50     -1511.1048   2.0000                                         
     2  0  0.50      -108.1629   2.0000                                         
     2  1  1.50       -69.6402   6.0000                                         
     3  0  0.50        -7.7528   2.0000                                         
     3  1  1.50        -2.7121   1.0000                                         
     3  2  2.50        -2.7212   0.0000                                         
   Description                                                                  
     l       E           TYP  RCUT    TYP  RCUT                                 
     0     -7.7528455     23  1.900                                             
     0     -3.3096929     23  1.900                                             
     1     -2.7120682     23  1.900                                             
     1     13.6058260     23  1.900                                             
     2     -2.7211652      7  1.900                                             
  local pseudopotential read in
  partial core-charges read in
  partial kinetic energy density read in
  atomic valenz-charges read in
  non local Contribution for L=           0  read in
    real space projection operators read in
  non local Contribution for L=           0  read in
    real space projection operators read in
  non local Contribution for L=           1  read in
    real space projection operators read in
  non local Contribution for L=           1  read in
    real space projection operators read in
    PAW grid and wavefunctions read in
 
   number of l-projection  operators is LMAX  =           4
   number of lm-projection operators is LMMAX =           8
 

 ----------------------------------------------------------------------------- 
|                                                                             |
|  ADVICE TO THIS USER RUNNING 'VASP/VAMP'   (HEAR YOUR MASTER'S VOICE ...):  |
|                                                                             |
|      You have a (more or less) 'large supercell' and for larger cells       |
|      it might be more efficient to use real space projection opertators     |
|      So try LREAL= Auto  in the INCAR   file.                               |
|      Mind: At the moment your POTCAR file does not contain real space       |
|       projectors, and has to be modified,  BUT if you                       |
|      want to do an extremely  accurate calculation you might also keep the  |
|      reciprocal projection scheme          (i.e. LREAL=.FALSE.)             |
|                                                                             |
 ----------------------------------------------------------------------------- 

  PAW_PBE O 08Apr2002                   :
 energy of atom  1       EATOM= -432.3788
 kinetic energy error for atom=    0.0208 (will be added to EATOM!!)
  PAW_PBE Mg 13Apr2007                  :
 energy of atom  2       EATOM=  -23.0369
 kinetic energy error for atom=    0.0000 (will be added to EATOM!!)
  PAW_PBE Al 04Jan2001                  :
 energy of atom  3       EATOM=  -53.5387
 kinetic energy error for atom=    0.0002 (will be added to EATOM!!)
 
 
 POSCAR: OT hollow                               
  positions in direct lattice
  velocities in cartesian coordinates
 exchange correlation table for  LEXCH =        8
   RHO(1)=    0.500       N(1)  =     2000
   RHO(2)=  100.500       N(2)  =     4000
 


--------------------------------------------------------------------------------------------------------


 ion  position               nearest neighbor table
   1  0.507  0.493  0.246-  21 2.10  21 2.10  14 2.10  14 2.15  14 2.15
   2  0.507  0.493  0.433-  16 2.13  16 2.13  15 2.13  15 2.13  15 2.17  16 2.17
   3  0.493  0.507  0.619-  17 2.13  17 2.13  18 2.13  18 2.13  18 2.17  17 2.17
   4  0.493  0.507  0.806-  24 2.10  24 2.10  19 2.10  19 2.15  19 2.15
   5  0.849  0.151  0.308-  14 2.13  14 2.13  11 2.13  11 2.13  11 2.17  14 2.17
   6  0.178  0.822  0.370-  11 2.13  11 2.13  15 2.13  15 2.13  11 2.17  15 2.17
   7  0.836  0.164  0.495-  16 2.13  16 2.13  12 2.13  12 2.13  16 2.17  12 2.17
   8  0.164  0.836  0.557-  17 2.13  17 2.13  12 2.13  12 2.13  17 2.17  12 2.17
   9  0.822  0.178  0.682-  13 2.13  13 2.13  18 2.13  18 2.13  13 2.17  18 2.17
  10  0.151  0.849  0.744-  19 2.13  19 2.13  13 2.13  13 2.13  13 2.17  19 2.17
  11  0.513  0.487  0.339-   6 2.13   6 2.13   5 2.13   5 2.13   6 2.17   5 2.17  14 3.08  14 3.08
                            15 3.08  15 3.08  14 3.08  15 3.08
  12  0.500  0.500  0.526-   8 2.13   8 2.13   7 2.13   7 2.13   7 2.17   8 2.17  17 3.07  17 3.07
                            16 3.07  16 3.07  17 3.08  16 3.08
  13  0.487  0.513  0.713-   9 2.13   9 2.13  10 2.13  10 2.13   9 2.17  10 2.17  19 3.08  19 3.08
                            18 3.08  18 3.08  19 3.08  18 3.08
  14  0.186  0.814  0.277-   1 2.10   5 2.13   5 2.13   1 2.15   1 2.15   5 2.17  21 2.95  11 3.08
                            11 3.08  11 3.08  21 3.51  21 3.51
  15  0.842  0.158  0.402-   6 2.13   6 2.13   2 2.13   2 2.13   2 2.17   6 2.17  11 3.08  11 3.08
                            16 3.08  16 3.08  16 3.08  11 3.08
  16  0.171  0.829  0.464-   2 2.13   2 2.13   7 2.13   7 2.13   7 2.17   2 2.17  12 3.07  12 3.07
                            15 3.08  15 3.08  12 3.08  15 3.08
  17  0.829  0.171  0.588-   8 2.13   8 2.13   3 2.13   3 2.13   8 2.17   3 2.17  12 3.07  12 3.07
                            18 3.08  18 3.08  12 3.08  18 3.08
  18  0.158  0.842  0.650-   9 2.13   9 2.13   3 2.13   3 2.13   3 2.17   9 2.17  13 3.08  13 3.08
                            17 3.08  17 3.08  17 3.08  13 3.08
  19  0.814  0.186  0.775-   4 2.10  10 2.13  10 2.13   4 2.15   4 2.15  10 2.17  24 2.95  13 3.08
                            13 3.08  13 3.08  24 3.51  24 3.51
  20  0.000  1.000  0.026-  25 3.04  23 3.04  25 3.05  25 3.05  23 3.05  23 3.05
  21  0.989  0.011  0.210-   1 2.10   1 2.10  22 2.93  14 2.95  22 3.04  22 3.04  14 3.51  14 3.51

  22  0.686  0.314  0.150-  21 2.93  21 3.04  21 3.04  23 3.05  23 3.05  23 3.18
  23  0.327  0.673  0.087-  20 3.04  20 3.05  20 3.05  22 3.05  22 3.05  22 3.18
  24  0.011  0.989  0.842-   4 2.10   4 2.10  26 2.93  19 2.95  26 3.04  26 3.04  19 3.51  19 3.51

  25  0.673  0.327  0.965-  20 3.04  20 3.05  20 3.05  26 3.05  26 3.05  26 3.18
  26  0.314  0.686  0.902-  24 2.93  24 3.04  24 3.04  25 3.05  25 3.05  25 3.18
 
  LATTYP: Found a base centered monoclinic cell.
 ALAT       =     5.2353752010
 B/A-ratio  =     0.5612349741
 C/A-ratio  =     7.8900679061
 COS(beta)  =    -0.1086788116
  
  Lattice vectors:
  
 A1 = (  -2.5811541393,   1.5324138014,  -0.0027477724)
 A2 = (  -0.0365325771,   3.0015513009,  -0.0027477717)
 A3 = (   2.5954821263,  -4.4955056313, -40.9800028863)


Analysis of symmetry for initial positions (statically):
=====================================================================
 Subroutine PRICEL returns:
 Original cell was already a primitive cell.
 

 Routine SETGRP: Setting up the symmetry group for a 
 base centered monoclinic supercell.


 Subroutine GETGRP returns: Found  2 space group operations
 (whereof  2 operations were pure point group operations)
 out of a pool of  4 trial point group operations.


The static configuration has the point symmetry C_1h.


Analysis of symmetry for dynamics (positions and initial velocities):
=====================================================================
 Subroutine PRICEL returns:
 Original cell was already a primitive cell.
 

 Routine SETGRP: Setting up the symmetry group for a 
 base centered monoclinic supercell.


 Subroutine GETGRP returns: Found  2 space group operations
 (whereof  2 operations were pure point group operations)
 out of a pool of  4 trial point group operations.


The dynamic configuration has the point symmetry C_1h.


Analysis of constrained symmetry for selective dynamics:
=====================================================================
 Subroutine PRICEL returns:
 Original cell was already a primitive cell.
 

 Routine SETGRP: Setting up the symmetry group for a 
 base centered monoclinic supercell.


 Subroutine GETGRP returns: Found  2 space group operations
 (whereof  2 operations were pure point group operations)
 out of a pool of  4 trial point group operations.


The constrained configuration has the point symmetry C_1h.
 
 
 KPOINTS: K-Spacing Value to Generate K-Mesh: 0.02

Automatic generation of k-mesh.
Space group operators:
 irot       det(A)        alpha          n_x          n_y          n_z        tau_x        tau_y        tau_z
    1     1.000000     0.000000     1.000000     0.000000     0.000000     0.000000     0.000000     0.000000
    2    -1.000000   180.000000     0.866025     0.500000     0.000000     0.000000     0.000000     0.000000
 
 Subroutine IBZKPT returns following result:
 ===========================================
 
 Found     49 irreducible k-points:
 
 Following reciprocal coordinates:
            Coordinates               Weight
  0.000000  0.000000  0.000000      1.000000
  0.076923 -0.000000  0.000000      4.000000
  0.153846  0.000000  0.000000      4.000000
  0.230769 -0.000000  0.000000      4.000000
  0.307692 -0.000000  0.000000      4.000000
  0.384615 -0.000000  0.000000      4.000000
  0.461538 -0.000000  0.000000      4.000000
  0.076923  0.076923 -0.000000      2.000000
  0.153846  0.076923 -0.000000      4.000000
  0.230769  0.076923  0.000000      4.000000
  0.307692  0.076923  0.000000      4.000000
  0.384615  0.076923  0.000000      4.000000
  0.461538  0.076923  0.000000      4.000000
 -0.461538  0.076923 -0.000000      4.000000
 -0.384615  0.076923  0.000000      4.000000
 -0.307692  0.076923 -0.000000      4.000000
 -0.230769  0.076923 -0.000000      4.000000
 -0.153846  0.076923 -0.000000      4.000000
 -0.076923  0.076923 -0.000000      2.000000
  0.153846  0.153846 -0.000000      2.000000
  0.230769  0.153846 -0.000000      4.000000
  0.307692  0.153846 -0.000000      4.000000
  0.384615  0.153846 -0.000000      4.000000
  0.461538  0.153846 -0.000000      4.000000
 -0.461538  0.153846 -0.000000      4.000000
 -0.384615  0.153846 -0.000000      4.000000
 -0.307692  0.153846 -0.000000      4.000000
 -0.230769  0.153846 -0.000000      4.000000
 -0.153846  0.153846 -0.000000      2.000000
  0.230769  0.230769  0.000000      2.000000
  0.307692  0.230769 -0.000000      4.000000
  0.384615  0.230769  0.000000      4.000000
  0.461538  0.230769 -0.000000      4.000000
 -0.461538  0.230769 -0.000000      4.000000
 -0.384615  0.230769 -0.000000      4.000000
 -0.307692  0.230769 -0.000000      4.000000
 -0.230769  0.230769 -0.000000      2.000000
  0.307692  0.307692 -0.000000      2.000000
  0.384615  0.307692  0.000000      4.000000
  0.461538  0.307692 -0.000000      4.000000
 -0.461538  0.307692 -0.000000      4.000000
 -0.384615  0.307692 -0.000000      4.000000
 -0.307692  0.307692  0.000000      2.000000
  0.384615  0.384615 -0.000000      2.000000
  0.461538  0.384615 -0.000000      4.000000
 -0.461538  0.384615 -0.000000      4.000000
 -0.384615  0.384615 -0.000000      2.000000
  0.461538  0.461538  0.000000      2.000000
 -0.461538  0.461538 -0.000000      2.000000
 
 Following cartesian coordinates:
            Coordinates               Weight
  0.000000  0.000000  0.000000      1.000000
  0.030019  0.000365 -0.000016      4.000000
  0.060037  0.000731 -0.000032      4.000000
  0.090056  0.001096 -0.000048      4.000000
  0.120075  0.001461 -0.000064      4.000000
  0.150094  0.001827 -0.000080      4.000000
  0.180112  0.002192 -0.000096      4.000000
  0.045345  0.026180  0.000000      2.000000
  0.075363  0.026545 -0.000016      4.000000
  0.105382  0.026910 -0.000032      4.000000
  0.135401  0.027276 -0.000048      4.000000
  0.165419  0.027641 -0.000064      4.000000
  0.195438  0.028006 -0.000080      4.000000
 -0.164787  0.023622  0.000111      4.000000
 -0.134768  0.023988  0.000096      4.000000
 -0.104749  0.024353  0.000080      4.000000
 -0.074730  0.024718  0.000064      4.000000
 -0.044712  0.025084  0.000048      4.000000
 -0.014693  0.025449  0.000032      2.000000
  0.090689  0.052359  0.000000      2.000000
  0.120708  0.052725 -0.000016      4.000000
  0.150726  0.053090 -0.000032      4.000000
  0.180745  0.053455 -0.000048      4.000000
  0.210764  0.053821 -0.000064      4.000000
 -0.149461  0.049437  0.000127      4.000000
 -0.119442  0.049802  0.000111      4.000000
 -0.089423  0.050167  0.000096      4.000000
 -0.059405  0.050533  0.000080      4.000000
 -0.029386  0.050898  0.000064      2.000000
  0.136034  0.078539  0.000000      2.000000
  0.166052  0.078904 -0.000016      4.000000
  0.196071  0.079270 -0.000032      4.000000
  0.226090  0.079635 -0.000048      4.000000
 -0.134135  0.075251  0.000143      4.000000
 -0.104116  0.075616  0.000127      4.000000
 -0.074098  0.075982  0.000111      4.000000
 -0.044079  0.076347  0.000096      2.000000
  0.181378  0.104719  0.000000      2.000000
  0.211397  0.105084 -0.000016      4.000000
  0.241416  0.105449 -0.000032      4.000000
 -0.118809  0.101065  0.000159      4.000000
 -0.088791  0.101431  0.000143      4.000000
 -0.058772  0.101796  0.000127      2.000000
  0.226723  0.130898  0.000000      2.000000
  0.256741  0.131264 -0.000016      4.000000
 -0.103484  0.126880  0.000175      4.000000
 -0.073465  0.127245  0.000159      2.000000
  0.272067  0.157078  0.000000      2.000000
 -0.088158  0.152694  0.000191      2.000000
 


--------------------------------------------------------------------------------------------------------




 Dimension of arrays:
   k-points           NKPTS =     49   k-points in BZ     NKDIM =     49   number of bands    NBANDS=     64
   number of dos      NEDOS =    301   number of ions     NIONS =     26
   non local maximal  LDIM  =      5   non local SUM 2l+1 LMDIM =     13
   total plane-waves  NPLWV = 184320
   max r-space proj   IRMAX =      1   max aug-charges    IRDMAX= 198880
   dimension x,y,z NGX =    24 NGY =   24 NGZ =  320
   dimension x,y,z NGXF=    48 NGYF=   48 NGZF=  640
   support grid    NGXF=    96 NGYF=   96 NGZF= 1280
   ions per type =              10   9   7
 NGX,Y,Z   is equivalent  to a cutoff of  13.29, 13.29, 12.98 a.u.
 NGXF,Y,Z  is equivalent  to a cutoff of  26.58, 26.58, 25.96 a.u.


 I would recommend the setting:
   dimension x,y,z NGX =    22 NGY =   22 NGZ =  305
 SYSTEM =  unknown system                          
 POSCAR =  OT hollow                               

 Startparameter for this run:
   NWRITE =      2    write-flag & timer
   PREC   = accura    normal or accurate (medium, high low for compatibility)
   ISTART =      0    job   : 0-new  1-cont  2-samecut
   ICHARG =      2    charge: 1-file 2-atom 10-const
   ISPIN  =      1    spin polarized calculation?
   LNONCOLLINEAR =      F non collinear calculations
   LSORBIT =      F    spin-orbit coupling
   INIWAV =      1    electr: 0-lowe 1-rand  2-diag
   LASPH  =      F    aspherical Exc in radial PAW
   METAGGA=      F    non-selfconsistent MetaGGA calc.

 Electronic Relaxation 1
   ENCUT  =  520.0 eV  38.22 Ry    6.18 a.u.   5.58  5.58 76.21*2*pi/ulx,y,z
   ENINI  =  520.0     initial cutoff
   ENAUG  =  605.4 eV  augmentation charge cutoff
   NELM   =    100;   NELMIN=  6; NELMDL=  0     # of ELM steps 
   EDIFF  = 0.1E-04   stopping-criterion for ELM
   LREAL  =      F    real-space projection
   NLSPLINE    = F    spline interpolate recip. space projectors
   LCOMPAT=      F    compatible to vasp.4.4
   GGA_COMPAT  = T    GGA compatible to vasp.4.4-vasp.4.6
   LMAXPAW     = -100 max onsite density
   LMAXMIX     =    2 max onsite mixed and CHGCAR
   VOSKOWN=      0    Vosko Wilk Nusair interpolation
   ROPT   =    0.00000   0.00000   0.00000
 Ionic relaxation
   EDIFFG = -.2E-01   stopping-criterion for IOM
   NSW    =    500    number of steps for IOM
   NBLOCK =      1;   KBLOCK =    500    inner block; outer block 
   IBRION =      2    ionic relax: 0-MD 1-quasi-New 2-CG
   NFREE  =      1    steps in history (QN), initial steepest desc. (CG)
   ISIF   =      2    stress and relaxation
   IWAVPR =     11    prediction:  0-non 1-charg 2-wave 3-comb
   ISYM   =      2    0-nonsym 1-usesym 2-fastsym
   LCORR  =      T    Harris-Foulkes like correction to forces

   POTIM  = 0.5000    time-step for ionic-motion
   TEIN   =    0.0    initial temperature
   TEBEG  =    0.0;   TEEND  =   0.0 temperature during run
   SMASS  =  -3.00    Nose mass-parameter (am)
   estimated Nose-frequenzy (Omega)   =  0.10E-29 period in steps =****** mass=  -0.206E-27a.u.
   SCALEE = 1.0000    scale energy and forces
   NPACO  =    256;   APACO  = 16.0  distance and # of slots for P.C.
   PSTRESS=    0.0 pullay stress

  Mass of Ions in am
   POMASS =  16.00 24.30 26.98
  Ionic Valenz
   ZVAL   =   6.00  2.00  3.00
  Atomic Wigner-Seitz radii
   RWIGS  =  -1.00 -1.00 -1.00
  virtual crystal weights 
   VCA    =   1.00  1.00  1.00
   NELECT =      99.0000    total number of electrons
   NUPDOWN=      -1.0000    fix difference up-down

 DOS related values:
   EMIN   =  10.00;   EMAX   =-10.00  energy-range for DOS
   EFERMI =   0.00
   ISMEAR =     0;   SIGMA  =   0.05  broadening in eV -4-tet -1-fermi 0-gaus

 Electronic relaxation 2 (details)
   IALGO  =     38    algorithm
   LDIAG  =      T    sub-space diagonalisation (order eigenvalues)
   LSUBROT=      F    optimize rotation matrix (better conditioning)
   TURBO    =      0    0=normal 1=particle mesh
   IRESTART =      0    0=no restart 2=restart with 2 vectors
   NREBOOT  =      0    no. of reboots
   NMIN     =      0    reboot dimension
   EREF     =   0.00    reference energy to select bands
   IMIX   =      4    mixing-type and parameters
     AMIX     =   0.40;   BMIX     =  1.00
     AMIX_MAG =   1.60;   BMIX_MAG =  1.00
     AMIN     =   0.01
     WC   =   100.;   INIMIX=   1;  MIXPRE=   1;  MAXMIX= -45

 Intra band minimization:
   WEIMIN = 0.0010     energy-eigenvalue tresh-hold
   EBREAK =  0.39E-07  absolut break condition
   DEPER  =   0.30     relativ break condition  

   TIME   =   0.40     timestep for ELM

  volume/ion in A,a.u.               =      12.12        81.82
  Fermi-wavevector in a.u.,A,eV,Ry     =   1.112773  2.102836 16.847604  1.238264
  Thomas-Fermi vector in A             =   2.249351
 
 Write flags
   LWAVE  =      F    write WAVECAR
   LCHARG =      T    write CHGCAR
   LVTOT  =      F    write LOCPOT, total local potential
   LVHAR  =      F    write LOCPOT, Hartree potential only
   LELF   =      F    write electronic localiz. function (ELF)
   LORBIT =      0    0 simple, 1 ext, 2 COOP (PROOUT)


 Dipole corrections
   LMONO  =      F    monopole corrections only (constant potential shift)
   LDIPOL =      F    correct potential (dipole corrections)
   IDIPOL =      0    1-x, 2-y, 3-z, 4-all directions 
   EPSILON=  1.0000000 bulk dielectric constant

 Exchange correlation treatment:
   GGA     =    --    GGA type
   LEXCH   =     8    internal setting for exchange type
   VOSKOWN=      0    Vosko Wilk Nusair interpolation
   LHFCALC =     F    Hartree Fock is set to
   LHFONE  =     F    Hartree Fock one center treatment
   AEXX    =    0.0000 exact exchange contribution

 Linear response parameters
   LEPSILON=     F    determine dielectric tensor
   LRPA    =     F    only Hartree local field effects (RPA)
   LNABLA  =     F    use nabla operator in PAW spheres
   LVEL    =     F    velocity operator in full k-point grid
   LINTERFAST=   F  fast interpolation
   KINTER  =     0    interpolate to denser k-point grid
   CSHIFT  =0.1000    complex shift for real part using Kramers Kronig
   OMEGAMAX=  -1.0    maximum frequency
   DEG_THRESHOLD= 0.2000000E-02 threshold for treating states as degnerate
   RTIME   =    0.100 relaxation time in fs

 Orbital magnetization related:
   ORBITALMAG=     F  switch on orbital magnetization
   LCHIMAG   =     F  perturbation theory with respect to B field
   DQ        =  0.001000  dq finite difference perturbation B field



--------------------------------------------------------------------------------------------------------


 conjugate gradient relaxation of ions
   using selective dynamics as specified on POSCAR
 charge density and potential will be updated during run
 non-spin polarized calculation
 Variant of blocked Davidson
 Davidson routine will perform the subspace rotation
 perform sub-space diagonalisation
    after iterative eigenvector-optimisation
 modified Broyden-mixing scheme, WC =      100.0
 initial mixing is a Kerker type mixing with AMIX =  0.4000 and BMIX =      1.0000
 Hartree-type preconditioning will be used
 using additional bands           14
 reciprocal scheme for non local part
 use partial core corrections
 calculate Harris-corrections to forces 
   (improved forces if not selfconsistent)
 use gradient corrections 
 use of overlap-Matrix (Vanderbilt PP)
 Gauss-broadening in eV      SIGMA  =   0.05


--------------------------------------------------------------------------------------------------------


  energy-cutoff  :      520.00
  volume of cell :      315.24
      direct lattice vectors                 reciprocal lattice vectors
     2.581154139 -1.532413801  0.002747772     0.390243588  0.004749556 -0.000206964
    -0.036532577  3.001551301 -0.002747772     0.199235032  0.335586181  0.000206964
     0.022204590 -0.038459471 40.985498430    -0.000012806  0.000022180  0.024398901

  length of vectors
     3.001775525  3.001774874 40.985522490     0.390272545  0.390272630  0.024398915


 
 k-points in units of 2pi/SCALE and weight: K-Spacing Value to Generate K-Mesh: 0.02
   0.00000000  0.00000000  0.00000000       0.006
   0.03001874  0.00036535 -0.00001592       0.024
   0.06003748  0.00073070 -0.00003184       0.024
   0.09005621  0.00109605 -0.00004776       0.024
   0.12007495  0.00146140 -0.00006368       0.024
   0.15009369  0.00182675 -0.00007960       0.024
   0.18011243  0.00219210 -0.00009552       0.024
   0.04534451  0.02617967  0.00000000       0.012
   0.07536325  0.02654502 -0.00001592       0.024
   0.10538198  0.02691037 -0.00003184       0.024
   0.13540072  0.02727572 -0.00004776       0.024
   0.16541946  0.02764107 -0.00006368       0.024
   0.19543820  0.02800642 -0.00007960       0.024
  -0.16478665  0.02362222  0.00011144       0.024
  -0.13476792  0.02398757  0.00009552       0.024
  -0.10474918  0.02435292  0.00007960       0.024
  -0.07473044  0.02471827  0.00006368       0.024
  -0.04471170  0.02508362  0.00004776       0.024
  -0.01469297  0.02544897  0.00003184       0.012
   0.09068902  0.05235934  0.00000000       0.012
   0.12070776  0.05272469 -0.00001592       0.024
   0.15072649  0.05309004 -0.00003184       0.024
   0.18074523  0.05345540 -0.00004776       0.024
   0.21076397  0.05382075 -0.00006368       0.024
  -0.14946088  0.04943654  0.00012736       0.024
  -0.11944214  0.04980189  0.00011144       0.024
  -0.08942341  0.05016724  0.00009552       0.024
  -0.05940467  0.05053259  0.00007960       0.024
  -0.02938593  0.05089794  0.00006368       0.012
   0.13603353  0.07853902  0.00000000       0.012
   0.16605227  0.07890437 -0.00001592       0.024
   0.19607100  0.07926972 -0.00003184       0.024
   0.22608974  0.07963507 -0.00004776       0.024
  -0.13413511  0.07525086  0.00014328       0.024
  -0.10411637  0.07561621  0.00012736       0.024
  -0.07409764  0.07598156  0.00011144       0.024
  -0.04407890  0.07634691  0.00009552       0.012
   0.18137804  0.10471869  0.00000000       0.012
   0.21139677  0.10508404 -0.00001592       0.024
   0.24141551  0.10544939 -0.00003184       0.024
  -0.11880934  0.10106518  0.00015920       0.024
  -0.08879060  0.10143053  0.00014328       0.024
  -0.05877186  0.10179588  0.00012736       0.012
   0.22672255  0.13089836  0.00000000       0.012
   0.25674128  0.13126371 -0.00001592       0.024
  -0.10348357  0.12687951  0.00017512       0.024
  -0.07346483  0.12724486  0.00015920       0.012
   0.27206706  0.15707803  0.00000000       0.012
  -0.08815780  0.15269383  0.00019104       0.012
 
 k-points in reciprocal lattice and weights: K-Spacing Value to Generate K-Mesh: 0.02
   0.00000000  0.00000000  0.00000000       0.006
   0.07692308 -0.00000000  0.00000000       0.024
   0.15384615  0.00000000  0.00000000       0.024
   0.23076923 -0.00000000  0.00000000       0.024
   0.30769231 -0.00000000  0.00000000       0.024
   0.38461538 -0.00000000  0.00000000       0.024
   0.46153846 -0.00000000  0.00000000       0.024
   0.07692308  0.07692308 -0.00000000       0.012
   0.15384615  0.07692308 -0.00000000       0.024
   0.23076923  0.07692308  0.00000000       0.024
   0.30769231  0.07692308  0.00000000       0.024
   0.38461538  0.07692308  0.00000000       0.024
   0.46153846  0.07692308  0.00000000       0.024
  -0.46153846  0.07692308 -0.00000000       0.024
  -0.38461538  0.07692308  0.00000000       0.024
  -0.30769231  0.07692308 -0.00000000       0.024
  -0.23076923  0.07692308 -0.00000000       0.024
  -0.15384615  0.07692308 -0.00000000       0.024
  -0.07692308  0.07692308 -0.00000000       0.012
   0.15384615  0.15384615 -0.00000000       0.012
   0.23076923  0.15384615 -0.00000000       0.024
   0.30769231  0.15384615 -0.00000000       0.024
   0.38461538  0.15384615 -0.00000000       0.024
   0.46153846  0.15384615 -0.00000000       0.024
  -0.46153846  0.15384615 -0.00000000       0.024
  -0.38461538  0.15384615 -0.00000000       0.024
  -0.30769231  0.15384615 -0.00000000       0.024
  -0.23076923  0.15384615 -0.00000000       0.024
  -0.15384615  0.15384615 -0.00000000       0.012
   0.23076923  0.23076923  0.00000000       0.012
   0.30769231  0.23076923 -0.00000000       0.024
   0.38461538  0.23076923  0.00000000       0.024
   0.46153846  0.23076923 -0.00000000       0.024
  -0.46153846  0.23076923 -0.00000000       0.024
  -0.38461538  0.23076923 -0.00000000       0.024
  -0.30769231  0.23076923 -0.00000000       0.024
  -0.23076923  0.23076923 -0.00000000       0.012
   0.30769231  0.30769231 -0.00000000       0.012
   0.38461538  0.30769231  0.00000000       0.024
   0.46153846  0.30769231 -0.00000000       0.024
  -0.46153846  0.30769231 -0.00000000       0.024
  -0.38461538  0.30769231 -0.00000000       0.024
  -0.30769231  0.30769231  0.00000000       0.012
   0.38461538  0.38461538 -0.00000000       0.012
   0.46153846  0.38461538 -0.00000000       0.024
  -0.46153846  0.38461538 -0.00000000       0.024
  -0.38461538  0.38461538 -0.00000000       0.012
   0.46153846  0.46153846  0.00000000       0.012
  -0.46153846  0.46153846 -0.00000000       0.012
 
 position of ions in fractional coordinates (direct lattice) 
   0.50694042  0.49305958  0.24633390
   0.50679733  0.49320267  0.43272742
   0.49319322  0.50680678  0.61934305
   0.49306834  0.50693166  0.80574606
   0.84914229  0.15085771  0.30824882
   0.17794750  0.82205250  0.37047509
   0.83558310  0.16441690  0.49493098
   0.16440509  0.83559491  0.55713824
   0.82204865  0.17795135  0.68159708
   0.15084986  0.84915014  0.74382755
   0.51348445  0.48651555  0.33936890
   0.49999802  0.50000198  0.52603455
   0.48651211  0.51348789  0.71270636
   0.18561249  0.81438751  0.27718294
   0.84235860  0.15764140  0.40160063
   0.17112186  0.82887814  0.46383458
   0.82887127  0.17112873  0.58823423
   0.15763835  0.84236165  0.65047175
   0.81438655  0.18561345  0.77489435
   0.00001404  0.99998596  0.02603735
   0.98942998  0.01057002  0.20973455
   0.68560078  0.31439922  0.14988378
   0.32704915  0.67295085  0.08730289
   0.01056999  0.98943001  0.84234579
   0.67297389  0.32702611  0.96477327
   0.31440267  0.68559733  0.90219285
 
 position of ions in cartesian coordinates  (Angst):
   1.29594838  0.69362724 10.09615581
   1.29971261  0.68710741 17.73558642
   1.26824502  0.74161086 25.38404640
   1.27205712  0.73500809 33.02386594
   2.19310044 -0.86028528 12.63565046
   0.43750447  2.18049529 15.18233648
   2.16175195 -0.80598810 20.28683712
   0.40619947  2.23471712 22.83274436
   2.13046784 -0.75180245 27.93736568
   0.37486149  2.28899608 30.48422427
   1.31514440  0.66037877 13.90927779
   1.28398598  0.71434672 21.55978802
   1.25282905  0.76831208 29.21055127
   0.45549751  2.14933043 11.35875321
   2.17741572 -0.83311855 16.46168349
   0.42171010  2.20785193 19.00868413
   2.14625423 -0.77914527 24.11088023
   0.39055870  2.26180772 26.65802751
   2.11248250 -0.72065094 31.76115895
  -0.03591767  3.00048626  1.06440616
   2.55814220 -1.49255597  8.59876490
   1.76148360 -0.11270318  6.14408160
   0.82151816  1.51536424  3.57720199
   0.00984029  2.92123117 34.52127234
   1.74652462 -0.08679349 39.54266413
   0.80650794  1.54136271 36.97580386
 


--------------------------------------------------------------------------------------------------------


 k-point  1 :   0.0000 0.0000 0.0000  plane waves:    8623
 k-point  2 :   0.0769-0.0000 0.0000  plane waves:    8605
 k-point  3 :   0.1538 0.0000 0.0000  plane waves:    8570
 k-point  4 :   0.2308-0.0000 0.0000  plane waves:    8507
 k-point  5 :   0.3077-0.0000 0.0000  plane waves:    8506
 k-point  6 :   0.3846-0.0000 0.0000  plane waves:    8458
 k-point  7 :   0.4615-0.0000 0.0000  plane waves:    8412
 k-point  8 :   0.0769 0.0769-0.0000  plane waves:    8585
 k-point  9 :   0.1538 0.0769-0.0000  plane waves:    8524
 k-point 10 :   0.2308 0.0769 0.0000  plane waves:    8498
 k-point 11 :   0.3077 0.0769 0.0000  plane waves:    8468
 k-point 12 :   0.3846 0.0769 0.0000  plane waves:    8426
 k-point 13 :   0.4615 0.0769 0.0000  plane waves:    8416
 k-point 14 :  -0.4615 0.0769-0.0000  plane waves:    8453
 k-point 15 :  -0.3846 0.0769 0.0000  plane waves:    8480
 k-point 16 :  -0.3077 0.0769-0.0000  plane waves:    8532
 k-point 17 :  -0.2308 0.0769-0.0000  plane waves:    8541
 k-point 18 :  -0.1538 0.0769-0.0000  plane waves:    8594
 k-point 19 :  -0.0769 0.0769-0.0000  plane waves:    8615
 k-point 20 :   0.1538 0.1538-0.0000  plane waves:    8469
 k-point 21 :   0.2308 0.1538-0.0000  plane waves:    8489
 k-point 22 :   0.3077 0.1538-0.0000  plane waves:    8447
 k-point 23 :   0.3846 0.1538-0.0000  plane waves:    8433
 k-point 24 :   0.4615 0.1538-0.0000  plane waves:    8409
 k-point 25 :  -0.4615 0.1538-0.0000  plane waves:    8471
 k-point 26 :  -0.3846 0.1538-0.0000  plane waves:    8499
 k-point 27 :  -0.3077 0.1538-0.0000  plane waves:    8525
 k-point 28 :  -0.2308 0.1538-0.0000  plane waves:    8570
 k-point 29 :  -0.1538 0.1538-0.0000  plane waves:    8603
 k-point 30 :   0.2308 0.2308 0.0000  plane waves:    8467
 k-point 31 :   0.3077 0.2308-0.0000  plane waves:    8453
 k-point 32 :   0.3846 0.2308 0.0000  plane waves:    8448
 k-point 33 :   0.4615 0.2308-0.0000  plane waves:    8451
 k-point 34 :  -0.4615 0.2308-0.0000  plane waves:    8496
 k-point 35 :  -0.3846 0.2308-0.0000  plane waves:    8489
 k-point 36 :  -0.3077 0.2308-0.0000  plane waves:    8506
 k-point 37 :  -0.2308 0.2308-0.0000  plane waves:    8564
 k-point 38 :   0.3077 0.3077-0.0000  plane waves:    8470
 k-point 39 :   0.3846 0.3077 0.0000  plane waves:    8480
 k-point 40 :   0.4615 0.3077-0.0000  plane waves:    8477
 k-point 41 :  -0.4615 0.3077-0.0000  plane waves:    8486
 k-point 42 :  -0.3846 0.3077-0.0000  plane waves:    8460
 k-point 43 :  -0.3077 0.3077 0.0000  plane waves:    8469
 k-point 44 :   0.3846 0.3846-0.0000  plane waves:    8462
 k-point 45 :   0.4615 0.3846-0.0000  plane waves:    8455
 k-point 46 :  -0.4615 0.3846-0.0000  plane waves:    8434
 k-point 47 :  -0.3846 0.3846-0.0000  plane waves:    8433
 k-point 48 :   0.4615 0.4615 0.0000  plane waves:    8446
 k-point 49 :  -0.4615 0.4615-0.0000  plane waves:    8397

 maximum and minimum number of plane-waves per node :      2162     2090

 maximum number of plane-waves:      8623
 maximum index in each direction: 
   IXMAX=    6   IYMAX=    5   IZMAX=   76
   IXMIN=   -6   IYMIN=   -6   IZMIN=  -76

 WARNING: aliasing errors must be expected set NGX to  26 to avoid them
 NGY is ok and might be reduce to  24
 NGZ is ok and might be reduce to 306
 aliasing errors are usually negligible using standard VASP settings
 and one can safely disregard these warnings

 parallel 3D FFT for wavefunctions:
    minimum data exchange during FFTs selected (reduces bandwidth)
 parallel 3D FFT for charge:
    minimum data exchange during FFTs selected (reduces bandwidth)


 total amount of memory used by VASP on root node   196703. kBytes
========================================================================

   base      :      30000. kBytes
   nonl-proj :      33763. kBytes
   fftplans  :      55171. kBytes
   grid      :      22118. kBytes
   one-center:         56. kBytes
   wavefun   :      55595. kBytes
 
     INWAV:  cpu time    0.00: real time    0.00
 Broyden mixing: mesh for mixing (old mesh)
   NGX = 11   NGY = 11   NGZ =153
  (NGX  = 48   NGY  = 48   NGZ  =640)
  gives a total of  18513 points

 initial charge density was supplied:
 charge density of overlapping atoms calculated
 number of electron      99.0000000 magnetization 
 keeping initial charge density in first step


--------------------------------------------------------------------------------------------------------


 Maximum index for augmentation-charges        24122 (set IRDMAX)


--------------------------------------------------------------------------------------------------------


 First call to EWALD:  gamma=   0.260
 Maximum number of real-space cells 6x 6x 1
 Maximum number of reciprocal cells 1x 1x14

 FEWALD executed in parallel
    FEWALD:  cpu time    0.00: real time    0.00


----------------------------------------- Iteration    1(   1)  ---------------------------------------


    POTLOK:  cpu time    0.10: real time    0.10
    SETDIJ:  cpu time    0.10: real time    0.10
     EDDAV:  cpu time    9.33: real time    9.34
       DOS:  cpu time    0.00: real time    0.00
    --------------------------------------------
      LOOP:  cpu time    9.54: real time    9.55

 eigenvalue-minimisations  :  6296
 total energy-change (2. order) : 0.4981675E+03  (-0.4442257E+04)
 number of electron      99.0000000 magnetization 
 augmentation part       99.0000000 magnetization 

 Free energy of the ion-electron system (eV)
  ---------------------------------------------------
  alpha Z        PSCENC =       133.87193082
  Ewald energy   TEWEN  =     10217.42697650
  -Hartree energ DENC   =    -15399.38067621
  -exchange      EXHF   =         0.00000000
  -V(xc)+E(xc)   XCENC  =      -342.74716105
  PAW double counting   =      4516.65612620    -3844.19644948
  entropy T*S    EENTRO =        -0.00308419
  eigenvalues    EBANDS =       310.85896736
  atomic energy  EATOM  =      4905.68083858
  ---------------------------------------------------
  free energy    TOTEN  =       498.16746852 eV

  energy without entropy =      498.17055272  energy(sigma->0) =      498.16901062


--------------------------------------------------------------------------------------------------------




----------------------------------------- Iteration    1(   2)  ---------------------------------------


     EDDAV:  cpu time   11.11: real time   11.12
       DOS:  cpu time    0.00: real time    0.00
    --------------------------------------------
      LOOP:  cpu time   11.11: real time   11.12

 eigenvalue-minimisations  :  8120
 total energy-change (2. order) :-0.5998835E+03  (-0.5718810E+03)
 number of electron      99.0000000 magnetization 
 augmentation part       99.0000000 magnetization 

 Free energy of the ion-electron system (eV)
  ---------------------------------------------------
  alpha Z        PSCENC =       133.87193082
  Ewald energy   TEWEN  =     10217.42697650
  -Hartree energ DENC   =    -15399.38067621
  -exchange      EXHF   =         0.00000000
  -V(xc)+E(xc)   XCENC  =      -342.74716105
  PAW double counting   =      4516.65612620    -3844.19644948
  entropy T*S    EENTRO =        -0.00407498
  eigenvalues    EBANDS =      -289.02350362
  atomic energy  EATOM  =      4905.68083858
  ---------------------------------------------------
  free energy    TOTEN  =      -101.71599324 eV

  energy without entropy =     -101.71191825  energy(sigma->0) =     -101.71395575


--------------------------------------------------------------------------------------------------------




----------------------------------------- Iteration    1(   3)  ---------------------------------------


     EDDAV:  cpu time   10.25: real time   10.25
       DOS:  cpu time    0.00: real time    0.00
    --------------------------------------------
      LOOP:  cpu time   10.25: real time   10.26

 eigenvalue-minimisations  :  7344
 total energy-change (2. order) :-0.5373472E+02  (-0.5341977E+02)
 number of electron      99.0000000 magnetization 
 augmentation part       99.0000000 magnetization 

 Free energy of the ion-electron system (eV)
  ---------------------------------------------------
  alpha Z        PSCENC =       133.87193082
  Ewald energy   TEWEN  =     10217.42697650
  -Hartree energ DENC   =    -15399.38067621
  -exchange      EXHF   =         0.00000000
  -V(xc)+E(xc)   XCENC  =      -342.74716105
  PAW double counting   =      4516.65612620    -3844.19644948
  entropy T*S    EENTRO =        -0.00431137
  eigenvalues    EBANDS =      -342.75798941
  atomic energy  EATOM  =      4905.68083858
  ---------------------------------------------------
  free energy    TOTEN  =      -155.45071542 eV

  energy without entropy =     -155.44640405  energy(sigma->0) =     -155.44855973


--------------------------------------------------------------------------------------------------------




----------------------------------------- Iteration    1(   4)  ---------------------------------------


     EDDAV:  cpu time   10.32: real time   10.33
       DOS:  cpu time    0.00: real time    0.00
    --------------------------------------------
      LOOP:  cpu time   10.32: real time   10.33

 eigenvalue-minimisations  :  7320
 total energy-change (2. order) :-0.6691997E+00  (-0.6680872E+00)
 number of electron      99.0000000 magnetization 
 augmentation part       99.0000000 magnetization 

 Free energy of the ion-electron system (eV)
  ---------------------------------------------------
  alpha Z        PSCENC =       133.87193082
  Ewald energy   TEWEN  =     10217.42697650
  -Hartree energ DENC   =    -15399.38067621
  -exchange      EXHF   =         0.00000000
  -V(xc)+E(xc)   XCENC  =      -342.74716105
  PAW double counting   =      4516.65612620    -3844.19644948
  entropy T*S    EENTRO =        -0.00437269
  eigenvalues    EBANDS =      -343.42712777
  atomic energy  EATOM  =      4905.68083858
  ---------------------------------------------------
  free energy    TOTEN  =      -156.11991510 eV

  energy without entropy =     -156.11554241  energy(sigma->0) =     -156.11772876


--------------------------------------------------------------------------------------------------------




----------------------------------------- Iteration    1(   5)  ---------------------------------------


     EDDAV:  cpu time   10.47: real time   10.48
       DOS:  cpu time    0.00: real time    0.00
    CHARGE:  cpu time    0.71: real time    0.72
    MIXING:  cpu time    0.00: real time    0.00
    --------------------------------------------
      LOOP:  cpu time   11.19: real time   11.20

 eigenvalue-minimisations  :  7464
 total energy-change (2. order) :-0.9649247E-02  (-0.9646529E-02)
 number of electron      99.0000001 magnetization 
 augmentation part        7.7014952 magnetization 

 Broyden mixing:
  rms(total) = 0.22959E+01    rms(broyden)= 0.22954E+01
  rms(prec ) = 0.23540E+01
  weight for this iteration     100.00

 Free energy of the ion-electron system (eV)
  ---------------------------------------------------
  alpha Z        PSCENC =       133.87193082
  Ewald energy   TEWEN  =     10217.42697650
  -Hartree energ DENC   =    -15399.38067621
  -exchange      EXHF   =         0.00000000
  -V(xc)+E(xc)   XCENC  =      -342.74716105
  PAW double counting   =      4516.65612620    -3844.19644948
  entropy T*S    EENTRO =        -0.00437535
  eigenvalues    EBANDS =      -343.43677436
  atomic energy  EATOM  =      4905.68083858
  ---------------------------------------------------
  free energy    TOTEN  =      -156.12956435 eV

  energy without entropy =     -156.12518900  energy(sigma->0) =     -156.12737668


--------------------------------------------------------------------------------------------------------




----------------------------------------- Iteration    1(   6)  ---------------------------------------


    POTLOK:  cpu time    0.10: real time    0.10
    SETDIJ:  cpu time    0.10: real time    0.10
     EDDAV:  cpu time   10.63: real time   10.64
       DOS:  cpu time    0.00: real time    0.00
    CHARGE:  cpu time    0.69: real time    0.69
    MIXING:  cpu time    0.00: real time    0.00
    --------------------------------------------
      LOOP:  cpu time   11.53: real time   11.54

 eigenvalue-minimisations  :  7600
 total energy-change (2. order) : 0.1545498E+02  (-0.8821030E+01)
 number of electron      99.0000001 magnetization 
 augmentation part        6.2060556 magnetization 

 Broyden mixing:
  rms(total) = 0.78921E+00    rms(broyden)= 0.78826E+00
  rms(prec ) = 0.79895E+00
  weight for this iteration     100.00

 eigenvalues of (default mixing * dielectric matrix)
  average eigenvalue GAMMA=   0.8348
  0.8348

 Free energy of the ion-electron system (eV)
  ---------------------------------------------------
  alpha Z        PSCENC =       133.87193082
  Ewald energy   TEWEN  =     10217.42697650
  -Hartree energ DENC   =    -15590.82557876
  -exchange      EXHF   =         0.00000000
  -V(xc)+E(xc)   XCENC  =      -329.52865681
  PAW double counting   =      5347.76205178    -4678.67792511
  entropy T*S    EENTRO =        -0.00404926
  eigenvalues    EBANDS =      -146.38016780
  atomic energy  EATOM  =      4905.68083858
  ---------------------------------------------------
  free energy    TOTEN  =      -140.67458005 eV

  energy without entropy =     -140.67053079  energy(sigma->0) =     -140.67255542


--------------------------------------------------------------------------------------------------------




----------------------------------------- Iteration    1(   7)  ---------------------------------------


    POTLOK:  cpu time    0.10: real time    0.10
    SETDIJ:  cpu time    0.10: real time    0.10
     EDDAV:  cpu time   10.03: real time   10.03
       DOS:  cpu time    0.00: real time    0.00
    CHARGE:  cpu time    0.70: real time    0.70
    MIXING:  cpu time    0.00: real time    0.00
    --------------------------------------------
      LOOP:  cpu time   10.94: real time   10.94

 eigenvalue-minimisations  :  7080
 total energy-change (2. order) : 0.1040039E+00  (-0.2383783E+00)
 number of electron      99.0000001 magnetization 
 augmentation part        6.2409657 magnetization 

 Broyden mixing:
  rms(total) = 0.48192E+00    rms(broyden)= 0.48191E+00
  rms(prec ) = 0.48725E+00
  weight for this iteration     100.00

 eigenvalues of (default mixing * dielectric matrix)
  average eigenvalue GAMMA=   1.5388
  0.9887  2.0890

 Free energy of the ion-electron system (eV)
  ---------------------------------------------------
  alpha Z        PSCENC =       133.87193082
  Ewald energy   TEWEN  =     10217.42697650
  -Hartree energ DENC   =    -15585.22744245
  -exchange      EXHF   =         0.00000000
  -V(xc)+E(xc)   XCENC  =      -329.32291721
  PAW double counting   =      5652.55981940    -4982.98081343
  entropy T*S    EENTRO =        -0.00406447
  eigenvalues    EBANDS =      -152.57490392
  atomic energy  EATOM  =      4905.68083858
  ---------------------------------------------------
  free energy    TOTEN  =      -140.57057619 eV

  energy without entropy =     -140.56651171  energy(sigma->0) =     -140.56854395


--------------------------------------------------------------------------------------------------------




----------------------------------------- Iteration    1(   8)  ---------------------------------------


    POTLOK:  cpu time    0.10: real time    0.10
    SETDIJ:  cpu time    0.10: real time    0.10
     EDDAV:  cpu time   10.43: real time   10.44
       DOS:  cpu time    0.00: real time    0.00
    CHARGE:  cpu time    0.71: real time    0.71
    MIXING:  cpu time    0.00: real time    0.00
    --------------------------------------------
      LOOP:  cpu time   11.34: real time   11.35

 eigenvalue-minimisations  :  7392
 total energy-change (2. order) : 0.6992792E-01  (-0.8714034E-01)
 number of electron      99.0000001 magnetization 
 augmentation part        6.3201425 magnetization 

 Broyden mixing:
  rms(total) = 0.13580E+00    rms(broyden)= 0.13572E+00
  rms(prec ) = 0.14279E+00
  weight for this iteration     100.00

 eigenvalues of (default mixing * dielectric matrix)
  average eigenvalue GAMMA=   1.3234
  2.2901  0.9004  0.7796

 Free energy of the ion-electron system (eV)
  ---------------------------------------------------
  alpha Z        PSCENC =       133.87193082
  Ewald energy   TEWEN  =     10217.42697650
  -Hartree energ DENC   =    -15587.06555306
  -exchange      EXHF   =         0.00000000
  -V(xc)+E(xc)   XCENC  =      -328.24194831
  PAW double counting   =      6090.58883243    -5420.60931705
  entropy T*S    EENTRO =        -0.00462481
  eigenvalues    EBANDS =      -152.14778338
  atomic energy  EATOM  =      4905.68083858
  ---------------------------------------------------
  free energy    TOTEN  =      -140.50064827 eV

  energy without entropy =     -140.49602346  energy(sigma->0) =     -140.49833586


--------------------------------------------------------------------------------------------------------




----------------------------------------- Iteration    1(   9)  ---------------------------------------


    POTLOK:  cpu time    0.10: real time    0.10
    SETDIJ:  cpu time    0.10: real time    0.10
     EDDAV:  cpu time   10.25: real time   10.26
       DOS:  cpu time    0.00: real time    0.00
    CHARGE:  cpu time    0.70: real time    0.70
    MIXING:  cpu time    0.00: real time    0.00
    --------------------------------------------
      LOOP:  cpu time   11.16: real time   11.17

 eigenvalue-minimisations  :  7248
 total energy-change (2. order) : 0.3940646E-01  (-0.1584977E-01)
 number of electron      99.0000001 magnetization 
 augmentation part        6.2853543 magnetization 

 Broyden mixing:
  rms(total) = 0.66099E-01    rms(broyden)= 0.66091E-01
  rms(prec ) = 0.67427E-01
  weight for this iteration     100.00

 eigenvalues of (default mixing * dielectric matrix)
  average eigenvalue GAMMA=   1.4510
  2.4670  0.9170  0.9170  1.5029

 Free energy of the ion-electron system (eV)
  ---------------------------------------------------
  alpha Z        PSCENC =       133.87193082
  Ewald energy   TEWEN  =     10217.42697650
  -Hartree energ DENC   =    -15592.51146184
  -exchange      EXHF   =         0.00000000
  -V(xc)+E(xc)   XCENC  =      -327.70008205
  PAW double counting   =      6136.48491125    -5466.57043942
  entropy T*S    EENTRO =        -0.00439105
  eigenvalues    EBANDS =      -147.13952461
  atomic energy  EATOM  =      4905.68083858
  ---------------------------------------------------
  free energy    TOTEN  =      -140.46124181 eV

  energy without entropy =     -140.45685076  energy(sigma->0) =     -140.45904628


--------------------------------------------------------------------------------------------------------




----------------------------------------- Iteration    1(  10)  ---------------------------------------


    POTLOK:  cpu time    0.10: real time    0.10
    SETDIJ:  cpu time    0.10: real time    0.10
     EDDAV:  cpu time   10.10: real time   10.10
       DOS:  cpu time    0.00: real time    0.00
    CHARGE:  cpu time    0.71: real time    0.71
    MIXING:  cpu time    0.00: real time    0.00
    --------------------------------------------
      LOOP:  cpu time   11.01: real time   11.02

 eigenvalue-minimisations  :  7192
 total energy-change (2. order) :-0.4210984E-02  (-0.1349824E-01)
 number of electron      99.0000001 magnetization 
 augmentation part        6.2560983 magnetization 

 Broyden mixing:
  rms(total) = 0.47469E-01    rms(broyden)= 0.47424E-01
  rms(prec ) = 0.51174E-01
  weight for this iteration     100.00

 eigenvalues of (default mixing * dielectric matrix)
  average eigenvalue GAMMA=   1.2959
  2.5181  1.4662  0.9741  0.7606  0.7606

 Free energy of the ion-electron system (eV)
  ---------------------------------------------------
  alpha Z        PSCENC =       133.87193082
  Ewald energy   TEWEN  =     10217.42697650
  -Hartree energ DENC   =    -15595.41547819
  -exchange      EXHF   =         0.00000000
  -V(xc)+E(xc)   XCENC  =      -327.37876012
  PAW double counting   =      6123.05161803    -5453.17849134
  entropy T*S    EENTRO =        -0.00433508
  eigenvalues    EBANDS =      -144.51975200
  atomic energy  EATOM  =      4905.68083858
  ---------------------------------------------------
  free energy    TOTEN  =      -140.46545279 eV

  energy without entropy =     -140.46111771  energy(sigma->0) =     -140.46328525


--------------------------------------------------------------------------------------------------------




----------------------------------------- Iteration    1(  11)  ---------------------------------------


    POTLOK:  cpu time    0.10: real time    0.10
    SETDIJ:  cpu time    0.10: real time    0.10
     EDDAV:  cpu time   10.61: real time   10.62
       DOS:  cpu time    0.00: real time    0.00
    CHARGE:  cpu time    0.71: real time    0.71
    MIXING:  cpu time    0.00: real time    0.00
    --------------------------------------------
      LOOP:  cpu time   11.54: real time   11.55

 eigenvalue-minimisations  :  7536
 total energy-change (2. order) : 0.3751940E-02  (-0.1361763E-02)
 number of electron      99.0000001 magnetization 
 augmentation part        6.2628100 magnetization 

 Broyden mixing:
  rms(total) = 0.29522E-01    rms(broyden)= 0.29521E-01
  rms(prec ) = 0.30357E-01
  weight for this iteration     100.00

 eigenvalues of (default mixing * dielectric matrix)
  average eigenvalue GAMMA=   1.3214
  2.5791  1.6930  0.9656  0.9656  1.0155  0.7097

 Free energy of the ion-electron system (eV)
  ---------------------------------------------------
  alpha Z        PSCENC =       133.87193082
  Ewald energy   TEWEN  =     10217.42697650
  -Hartree energ DENC   =    -15594.75064128
  -exchange      EXHF   =         0.00000000
  -V(xc)+E(xc)   XCENC  =      -327.39028267
  PAW double counting   =      6116.55485646    -5446.67551422
  entropy T*S    EENTRO =        -0.00436932
  eigenvalues    EBANDS =      -145.17549574
  atomic energy  EATOM  =      4905.68083858
  ---------------------------------------------------
  free energy    TOTEN  =      -140.46170085 eV

  energy without entropy =     -140.45733153  energy(sigma->0) =     -140.45951619


--------------------------------------------------------------------------------------------------------




----------------------------------------- Iteration    1(  12)  ---------------------------------------


    POTLOK:  cpu time    0.10: real time    0.10
    SETDIJ:  cpu time    0.10: real time    0.10
     EDDAV:  cpu time   10.36: real time   10.37
       DOS:  cpu time    0.00: real time    0.00
    CHARGE:  cpu time    0.71: real time    0.71
    MIXING:  cpu time    0.00: real time    0.00
    --------------------------------------------
      LOOP:  cpu time   11.28: real time   11.29

 eigenvalue-minimisations  :  7296
 total energy-change (2. order) : 0.3638045E-03  (-0.1713403E-02)
 number of electron      99.0000001 magnetization 
 augmentation part        6.2659277 magnetization 

 Broyden mixing:
  rms(total) = 0.13717E-01    rms(broyden)= 0.13698E-01
  rms(prec ) = 0.14325E-01
  weight for this iteration     100.00

 eigenvalues of (default mixing * dielectric matrix)
  average eigenvalue GAMMA=   1.3548
  2.7648  2.4456  0.8961  0.8961  0.9347  0.9347  0.6115

 Free energy of the ion-electron system (eV)
  ---------------------------------------------------
  alpha Z        PSCENC =       133.87193082
  Ewald energy   TEWEN  =     10217.42697650
  -Hartree energ DENC   =    -15594.50844312
  -exchange      EXHF   =         0.00000000
  -V(xc)+E(xc)   XCENC  =      -327.36675685
  PAW double counting   =      6099.01593664    -5429.14488235
  entropy T*S    EENTRO =        -0.00445655
  eigenvalues    EBANDS =      -145.43248074
  atomic energy  EATOM  =      4905.68083858
  ---------------------------------------------------
  free energy    TOTEN  =      -140.46133705 eV

  energy without entropy =     -140.45688050  energy(sigma->0) =     -140.45910877


--------------------------------------------------------------------------------------------------------




----------------------------------------- Iteration    1(  13)  ---------------------------------------


    POTLOK:  cpu time    0.10: real time    0.11
    SETDIJ:  cpu time    0.11: real time    0.11
     EDDAV:  cpu time   10.82: real time   10.83
       DOS:  cpu time    0.00: real time    0.00
    CHARGE:  cpu time    0.71: real time    0.71
    MIXING:  cpu time    0.00: real time    0.00
    --------------------------------------------
      LOOP:  cpu time   11.75: real time   11.76

 eigenvalue-minimisations  :  7720
 total energy-change (2. order) : 0.1877846E-03  (-0.1666195E-03)
 number of electron      99.0000001 magnetization 
 augmentation part        6.2682326 magnetization 

 Broyden mixing:
  rms(total) = 0.75778E-02    rms(broyden)= 0.75770E-02
  rms(prec ) = 0.81210E-02
  weight for this iteration     100.00

 eigenvalues of (default mixing * dielectric matrix)
  average eigenvalue GAMMA=   1.3543
  2.8731  2.4695  0.9287  0.9287  1.0940  0.9483  0.9483  0.6441

 Free energy of the ion-electron system (eV)
  ---------------------------------------------------
  alpha Z        PSCENC =       133.87193082
  Ewald energy   TEWEN  =     10217.42697650
  -Hartree energ DENC   =    -15594.06671270
  -exchange      EXHF   =         0.00000000
  -V(xc)+E(xc)   XCENC  =      -327.37101220
  PAW double counting   =      6082.23412892    -5412.36337422
  entropy T*S    EENTRO =        -0.00446974
  eigenvalues    EBANDS =      -145.86945523
  atomic energy  EATOM  =      4905.68083858
  ---------------------------------------------------
  free energy    TOTEN  =      -140.46114926 eV

  energy without entropy =     -140.45667952  energy(sigma->0) =     -140.45891439


--------------------------------------------------------------------------------------------------------




----------------------------------------- Iteration    1(  14)  ---------------------------------------


    POTLOK:  cpu time    0.10: real time    0.10
    SETDIJ:  cpu time    0.10: real time    0.10
     EDDAV:  cpu time   10.66: real time   10.67
       DOS:  cpu time    0.00: real time    0.00
    CHARGE:  cpu time    0.71: real time    0.71
    MIXING:  cpu time    0.00: real time    0.00
    --------------------------------------------
      LOOP:  cpu time   11.57: real time   11.58

 eigenvalue-minimisations  :  7584
 total energy-change (2. order) : 0.1004893E-03  (-0.8275368E-04)
 number of electron      99.0000001 magnetization 
 augmentation part        6.2687214 magnetization 

 Broyden mixing:
  rms(total) = 0.22317E-02    rms(broyden)= 0.22273E-02
  rms(prec ) = 0.32231E-02
  weight for this iteration     100.00

 eigenvalues of (default mixing * dielectric matrix)
  average eigenvalue GAMMA=   1.3544
  2.9623  2.5412  0.8981  0.8981  1.1658  1.1658  0.9527  0.9527  0.6534

 Free energy of the ion-electron system (eV)
  ---------------------------------------------------
  alpha Z        PSCENC =       133.87193082
  Ewald energy   TEWEN  =     10217.42697650
  -Hartree energ DENC   =    -15593.89521460
  -exchange      EXHF   =         0.00000000
  -V(xc)+E(xc)   XCENC  =      -327.37234914
  PAW double counting   =      6080.16356307    -5410.29158945
  entropy T*S    EENTRO =        -0.00446930
  eigenvalues    EBANDS =      -146.04073526
  atomic energy  EATOM  =      4905.68083858
  ---------------------------------------------------
  free energy    TOTEN  =      -140.46104877 eV

  energy without entropy =     -140.45657947  energy(sigma->0) =     -140.45881412


--------------------------------------------------------------------------------------------------------




----------------------------------------- Iteration    1(  15)  ---------------------------------------


    POTLOK:  cpu time    0.10: real time    0.10
    SETDIJ:  cpu time    0.10: real time    0.10
     EDDAV:  cpu time   10.46: real time   10.46
       DOS:  cpu time    0.00: real time    0.00
    CHARGE:  cpu time    0.70: real time    0.70
    MIXING:  cpu time    0.01: real time    0.01
    --------------------------------------------
      LOOP:  cpu time   11.37: real time   11.37

 eigenvalue-minimisations  :  7520
 total energy-change (2. order) : 0.5850574E-04  (-0.1327842E-04)
 number of electron      99.0000001 magnetization 
 augmentation part        6.2681727 magnetization 

 Broyden mixing:
  rms(total) = 0.10959E-02    rms(broyden)= 0.10952E-02
  rms(prec ) = 0.20991E-02
  weight for this iteration     100.00

 eigenvalues of (default mixing * dielectric matrix)
  average eigenvalue GAMMA=   1.4327
  2.9555  2.5463  2.5463  0.9021  0.9021  0.9815  0.9815  0.9307  0.9307  0.6504

 Free energy of the ion-electron system (eV)
  ---------------------------------------------------
  alpha Z        PSCENC =       133.87193082
  Ewald energy   TEWEN  =     10217.42697650
  -Hartree energ DENC   =    -15593.76408577
  -exchange      EXHF   =         0.00000000
  -V(xc)+E(xc)   XCENC  =      -327.36902508
  PAW double counting   =      6079.71501945    -5409.84311809
  entropy T*S    EENTRO =        -0.00447566
  eigenvalues    EBANDS =      -146.17505103
  atomic energy  EATOM  =      4905.68083858
  ---------------------------------------------------
  free energy    TOTEN  =      -140.46099027 eV

  energy without entropy =     -140.45651461  energy(sigma->0) =     -140.45875244


--------------------------------------------------------------------------------------------------------




----------------------------------------- Iteration    1(  16)  ---------------------------------------


    POTLOK:  cpu time    0.10: real time    0.10
    SETDIJ:  cpu time    0.10: real time    0.10
     EDDAV:  cpu time    9.71: real time    9.72
       DOS:  cpu time    0.00: real time    0.00
    CHARGE:  cpu time    0.71: real time    0.71
    MIXING:  cpu time    0.01: real time    0.01
    --------------------------------------------
      LOOP:  cpu time   10.62: real time   10.63

 eigenvalue-minimisations  :  6680
 total energy-change (2. order) : 0.3849599E-04  (-0.4195270E-05)
 number of electron      99.0000001 magnetization 
 augmentation part        6.2679471 magnetization 

 Broyden mixing:
  rms(total) = 0.13012E-02    rms(broyden)= 0.13009E-02
  rms(prec ) = 0.20029E-02
  weight for this iteration     100.00

 eigenvalues of (default mixing * dielectric matrix)
  average eigenvalue GAMMA=   1.4533
  3.2070  2.7739  2.4028  0.9153  0.9153  1.0624  1.0624  1.0204  0.9886  0.9886
  0.6497

 Free energy of the ion-electron system (eV)
  ---------------------------------------------------
  alpha Z        PSCENC =       133.87193082
  Ewald energy   TEWEN  =     10217.42697650
  -Hartree energ DENC   =    -15593.63512624
  -exchange      EXHF   =         0.00000000
  -V(xc)+E(xc)   XCENC  =      -327.36684192
  PAW double counting   =      6081.17950400    -5411.30712712
  entropy T*S    EENTRO =        -0.00448232
  eigenvalues    EBANDS =      -146.30662409
  atomic energy  EATOM  =      4905.68083858
  ---------------------------------------------------
  free energy    TOTEN  =      -140.46095177 eV

  energy without entropy =     -140.45646945  energy(sigma->0) =     -140.45871061


--------------------------------------------------------------------------------------------------------




----------------------------------------- Iteration    1(  17)  ---------------------------------------


    POTLOK:  cpu time    0.10: real time    0.10
    SETDIJ:  cpu time    0.10: real time    0.10
     EDDAV:  cpu time    9.67: real time    9.67
       DOS:  cpu time    0.00: real time    0.00
    CHARGE:  cpu time    0.71: real time    0.71
    MIXING:  cpu time    0.00: real time    0.00
    --------------------------------------------
      LOOP:  cpu time   10.59: real time   10.59

 eigenvalue-minimisations  :  6704
 total energy-change (2. order) : 0.2142928E-04  (-0.3976309E-05)
 number of electron      99.0000001 magnetization 
 augmentation part        6.2680656 magnetization 

 Broyden mixing:
  rms(total) = 0.68124E-03    rms(broyden)= 0.68092E-03
  rms(prec ) = 0.14694E-02
  weight for this iteration     100.00

 eigenvalues of (default mixing * dielectric matrix)
  average eigenvalue GAMMA=   1.5000
  3.0827  3.0827  2.3738  2.3738  0.9085  0.9085  0.9381  0.9381  0.9707  0.9707
  0.6493  0.8026

 Free energy of the ion-electron system (eV)
  ---------------------------------------------------
  alpha Z        PSCENC =       133.87193082
  Ewald energy   TEWEN  =     10217.42697650
  -Hartree energ DENC   =    -15593.50339891
  -exchange      EXHF   =         0.00000000
  -V(xc)+E(xc)   XCENC  =      -327.36774182
  PAW double counting   =      6081.06964346    -5411.19710268
  entropy T*S    EENTRO =        -0.00449030
  eigenvalues    EBANDS =      -146.43758600
  atomic energy  EATOM  =      4905.68083858
  ---------------------------------------------------
  free energy    TOTEN  =      -140.46093034 eV

  energy without entropy =     -140.45644004  energy(sigma->0) =     -140.45868519


--------------------------------------------------------------------------------------------------------




----------------------------------------- Iteration    1(  18)  ---------------------------------------


    POTLOK:  cpu time    0.10: real time    0.10
    SETDIJ:  cpu time    0.10: real time    0.10
     EDDAV:  cpu time    8.52: real time    8.53
       DOS:  cpu time    0.00: real time    0.00
    CHARGE:  cpu time    0.71: real time    0.71
    MIXING:  cpu time    0.01: real time    0.01
    --------------------------------------------
      LOOP:  cpu time    9.43: real time    9.44

 eigenvalue-minimisations  :  5568
 total energy-change (2. order) : 0.2696839E-04  (-0.2482687E-05)
 number of electron      99.0000001 magnetization 
 augmentation part        6.2682577 magnetization 

 Broyden mixing:
  rms(total) = 0.10401E-02    rms(broyden)= 0.10399E-02
  rms(prec ) = 0.14334E-02
  weight for this iteration     100.00

 eigenvalues of (default mixing * dielectric matrix)
  average eigenvalue GAMMA=   1.5251
  4.1032  2.9326  2.4722  2.4722  0.9057  0.9057  0.6502  0.9448  0.9448  0.8744
  0.8744  0.8732  0.8732

 Free energy of the ion-electron system (eV)
  ---------------------------------------------------
  alpha Z        PSCENC =       133.87193082
  Ewald energy   TEWEN  =     10217.42697650
  -Hartree energ DENC   =    -15593.27561094
  -exchange      EXHF   =         0.00000000
  -V(xc)+E(xc)   XCENC  =      -327.36926286
  PAW double counting   =      6081.16027188    -5411.28724759
  entropy T*S    EENTRO =        -0.00449961
  eigenvalues    EBANDS =      -146.66430016
  atomic energy  EATOM  =      4905.68083858
  ---------------------------------------------------
  free energy    TOTEN  =      -140.46090337 eV

  energy without entropy =     -140.45640377  energy(sigma->0) =     -140.45865357


--------------------------------------------------------------------------------------------------------




----------------------------------------- Iteration    1(  19)  ---------------------------------------


    POTLOK:  cpu time    0.10: real time    0.10
    SETDIJ:  cpu time    0.10: real time    0.10
     EDDAV:  cpu time    9.12: real time    9.12
       DOS:  cpu time    0.00: real time    0.00
    CHARGE:  cpu time    0.71: real time    0.71
    MIXING:  cpu time    0.01: real time    0.01
    --------------------------------------------
      LOOP:  cpu time   10.03: real time   10.04

 eigenvalue-minimisations  :  6144
 total energy-change (2. order) : 0.1491878E-04  (-0.2862973E-05)
 number of electron      99.0000001 magnetization 
 augmentation part        6.2684129 magnetization 

 Broyden mixing:
  rms(total) = 0.10005E-02    rms(broyden)= 0.10004E-02
  rms(prec ) = 0.12915E-02
  weight for this iteration     100.00

 eigenvalues of (default mixing * dielectric matrix)
  average eigenvalue GAMMA=   1.4952
  4.3084  2.9794  2.4125  2.4125  0.9056  0.9056  1.0538  1.0538  0.9613  0.9613
  0.9204  0.9204  0.6499  0.4881

 Free energy of the ion-electron system (eV)
  ---------------------------------------------------
  alpha Z        PSCENC =       133.87193082
  Ewald energy   TEWEN  =     10217.42697650
  -Hartree energ DENC   =    -15593.14166156
  -exchange      EXHF   =         0.00000000
  -V(xc)+E(xc)   XCENC  =      -327.36891977
  PAW double counting   =      6081.44082408    -5411.56764309
  entropy T*S    EENTRO =        -0.00450229
  eigenvalues    EBANDS =      -146.79873173
  atomic energy  EATOM  =      4905.68083858
  ---------------------------------------------------
  free energy    TOTEN  =      -140.46088845 eV

  energy without entropy =     -140.45638617  energy(sigma->0) =     -140.45863731


--------------------------------------------------------------------------------------------------------




----------------------------------------- Iteration    1(  20)  ---------------------------------------


    POTLOK:  cpu time    0.10: real time    0.10
    SETDIJ:  cpu time    0.10: real time    0.10
     EDDAV:  cpu time    9.32: real time    9.32
       DOS:  cpu time    0.00: real time    0.00
    CHARGE:  cpu time    0.71: real time    0.71
    MIXING:  cpu time    0.01: real time    0.01
    --------------------------------------------
      LOOP:  cpu time   10.23: real time   10.24

 eigenvalue-minimisations  :  6328
 total energy-change (2. order) : 0.1226557E-04  (-0.4040310E-05)
 number of electron      99.0000001 magnetization 
 augmentation part        6.2682438 magnetization 

 Broyden mixing:
  rms(total) = 0.52950E-03    rms(broyden)= 0.52903E-03
  rms(prec ) = 0.81743E-03
  weight for this iteration     100.00

 eigenvalues of (default mixing * dielectric matrix)
  average eigenvalue GAMMA=   1.5758
  5.7761  2.9192  2.5335  2.5335  1.0650  1.0650  0.9074  0.9074  0.9458  0.9451
  0.9451  0.8708  0.8708  0.6512  0.7012

 Free energy of the ion-electron system (eV)
  ---------------------------------------------------
  alpha Z        PSCENC =       133.87193082
  Ewald energy   TEWEN  =     10217.42697650
  -Hartree energ DENC   =    -15593.05843601
  -exchange      EXHF   =         0.00000000
  -V(xc)+E(xc)   XCENC  =      -327.36694719
  PAW double counting   =      6081.43194211    -5411.55957252
  entropy T*S    EENTRO =        -0.00450294
  eigenvalues    EBANDS =      -146.88310555
  atomic energy  EATOM  =      4905.68083858
  ---------------------------------------------------
  free energy    TOTEN  =      -140.46087619 eV

  energy without entropy =     -140.45637325  energy(sigma->0) =     -140.45862472


--------------------------------------------------------------------------------------------------------




----------------------------------------- Iteration    1(  21)  ---------------------------------------


    POTLOK:  cpu time    0.10: real time    0.10
    SETDIJ:  cpu time    0.10: real time    0.10
     EDDAV:  cpu time    7.45: real time    7.45
       DOS:  cpu time    0.00: real time    0.00
    --------------------------------------------
      LOOP:  cpu time    7.65: real time    7.66

 eigenvalue-minimisations  :  4576
 total energy-change (2. order) : 0.8682507E-05  (-0.1037629E-05)
 number of electron      99.0000001 magnetization 
 augmentation part        6.2682438 magnetization 

 Free energy of the ion-electron system (eV)
  ---------------------------------------------------
  alpha Z        PSCENC =       133.87193082
  Ewald energy   TEWEN  =     10217.42697650
  -Hartree energ DENC   =    -15592.94701223
  -exchange      EXHF   =         0.00000000
  -V(xc)+E(xc)   XCENC  =      -327.36648126
  PAW double counting   =      6081.58316935    -5411.71099483
  entropy T*S    EENTRO =        -0.00450575
  eigenvalues    EBANDS =      -146.99478870
  atomic energy  EATOM  =      4905.68083858
  ---------------------------------------------------
  free energy    TOTEN  =      -140.46086751 eV

  energy without entropy =     -140.45636175  energy(sigma->0) =     -140.45861463


--------------------------------------------------------------------------------------------------------




 average (electrostatic) potential at core
  the test charge radii are     0.7215  1.0714  1.0406
  (the norm of the test charge is              1.0000)
       1 -70.0679       2 -69.7537       3 -69.7530       4 -70.0679       5 -69.7833
[...]
 k-point    47 :      -0.3846    0.3846   -0.0000
  band No.  band energies     occupation 
      1     -13.2476      2.00000
      2     -13.2471      2.00000
      3     -13.1206      2.00000
      4     -13.0746      2.00000
      5     -13.0122      2.00000
      6     -12.9408      2.00000
      7     -12.8674      2.00000
      8     -12.7982      2.00000
      9     -12.7415      2.00000
     10     -12.7039      2.00000
     11      -1.1324      2.00000
     12      -1.0922      2.00000
     13      -1.0074      2.00000
     14      -0.8924      2.00000
     15      -0.7829      2.00000
     16      -0.7690      2.00000
     17      -0.6466      2.00000
     18      -0.5842      2.00000
     19      -0.5145      2.00000
     20      -0.4081      2.00000
     21      -0.1690      2.00000
     22      -0.1169      2.00000
     23       0.0372      2.00000
     24       0.3899      2.00000
     25       0.5748      2.00000
     26       0.8630      2.00000
     27       1.0849      2.00000
     28       1.3057      2.00000
     29       1.5212      2.00000
     30       1.6262      2.00000
     31       1.7089      2.00000
     32       1.8127      2.00000
     33       1.8132      2.00000
     34       1.9352      2.00000
     35       2.0072      2.00000
     36       2.0668      2.00000
     37       2.1180      2.00000
     38       2.1896      2.00000
     39       2.2270      2.00000
     40       2.2753      2.00000
     41       2.3660      2.00000
     42       2.4532      2.00000
     43       2.5256      2.00000
     44       2.5732      2.00000
     45       3.0331      2.00000
     46       4.2509      2.00000
     47       4.6784      2.00000
     48       4.9592      2.00000
     49       5.2030      2.00000
     50       5.7910      2.00000
     51       6.3451      2.00000
     52       7.3050      0.00000
     53       7.4478      0.00000
     54       8.5523      0.00000
     55       8.8798      0.00000
     56       9.6523      0.00000
     57      10.2999      0.00000
     58      10.5803      0.00000
     59      10.7311      0.00000
     60      11.0918      0.00000
     61      11.2988      0.00000
     62      11.5971      0.00000
     63      11.9045      0.00000
     64      12.0290      0.00000

 k-point    48 :       0.4615    0.4615    0.0000
  band No.  band energies     occupation 
      1     -13.0909      2.00000
      2     -13.0905      2.00000
      3     -12.8909      2.00000
      4     -12.8733      2.00000
      5     -12.8476      2.00000
      6     -12.8159      2.00000
      7     -12.7811      2.00000
      8     -12.7463      2.00000
      9     -12.7167      2.00000
     10     -12.6970      2.00000
     11      -1.3922      2.00000
     12      -1.3118      2.00000
     13      -1.1803      2.00000
     14      -1.0053      2.00000
     15      -0.9126      2.00000
     16      -0.8550      2.00000
     17      -0.8202      2.00000
     18      -0.7691      2.00000
     19      -0.6851      2.00000
     20      -0.6805      2.00000
     21       0.3271      2.00000
     22       0.3323      2.00000
     23       0.9998      2.00000
     24       1.0469      2.00000
     25       1.1819      2.00000
     26       1.2503      2.00000
     27       1.4246      2.00000
     28       1.4281      2.00000
     29       1.5449      2.00000
     30       1.6165      2.00000
     31       1.8059      2.00000
     32       1.8148      2.00000
     33       1.8856      2.00000
     34       1.9597      2.00000
     35       2.0707      2.00000
     36       2.0732      2.00000
     37       2.1072      2.00000
     38       2.1539      2.00000
     39       2.1850      2.00000
     40       2.2622      2.00000
     41       2.3298      2.00000
     42       2.3429      2.00000
     43       2.4531      2.00000
     44       2.6662      2.00000
     45       2.9984      2.00000
     46       3.1111      2.00000
     47       3.7952      2.00000
     48       3.8402      2.00000
     49       4.6306      2.00000
     50       5.3748      2.00000
     51       5.9564      2.00000
     52       6.6534      0.03731
     53       7.1441      0.00000
     54       7.7255      0.00000
     55       8.8208      0.00000
     56       9.4240      0.00000
     57      10.2433      0.00000
     58      10.5589      0.00000
     59      10.7110      0.00000
     60      10.8899      0.00000
     61      10.9906      0.00000
     62      11.2581      0.00000
     63      11.3931      0.00000
     64      11.5212      0.00000

 k-point    49 :      -0.4615    0.4615   -0.0000
  band No.  band energies     occupation 
      1     -13.1256      2.00000
      2     -13.1252      2.00000
      3     -12.9397      2.00000
      4     -12.9164      2.00000
      5     -12.8832      2.00000
      6     -12.8434      2.00000
      7     -12.8010      2.00000
      8     -12.7597      2.00000
      9     -12.7252      2.00000
     10     -12.7022      2.00000
     11      -1.4165      2.00000
     12      -1.3375      2.00000
     13      -1.2075      2.00000
     14      -1.0344      2.00000
     15      -0.9509      2.00000
     16      -0.8926      2.00000
     17      -0.8521      2.00000
     18      -0.7945      2.00000
     19      -0.7149      2.00000
     20      -0.6942      2.00000
     21       0.2307      2.00000
     22       0.2436      2.00000
     23       0.8374      2.00000
     24       1.1006      2.00000
     25       1.2545      2.00000
     26       1.2871      2.00000
     27       1.3029      2.00000
     28       1.4326      2.00000
     29       1.5790      2.00000
     30       1.7074      2.00000
     31       1.7515      2.00000
     32       1.7519      2.00000
     33       1.9174      2.00000
     34       2.0036      2.00000
     35       2.0548      2.00000
     36       2.1241      2.00000
     37       2.1264      2.00000
     38       2.2122      2.00000
     39       2.2725      2.00000
     40       2.3029      2.00000
     41       2.3902      2.00000
     42       2.4627      2.00000
     43       2.5104      2.00000
     44       2.8569      2.00000
     45       3.0703      2.00000
     46       3.2589      2.00000
     47       3.7150      2.00000
     48       4.0993      2.00000
     49       4.4661      2.00000
     50       5.4951      2.00000
     51       5.7631      2.00000
     52       6.6931      0.00135
     53       6.9819      0.00000
     54       8.0557      0.00000
     55       8.3950      0.00000
     56       9.6937      0.00000
     57       9.9118      0.00000
     58      10.5893      0.00000
     59      10.8089      0.00000
     60      11.0266      0.00000
     61      11.3057      0.00000
     62      11.6873      0.00000
     63      11.9054      0.00000
     64      12.0446      0.00000


--------------------------------------------------------------------------------------------------------


 soft charge-density along one line, spin component           1
         0         1         2         3         4         5         6         7         8         9
 total charge-density along one line
 
 pseudopotential strength for first ion, spin component:           1
 12.167   0.000 -14.803   0.000  -0.001   0.000  -0.001   0.000   0.001   0.000   0.001   0.000   0.001   0.000  -0.001   0.000
-14.803   0.000  18.029   0.000   0.001   0.000   0.001   0.000  -0.001   0.000  -0.002   0.000  -0.002   0.000   0.001   0.000
 -0.001   0.000   0.001   0.000  -8.303   0.000   0.002   0.000  -0.014   0.000   9.940   0.000  -0.003   0.000   0.019   0.000
 -0.001   0.000   0.001   0.000   0.002   0.000  -8.327   0.000  -0.001   0.000  -0.003   0.000   9.972   0.000   0.002   0.000
  0.001   0.000  -0.001   0.000  -0.014   0.000  -0.001   0.000  -8.320   0.000   0.019   0.000   0.002   0.000   9.962   0.000
  0.001   0.000  -0.002   0.000   9.940   0.000  -0.003   0.000   0.019   0.000 -11.737   0.000   0.004   0.000  -0.026   0.000
  0.001   0.000  -0.002   0.000  -0.003   0.000   9.972   0.000   0.002   0.000   0.004   0.000 -11.781   0.000  -0.002   0.000
 -0.001   0.000   0.001   0.000   0.019   0.000   0.002   0.000   9.962   0.000  -0.026   0.000  -0.002   0.000 -11.767   0.000
 total augmentation occupancy for first ion, spin component:           1
  2.558   0.343   0.006   0.013  -0.003   0.002  -0.003  -0.001
  0.343   0.086   0.004   0.001  -0.002   0.001  -0.010  -0.000
  0.006   0.004   2.096   0.003   0.003   0.228  -0.002   0.018
  0.013   0.001   0.003   2.105  -0.002  -0.002   0.257   0.001
 -0.003  -0.002   0.003  -0.002   2.100   0.018   0.001   0.249
  0.002   0.001   0.228  -0.002   0.018   0.029  -0.000   0.004
 -0.003  -0.010  -0.002   0.257   0.001  -0.000   0.038   0.000
 -0.001  -0.000   0.018   0.001   0.249   0.004   0.000   0.034


------------------------ aborting loop because EDIFF is reached ----------------------------------------


    CHARGE:  cpu time    0.69: real time    0.69
    FORLOC:  cpu time    0.03: real time    0.03
    FORNL :  cpu time    6.09: real time    6.09
    STRESS:  cpu time    6.87: real time    6.87
    FORCOR:  cpu time    0.13: real time    0.13
    FORHAR:  cpu time    0.06: real time    0.06
    MIXING:  cpu time    0.00: real time    0.00
    OFIELD:  cpu time    0.00: real time    0.00

  FORCE on cell =-STRESS in cart. coord.  units (eV):
  Direction    XX          YY          ZZ          XY          YZ          ZX
  --------------------------------------------------------------------------------------
  Alpha Z   133.87193   133.87193   133.87193
  Ewald   13504.08559 13449.47150-16125.25268    47.29737   -43.61793    25.18268
  Hartree 15263.22783 15249.32653-14312.68280    12.03880   -23.52406    13.58166
  E(xc)    -413.57549  -413.62656  -413.17652     0.04421     0.10727    -0.06193
  Local  -29991.45387-29927.49082 29217.17656   -55.39329    65.00982   -37.53339
  n-local   -60.71974   -69.83094   -65.92963    -1.77098     0.32023     3.07578
  augment    60.04877    60.26528    59.15249    -0.18753     0.15294    -0.08847
  Kinetic  1507.85509  1503.46944  1486.74561    -6.44253     3.45448    -0.81975
  Fock        0.00000     0.00000     0.00000     0.00000     0.00000     0.00000
  -------------------------------------------------------------------------------------
  Total      -5.27954    -5.92399   -20.09504     0.55812    -0.01930     0.01114
  in kB     -26.83283   -30.10821  -102.13146     2.83658    -0.09807     0.05662
  external pressure =      -53.02 kB  Pullay stress =        0.00 kB


 VOLUME and BASIS-vectors are now :
 -----------------------------------------------------------------------------
  energy-cutoff  :      520.00
  volume of cell :      315.24
      direct lattice vectors                 reciprocal lattice vectors
     2.581154139 -1.532413801  0.002747772     0.390243588  0.004749556 -0.000206964
    -0.036532577  3.001551301 -0.002747772     0.199235032  0.335586181  0.000206964
     0.022204590 -0.038459471 40.985498430    -0.000012806  0.000022180  0.024398901

  length of vectors
     3.001775525  3.001774874 40.985522490     0.390272545  0.390272630  0.024398915


 FORCES acting on ions
    electron-ion (+dipol)            ewald-force                    non-local-force                 convergence-correction
 -----------------------------------------------------------------------------------------------
   -.129E+01 0.223E+01 0.119E+04   0.153E+01 -.266E+01 -.119E+04   -.247E+00 0.427E+00 0.381E+00   -.619E-05 0.107E-04 0.601E-01
   -.206E+00 0.357E+00 0.399E+03   0.206E+00 -.357E+00 -.399E+03   -.176E-03 0.305E-03 -.105E-01   -.702E-04 0.122E-03 0.125E-01
   0.206E+00 -.357E+00 -.399E+03   -.206E+00 0.357E+00 0.399E+03   0.178E-03 -.308E-03 0.119E-01   0.821E-04 -.142E-03 -.200E-01
   0.129E+01 -.223E+01 -.119E+04   -.153E+01 0.266E+01 0.119E+04   0.247E+00 -.427E+00 -.383E+00   0.145E-05 -.251E-05 -.536E-01
   -.377E+00 0.653E+00 0.929E+03   0.395E+00 -.685E+00 -.929E+03   -.187E-01 0.323E-01 0.195E-01   -.263E-04 0.455E-04 0.616E-01
   -.356E+00 0.617E+00 0.664E+03   0.358E+00 -.620E+00 -.664E+03   -.533E-03 0.923E-03 -.195E-01   0.226E-04 -.392E-04 0.393E-01
   -.687E-01 0.119E+00 0.133E+03   0.681E-01 -.118E+00 -.133E+03   0.282E-03 -.489E-03 -.191E-01   0.109E-04 -.189E-04 -.407E-03
   0.688E-01 -.119E+00 -.133E+03   -.682E-01 0.118E+00 0.133E+03   -.253E-03 0.439E-03 0.214E-01   -.273E-05 0.472E-05 -.116E-01
   0.357E+00 -.618E+00 -.664E+03   -.358E+00 0.620E+00 0.664E+03   0.576E-03 -.998E-03 0.183E-01   -.301E-04 0.521E-04 -.403E-01
   0.377E+00 -.652E+00 -.929E+03   -.395E+00 0.684E+00 0.929E+03   0.186E-01 -.323E-01 -.208E-01   0.213E-04 -.369E-04 -.575E-01
   -.155E+00 0.269E+00 0.266E+03   0.153E+00 -.265E+00 -.266E+03   0.363E-02 -.628E-02 -.689E-02   -.123E-04 0.213E-04 0.171E-01
   -.400E-04 0.692E-04 0.998E-02   0.303E-04 -.525E-04 -.844E-02   0.137E-04 -.237E-04 0.301E-03   0.961E-06 -.167E-05 -.214E-02
   0.155E+00 -.269E+00 -.266E+03   -.153E+00 0.265E+00 0.266E+03   -.357E-02 0.618E-02 0.679E-02   0.120E-04 -.208E-04 -.165E-01
   0.686E+00 -.119E+01 0.354E+03   -.408E+00 0.707E+00 -.354E+03   -.280E+00 0.485E+00 -.919E-01   -.648E-05 0.112E-04 0.222E-01
   -.860E-01 0.149E+00 0.177E+03   0.873E-01 -.151E+00 -.177E+03   -.184E-02 0.318E-02 -.666E-02   -.787E-05 0.136E-04 0.840E-02
   -.460E-01 0.797E-01 0.888E+02   0.462E-01 -.799E-01 -.888E+02   -.182E-03 0.315E-03 -.240E-02   0.207E-05 -.359E-05 0.144E-02
   0.457E-01 -.792E-01 -.887E+02   -.459E-01 0.795E-01 0.887E+02   0.263E-03 -.455E-03 0.256E-02   -.171E-06 0.296E-06 -.480E-02
   0.861E-01 -.149E+00 -.177E+03   -.873E-01 0.151E+00 0.177E+03   0.183E-02 -.317E-02 0.682E-02   0.865E-05 -.150E-04 -.984E-02
   -.686E+00 0.119E+01 -.354E+03   0.408E+00 -.706E+00 0.354E+03   0.280E+00 -.485E+00 0.911E-01   0.549E-05 -.951E-05 -.203E-01
   0.388E-04 -.672E-04 0.671E-02   -.130E-04 0.225E-04 -.701E-02   -.303E-04 0.525E-04 0.133E-03   -.432E-07 0.749E-07 0.226E-03
   0.307E+00 -.532E+00 0.649E+03   -.299E+00 0.518E+00 -.653E+03   -.590E-02 0.102E-01 0.396E+01   -.187E-04 0.324E-04 0.254E-01
   -.115E+00 0.199E+00 0.452E+03   0.146E+00 -.252E+00 -.452E+03   -.297E-01 0.515E-01 0.125E+00   -.107E-04 0.185E-04 0.207E-01
   -.198E+00 0.343E+00 0.218E+03   0.157E+00 -.272E+00 -.219E+03   0.403E-01 -.698E-01 0.150E+00   -.566E-05 0.980E-05 0.120E-01
   -.307E+00 0.532E+00 -.649E+03   0.299E+00 -.518E+00 0.653E+03   0.594E-02 -.103E-01 -.396E+01   0.172E-04 -.299E-04 -.222E-01
   0.198E+00 -.342E+00 -.218E+03   -.157E+00 0.272E+00 0.219E+03   -.402E-01 0.697E-01 -.151E+00   0.520E-05 -.901E-05 -.111E-01
   0.115E+00 -.199E+00 -.452E+03   -.146E+00 0.252E+00 0.452E+03   0.297E-01 -.515E-01 -.125E+00   0.937E-05 -.162E-04 -.186E-01
 -----------------------------------------------------------------------------------------------
   -.341E-03 0.591E-03 0.909E-02   -.167E-13 0.440E-13 0.102E-11   0.330E-03 -.572E-03 -.108E-02   0.194E-05 -.336E-05 -.799E-02
 
 
 POSITION                                       TOTAL-FORCE (eV/Angst)
 -----------------------------------------------------------------------------------
      1.29694      0.69191     10.16686        -0.000840      0.001455      0.003531
      1.29965      0.68721     17.76268        -0.000464      0.000804     -0.005871
      1.26832      0.74147     25.35719         0.000456     -0.000790      0.006268
      1.27103      0.73678     32.95279         0.000806     -0.001395     -0.003906
      2.19301     -0.86013     12.69398        -0.000111      0.000193     -0.005739
      0.43698      2.18140     15.22683         0.000950     -0.001645     -0.011493
      2.16181     -0.80609     20.29692        -0.000347      0.000602     -0.011193
      0.40617      2.23477     22.82303         0.000322     -0.000558      0.011644
      2.13100     -0.75272     27.89296        -0.000994      0.001722      0.010965
      0.37495      2.28884     30.42570         0.000161     -0.000279      0.005705
      1.31471      0.66112     13.96079         0.001473     -0.002552      0.010007
      1.28399      0.71434     21.55996         0.000005     -0.000009     -0.000300
      1.25325      0.76758     29.15894        -0.001446      0.002505     -0.009325
      0.45583      2.14875     11.42326        -0.001967      0.003406      0.010371
      2.17730     -0.83292     16.49789        -0.000603      0.001045     -0.005954
      0.42190      2.20753     19.02708        -0.000017      0.000029     -0.003429
      2.14607     -0.77883     24.09283         0.000051     -0.000088      0.002413
      0.39068      2.26160     26.62193         0.000596     -0.001032      0.006065
      2.11214     -0.72006     31.69645         0.001965     -0.003404     -0.010308
     -0.03593      3.00050      1.06444        -0.000004      0.000007      0.000067
      2.55989     -1.49559      8.67931         0.002320     -0.004019      0.017018
      1.76748     -0.12309      6.20750         0.001134     -0.001963     -0.000594
      0.82462      1.51000      3.58921        -0.000433      0.000751      0.010169
      0.00809      2.92426     34.44035        -0.002314      0.004008     -0.016511
      1.74340     -0.08139     39.53070         0.000439     -0.000761     -0.010271
      0.80051      1.55174     36.91222        -0.001136      0.001968      0.000673
 -----------------------------------------------------------------------------------
    total drift:                               -0.000009      0.000016      0.000018


--------------------------------------------------------------------------------------------------------



  FREE ENERGIE OF THE ION-ELECTRON SYSTEM (eV)
  ---------------------------------------------------
  free  energy   TOTEN  =      -140.47312990 eV

  energy  without entropy=     -140.46809123  energy(sigma->0) =     -140.47061057
 
 d Force = 0.1530548E-03[ 0.100E-03, 0.206E-03]  d Energy = 0.1532457E-03-0.191E-06
 d Force =-0.3229288E+01[-0.323E+01,-0.323E+01]  d Ewald  =-0.3229288E+01 0.430E-07


--------------------------------------------------------------------------------------------------------


    POTLOK:  cpu time    0.20: real time    0.20


--------------------------------------------------------------------------------------------------------


 Conjugate gradient step on ions:
 trial-energy change:   -0.000153  1 .order   -0.000153   -0.000206   -0.000100
  (g-gl).g = 0.179E-03      g.g   = 0.208E-03  gl.gl    = 0.656E-03
 g(Force)  = 0.208E-03   g(Stress)= 0.000E+00 ortho     = 0.219E-04
 gamma     =   0.27224
 trial     =   0.96020
 opt step  =   1.87499  (harmonic =   1.87499) maximal distance =0.00376755
 next E    =  -140.473178   (d E  =  -0.00020)


--------------------------------------------------------------------------------------------------------


  
 reached required accuracy - stopping structural energy minimisation
     LOOP+:  cpu time   67.45: real time   67.49
    4ORBIT:  cpu time    0.00: real time    0.00

 total amount of memory used by VASP on root node   196703. kBytes
========================================================================

   base      :      30000. kBytes
   nonl-proj :      33763. kBytes
   fftplans  :      55171. kBytes
   grid      :      22118. kBytes
   one-center:         56. kBytes
   wavefun   :      55595. kBytes
 
  
  
 General timing and accounting informations for this job:
 ========================================================
  
                  Total CPU time used (sec):     2665.512
                            User time (sec):     2649.212
                          System time (sec):       16.300
                         Elapsed time (sec):     2667.442
  
                   Maximum memory used (kb):      306748.
                   Average memory used (kb):           0.
  
                          Minor page faults:       707248
                          Major page faults:            0
                 Voluntary context switches:          150
