       N       E                     dE             d eps       ncg     rms          rms(c)
DAV:   1     0.691794140872E+03    0.69179E+03   -0.37595E+04  6490   0.116E+03
DAV:   2    -0.282537440340E+02   -0.72005E+03   -0.68439E+03  8350   0.262E+02
DAV:   3    -0.144961068436E+03   -0.11671E+03   -0.11588E+03  7540   0.109E+02
DAV:   4    -0.148374353627E+03   -0.34133E+01   -0.34043E+01  7660   0.219E+01
DAV:   5    -0.148467791535E+03   -0.93438E-01   -0.93388E-01  8970   0.332E+00    0.221E+01
DAV:   6    -0.133353276601E+03    0.15115E+02   -0.88316E+01  7175   0.277E+01    0.725E+00
DAV:   7    -0.133133678694E+03    0.21960E+00   -0.99263E+00  7360   0.731E+00    0.489E+00
DAV:   8    -0.132996009918E+03    0.13767E+00   -0.54446E+00  7475   0.438E+00    0.316E+00
DAV:   9    -0.132782103578E+03    0.21391E+00   -0.19772E+00  7460   0.396E+00    0.575E-01
DAV:  10    -0.132767834447E+03    0.14269E-01   -0.18129E-01  7460   0.128E+00    0.438E-01
DAV:  11    -0.132766190466E+03    0.16440E-02   -0.13048E-02  7380   0.402E-01    0.348E-01
DAV:  12    -0.132764242377E+03    0.19481E-02   -0.11760E-03  9030   0.345E-01    0.228E-01
DAV:  13    -0.132762262331E+03    0.19800E-02   -0.47133E-03  7895   0.402E-01    0.164E-01
DAV:  14    -0.132758620750E+03    0.36416E-02   -0.15208E-03  7380   0.340E-01    0.588E-02
DAV:  15    -0.132756767321E+03    0.18534E-02   -0.68203E-04  7850   0.271E-01    0.550E-02
DAV:  16    -0.132755412856E+03    0.13545E-02   -0.53030E-04  7970   0.197E-01    0.451E-02
DAV:  17    -0.132750913631E+03    0.44992E-02   -0.27003E-03  8905   0.702E-01    0.357E-02
DAV:  18    -0.132749448867E+03    0.14648E-02   -0.14121E-03  7380   0.235E-01    0.314E-02
DAV:  19    -0.132748808010E+03    0.64086E-03   -0.48128E-04  8025   0.140E-01    0.283E-02
DAV:  20    -0.132748175064E+03    0.63295E-03   -0.23760E-04  7965   0.148E-01    0.338E-02
DAV:  21    -0.132747864658E+03    0.31041E-03   -0.18219E-04  7760   0.125E-01    0.281E-02
DAV:  22    -0.132747746650E+03    0.11801E-03   -0.23724E-04  8220   0.127E-01    0.238E-02
DAV:  23    -0.132747739469E+03    0.71815E-05   -0.10419E-04  7180   0.683E-02    0.192E-02
DAV:  24    -0.132747609118E+03    0.13035E-03   -0.22771E-04  7755   0.161E-01    0.166E-02
DAV:  25    -0.132747565024E+03    0.44094E-04   -0.88166E-05  7250   0.637E-02    0.145E-02
DAV:  26    -0.132747580410E+03   -0.15387E-04   -0.67071E-05  6890   0.580E-02    0.138E-02
DAV:  27    -0.132747597260E+03   -0.16849E-04   -0.37699E-05  6945   0.489E-02    0.140E-02
DAV:  28    -0.132747612723E+03   -0.15464E-04   -0.27162E-05  6540   0.276E-02    0.132E-02
DAV:  29    -0.132747628280E+03   -0.15556E-04   -0.16145E-05  4850   0.188E-02    0.970E-03
DAV:  30    -0.132747633996E+03   -0.57166E-05   -0.11108E-05  4470   0.144E-02
   1 F= -.13274763E+03 E0= -.13274483E+03  d E =-.561285E-02
