 vasp.5.4.4.18Apr17-6-g9f103f2a35 (build Nov 15 2019 10:10:58) complex          
  
 executed on             LinuxIFC date 2024.07.31  14:33:59
 running on   20 total cores
 distrk:  each k-point on   20 cores,    1 groups
 distr:  one band on NCORES_PER_BAND=   4 cores,    5 groups


--------------------------------------------------------------------------------------------------------


 INCAR:
 POTCAR:    PAW_PBE O 08Apr2002                   
 POTCAR:    PAW_PBE Mg 13Apr2007                  
 POTCAR:    PAW_PBE Al 04Jan2001                  
 POTCAR:    PAW_PBE O 08Apr2002                   
   VRHFIN =O: s2p4                                                              
   LEXCH  = PE                                                                  
   EATOM  =   432.3788 eV,   31.7789 Ry                                         
                                                                                
   TITEL  = PAW_PBE O 08Apr2002                                                 
   LULTRA =        F    use ultrasoft PP ?                                      
   IUNSCR =        1    unscreen: 0-lin 1-nonlin 2-no                           
   RPACOR =    1.200    partial core radius                                     
   POMASS =   16.000; ZVAL   =    6.000    mass and valenz                      
   RCORE  =    1.520    outmost cutoff radius                                   
   RWIGS  =    1.550; RWIGS  =    0.820    wigner-seitz radius (au A)           
   ENMAX  =  400.000; ENMIN  =  300.000 eV                                      
   ICORE  =        2    local potential                                         
   LCOR   =        T    correct aug charges                                     
   LPAW   =        T    paw PP                                                  
   EAUG   =  605.392                                                            
   DEXC   =    0.000                                                            
   RMAX   =    1.553    core radius for proj-oper                               
   RAUG   =    1.300    factor for augmentation sphere                          
   RDEP   =    1.550    radius for radial grids                                 
   RDEPT  =    1.329    core radius for aug-charge                              
                                                                                
   Atomic configuration                                                         
    4 entries                                                                   
     n  l   j            E        occ.                                          
     1  0  0.50      -514.6923   2.0000                                         
     2  0  0.50       -23.9615   2.0000                                         
     2  1  0.50        -9.0305   4.0000                                         
     3  2  1.50        -9.5241   0.0000                                         
   Description                                                                  
     l       E           TYP  RCUT    TYP  RCUT                                 
     0    -23.9615318     23  1.200                                             
     0     -9.5240782     23  1.200                                             
     1     -9.0304911     23  1.520                                             
     1      8.1634956     23  1.520                                             
     2     -9.5240782      7  1.500                                             
  local pseudopotential read in
  partial core-charges read in
  partial kinetic energy density read in
  kinetic energy density of atom read in
  atomic valenz-charges read in
  non local Contribution for L=           0  read in
    real space projection operators read in
  non local Contribution for L=           0  read in
    real space projection operators read in
  non local Contribution for L=           1  read in
    real space projection operators read in
  non local Contribution for L=           1  read in
    real space projection operators read in
    PAW grid and wavefunctions read in
 
   number of l-projection  operators is LMAX  =           4
   number of lm-projection operators is LMMAX =           8
 
 POTCAR:    PAW_PBE Mg 13Apr2007                  
   VRHFIN =Mg: s2p0                                                             
   LEXCH  = PE                                                                  
   EATOM  =    23.0369 eV,    1.6932 Ry                                         
                                                                                
   TITEL  = PAW_PBE Mg 13Apr2007                                                
   LULTRA =        F    use ultrasoft PP ?                                      
   IUNSCR =        1    unscreen: 0-lin 1-nonlin 2-no                           
   RPACOR =    1.500    partial core radius                                     
   POMASS =   24.305; ZVAL   =    2.000    mass and valenz                      
   RCORE  =    2.000    outmost cutoff radius                                   
   RWIGS  =    2.880; RWIGS  =    1.524    wigner-seitz radius (au A)           
   ENMAX  =  200.000; ENMIN  =  100.000 eV                                      
   RCLOC  =    1.506    cutoff for local pot                                    
   LCOR   =        T    correct aug charges                                     
   LPAW   =        T    paw PP                                                  
   EAUG   =  454.734                                                            
   DEXC   =    0.000                                                            
   RMAX   =    2.045    core radius for proj-oper                               
   RAUG   =    1.300    factor for augmentation sphere                          
   RDEP   =    2.025    radius for radial grids                                 
   RDEPT  =    1.942    core radius for aug-charge                              
                                                                                
   Atomic configuration                                                         
    6 entries                                                                   
     n  l   j            E        occ.                                          
     1  0  0.50     -1259.6230   2.0000                                         
     2  0  0.50       -79.8442   2.0000                                         
     2  1  1.50       -46.6121   6.0000                                         
     3  0  0.50        -4.7055   2.0000                                         
     3  1  0.50        -1.3660   0.0000                                         
     3  2  1.50        -1.3606   0.0000                                         
   Description                                                                  
     l       E           TYP  RCUT    TYP  RCUT                                 
     0     -4.7054661     23  2.000                                             
     0     27.2116520     23  2.000                                             
     1      1.3605826     23  2.000                                             
     1     27.2116520     23  2.000                                             
     2     -1.3605826     23  2.000                                             
  local pseudopotential read in
  partial core-charges read in
  partial kinetic energy density read in
  atomic valenz-charges read in
  non local Contribution for L=           0  read in
    real space projection operators read in
  non local Contribution for L=           0  read in
    real space projection operators read in
  non local Contribution for L=           1  read in
    real space projection operators read in
  non local Contribution for L=           1  read in
    real space projection operators read in
  non local Contribution for L=           2  read in
    real space projection operators read in
    PAW grid and wavefunctions read in
 
   number of l-projection  operators is LMAX  =           5
   number of lm-projection operators is LMMAX =          13
 
 POTCAR:    PAW_PBE Al 04Jan2001                  
   VRHFIN =Al: s2p1                                                             
   LEXCH  = PE                                                                  
   EATOM  =    53.5387 eV,    3.9350 Ry                                         
                                                                                
   TITEL  = PAW_PBE Al 04Jan2001                                                
   LULTRA =        F    use ultrasoft PP ?                                      
   IUNSCR =        1    unscreen: 0-lin 1-nonlin 2-no                           
   RPACOR =    1.500    partial core radius                                     
   POMASS =   26.981; ZVAL   =    3.000    mass and valenz                      
   RCORE  =    1.900    outmost cutoff radius                                   
   RWIGS  =    2.650; RWIGS  =    1.402    wigner-seitz radius (au A)           
   ENMAX  =  240.300; ENMIN  =  180.225 eV                                      
   ICORE  =        2    local potential                                         
   LCOR   =        T    correct aug charges                                     
   LPAW   =        T    paw PP                                                  
   EAUG   =  291.052                                                            
   DEXC   =    0.000                                                            
   RMAX   =    1.939    core radius for proj-oper                               
   RAUG   =    1.300    factor for augmentation sphere                          
   RDEP   =    1.966    radius for radial grids                                 
   RDEPT  =    1.856    core radius for aug-charge                              
                                                                                
   Atomic configuration                                                         
    6 entries                                                                   
     n  l   j            E        occ.                                          
     1  0  0.50     -1511.1048   2.0000                                         
     2  0  0.50      -108.1629   2.0000                                         
     2  1  1.50       -69.6402   6.0000                                         
     3  0  0.50        -7.7528   2.0000                                         
     3  1  1.50        -2.7121   1.0000                                         
     3  2  2.50        -2.7212   0.0000                                         
   Description                                                                  
     l       E           TYP  RCUT    TYP  RCUT                                 
     0     -7.7528455     23  1.900                                             
     0     -3.3096929     23  1.900                                             
     1     -2.7120682     23  1.900                                             
     1     13.6058260     23  1.900                                             
     2     -2.7211652      7  1.900                                             
  local pseudopotential read in
  partial core-charges read in
  partial kinetic energy density read in
  atomic valenz-charges read in
  non local Contribution for L=           0  read in
    real space projection operators read in
  non local Contribution for L=           0  read in
    real space projection operators read in
  non local Contribution for L=           1  read in
    real space projection operators read in
  non local Contribution for L=           1  read in
    real space projection operators read in
    PAW grid and wavefunctions read in
 
   number of l-projection  operators is LMAX  =           4
   number of lm-projection operators is LMMAX =           8
 

 ----------------------------------------------------------------------------- 
|                                                                             |
|  ADVICE TO THIS USER RUNNING 'VASP/VAMP'   (HEAR YOUR MASTER'S VOICE ...):  |
|                                                                             |
|      You have a (more or less) 'large supercell' and for larger cells       |
|      it might be more efficient to use real space projection opertators     |
|      So try LREAL= Auto  in the INCAR   file.                               |
|      Mind:          For very  accurate calculation you might also keep the  |
|      reciprocal projection scheme          (i.e. LREAL=.FALSE.)             |
|                                                                             |
 ----------------------------------------------------------------------------- 

  PAW_PBE O 08Apr2002                   :
 energy of atom  1       EATOM= -432.3788
 kinetic energy error for atom=    0.0208 (will be added to EATOM!!)
  PAW_PBE Mg 13Apr2007                  :
 energy of atom  2       EATOM=  -23.0369
 kinetic energy error for atom=    0.0000 (will be added to EATOM!!)
  PAW_PBE Al 04Jan2001                  :
 energy of atom  3       EATOM=  -53.5387
 kinetic energy error for atom=    0.0002 (will be added to EATOM!!)
 
 
 POSCAR: Layer (20)                              
  positions in direct lattice
  velocities in cartesian coordinates
 exchange correlation table for  LEXCH =        8
   RHO(1)=    0.500       N(1)  =     2000
   RHO(2)=  100.500       N(2)  =     4000

 VTST: version 3.2, (02/03/18)

 CHAIN: initializing optimizer
 
 OPT: Using VASP Dynamics algorithm
 CHAIN: Read ICHAIN            0
 
 POSCAR: Layer (20)                              
  positions in direct lattice
  velocities in cartesian coordinates
 


--------------------------------------------------------------------------------------------------------


 ion  position               nearest neighbor table
   1  0.000  0.000  0.498-  17 2.11  17 2.11  17 2.11  14 2.12  14 2.12  14 2.12
   2  0.333  0.667  0.529-  14 2.11  14 2.11  14 2.11  11 2.12  11 2.12  11 2.12
   3  0.000  0.000  0.590-  18 2.11  18 2.11  18 2.11  15 2.12  15 2.12  15 2.12
   4  0.333  0.667  0.621-  15 2.11  15 2.11  15 2.11  12 2.12  12 2.12  12 2.12
   5  0.000  0.000  0.683-  19 2.11  19 2.11  19 2.11  16 2.12  16 2.12  16 2.12
   6  0.333  0.667  0.713-  16 2.11  16 2.11  16 2.11  13 2.15  13 2.15  13 2.15
   7  0.667  0.333  0.467-  17 2.12  17 2.12  17 2.12  10 2.12  10 2.12  10 2.12
   8  0.667  0.333  0.559-  11 2.11  11 2.11  11 2.11  18 2.12  18 2.12  18 2.12
   9  0.667  0.333  0.652-  12 2.11  12 2.11  12 2.11  19 2.12  19 2.12  19 2.12
  10  0.000  0.000  0.452-   7 2.12   7 2.12   7 2.12  22 2.73  17 3.02  17 3.02  17 3.02
  11  0.000  0.000  0.544-   8 2.11   8 2.11   8 2.11   2 2.12   2 2.12   2 2.12  14 3.00  14 3.00
                            14 3.00  18 3.00  18 3.00  18 3.00
  12  0.000  0.000  0.637-   9 2.11   9 2.11   9 2.11   4 2.12   4 2.12   4 2.12  15 3.00  15 3.00
                            15 3.00  19 3.00  19 3.00  19 3.00
  13  0.000  0.000  0.730-   6 2.15   6 2.15   6 2.15  16 3.04  16 3.04  16 3.04
  14  0.667  0.333  0.513-   2 2.11   2 2.11   2 2.11   1 2.12   1 2.12   1 2.12  11 3.00  11 3.00
                            11 3.00  17 3.00  17 3.00  17 3.00
  15  0.667  0.333  0.606-   4 2.11   4 2.11   4 2.11   3 2.12   3 2.12   3 2.12  18 3.00  18 3.00
                            18 3.00  12 3.00  12 3.00  12 3.00
  16  0.667  0.333  0.698-   6 2.11   6 2.11   6 2.11   5 2.12   5 2.12   5 2.12  19 3.00  19 3.00
                            19 3.00  13 3.04  13 3.04  13 3.04
  17  0.333  0.667  0.483-   1 2.11   1 2.11   1 2.11   7 2.12   7 2.12   7 2.12  14 3.00  14 3.00
                            14 3.00  10 3.02  10 3.02  10 3.02
  18  0.333  0.667  0.575-   3 2.11   3 2.11   3 2.11   8 2.12   8 2.12   8 2.12  11 3.00  11 3.00
                            11 3.00  15 3.00  15 3.00  15 3.00
  19  0.333  0.667  0.667-   5 2.11   5 2.11   5 2.11   9 2.12   9 2.12   9 2.12  12 3.00  12 3.00
                            12 3.00  16 3.00  16 3.00  16 3.00
  20  0.000  0.000  0.250-  25 2.84  25 2.84  25 2.84
  21  0.000  0.000  0.334-  23 2.81  23 2.81  23 2.81  26 2.81  26 2.81  26 2.81
  22  0.000  0.000  0.417-  10 2.73  24 2.80  24 2.80  24 2.80
  23  0.667  0.333  0.306-  21 2.81  21 2.81  21 2.81  25 2.81  25 2.81  25 2.81
  24  0.667  0.333  0.390-  22 2.80  22 2.80  22 2.80  26 2.82  26 2.82  26 2.82
  25  0.333  0.667  0.278-  23 2.81  23 2.81  23 2.81  20 2.84  20 2.84  20 2.84
  26  0.333  0.667  0.362-  21 2.81  21 2.81  21 2.81  24 2.82  24 2.82  24 2.82
 
  LATTYP: Found a hexagonal cell.
 ALAT       =     2.9843038928
 C/A-ratio  =    26.7275165977
  
  Lattice vectors:
  
 A1 = (   2.5844879337,  -1.4921433729,   0.0000000000)
 A2 = (   0.0000000000,   2.9842867459,   0.0000000000)
 A3 = (   0.0000000000,   0.0000000000,  79.7630318286)


Analysis of symmetry for initial positions (statically):
=====================================================================
 Subroutine PRICEL returns:
 Original cell was already a primitive cell.
 

 Routine SETGRP: Setting up the symmetry group for a 
 hexagonal supercell.


 Subroutine GETGRP returns: Found  6 space group operations
 (whereof  6 operations were pure point group operations)
 out of a pool of 24 trial point group operations.


The static configuration has the point symmetry C_3v.


Analysis of symmetry for dynamics (positions and initial velocities):
=====================================================================
 Subroutine PRICEL returns:
 Original cell was already a primitive cell.
 

 Routine SETGRP: Setting up the symmetry group for a 
 hexagonal supercell.


 Subroutine GETGRP returns: Found  6 space group operations
 (whereof  6 operations were pure point group operations)
 out of a pool of 24 trial point group operations.


The dynamic configuration has the point symmetry C_3v.


Analysis of constrained symmetry for selective dynamics:
=====================================================================
 Subroutine PRICEL returns:
 Original cell was already a primitive cell.
 

 Routine SETGRP: Setting up the symmetry group for a 
 hexagonal supercell.


 Subroutine GETGRP returns: Found  6 space group operations
 (whereof  6 operations were pure point group operations)
 out of a pool of 24 trial point group operations.


The constrained configuration has the point symmetry C_3v.


 Subroutine INISYM returns: Found  6 space group operations
 (whereof  6 operations are pure point group operations),
 and found     1 'primitive' translations

 
 
 KPOINTS: K-Spacing Value to Generate K-Mesh: 0.02

Automatic generation of k-mesh.
Space group operators:
 irot       det(A)        alpha          n_x          n_y          n_z        tau_x        tau_y        tau_z
    1     1.000000     0.000001     1.000000     0.000000     0.000000     0.000000     0.000000     0.000000
    2     1.000000   120.000000     0.000000    -0.000000    -1.000000     0.000000     0.000000     0.000000
    3     1.000000   120.000000     0.000000    -0.000000     1.000000     0.000000     0.000000     0.000000
    4    -1.000000   180.000000     0.866024    -0.500003     0.000000     0.000000     0.000000     0.000000
    5    -1.000000   180.000000     0.000000     1.000000     0.000000     0.000000     0.000000     0.000000
    6    -1.000000   180.000000     0.866024     0.500003    -0.000000     0.000000     0.000000     0.000000
 
 Subroutine IBZKPT returns following result:
 ===========================================
 
 Found     48 irreducible k-points:
 
 Following reciprocal coordinates:
            Coordinates               Weight
  0.000000  0.000000  0.000000      1.000000
  0.047619 -0.000000 -0.000000      6.000000
  0.095238 -0.000000 -0.000000      6.000000
  0.142857  0.000000 -0.000000      6.000000
  0.190476 -0.000000 -0.000000      6.000000
  0.238095  0.000000 -0.000000      6.000000
  0.285714  0.000000  0.000000      6.000000
  0.333333 -0.000000 -0.000000      6.000000
  0.380952 -0.000000 -0.000000      6.000000
  0.428571  0.000000 -0.000000      6.000000
  0.476190  0.000000 -0.000000      6.000000
  0.047619  0.047619  0.000000      6.000000
  0.095238  0.047619  0.000000     12.000000
  0.142857  0.047619  0.000000     12.000000
  0.190476  0.047619 -0.000000     12.000000
  0.238095  0.047619 -0.000000     12.000000
  0.285714  0.047619  0.000000     12.000000
  0.333333  0.047619 -0.000000     12.000000
  0.380952  0.047619 -0.000000     12.000000
  0.428571  0.047619 -0.000000     12.000000
  0.476190  0.047619 -0.000000      6.000000
  0.095238  0.095238  0.000000      6.000000
  0.142857  0.095238  0.000000     12.000000
  0.190476  0.095238  0.000000     12.000000
  0.238095  0.095238  0.000000     12.000000
  0.285714  0.095238  0.000000     12.000000
  0.333333  0.095238 -0.000000     12.000000
  0.380952  0.095238 -0.000000     12.000000
  0.428571  0.095238 -0.000000     12.000000
  0.142857  0.142857 -0.000000      6.000000
  0.190476  0.142857  0.000000     12.000000
  0.238095  0.142857  0.000000     12.000000
  0.285714  0.142857  0.000000     12.000000
  0.333333  0.142857  0.000000     12.000000
  0.380952  0.142857  0.000000     12.000000
  0.428571  0.142857  0.000000      6.000000
  0.190476  0.190476 -0.000000      6.000000
  0.238095  0.190476 -0.000000     12.000000
  0.285714  0.190476 -0.000000     12.000000
  0.333333  0.190476 -0.000000     12.000000
  0.380952  0.190476 -0.000000     12.000000
  0.238095  0.238095  0.000000      6.000000
  0.285714  0.238095  0.000000     12.000000
  0.333333  0.238095  0.000000     12.000000
  0.380952  0.238095  0.000000      6.000000
  0.285714  0.285714 -0.000000      6.000000
  0.333333  0.285714  0.000000     12.000000
  0.333333  0.333333  0.000000      2.000000
 
 Following cartesian coordinates:
            Coordinates               Weight
  0.000000  0.000000  0.000000      1.000000
  0.018425  0.000000 -0.000000      6.000000
  0.036850  0.000000 -0.000000      6.000000
  0.055275  0.000000 -0.000000      6.000000
  0.073700  0.000000 -0.000000      6.000000
  0.092125  0.000000 -0.000000      6.000000
  0.110550  0.000000 -0.000000      6.000000
  0.128975  0.000000 -0.000000      6.000000
  0.147400  0.000000 -0.000000      6.000000
  0.165825  0.000000 -0.000000      6.000000
  0.184249  0.000000 -0.000000      6.000000
  0.027637  0.015957 -0.000000      6.000000
  0.046062  0.015957 -0.000000     12.000000
  0.064487  0.015957 -0.000000     12.000000
  0.082912  0.015957 -0.000000     12.000000
  0.101337  0.015957 -0.000000     12.000000
  0.119762  0.015957 -0.000000     12.000000
  0.138187  0.015957 -0.000000     12.000000
  0.156612  0.015957 -0.000000     12.000000
  0.175037  0.015957 -0.000000     12.000000
  0.193462  0.015957 -0.000000      6.000000
  0.055275  0.031913 -0.000000      6.000000
  0.073700  0.031913 -0.000000     12.000000
  0.092125  0.031913 -0.000000     12.000000
  0.110550  0.031913 -0.000000     12.000000
  0.128975  0.031913 -0.000000     12.000000
  0.147400  0.031913 -0.000000     12.000000
  0.165825  0.031913 -0.000000     12.000000
  0.184249  0.031913 -0.000000     12.000000
  0.082912  0.047870 -0.000000      6.000000
  0.101337  0.047870 -0.000000     12.000000
  0.119762  0.047870 -0.000000     12.000000
  0.138187  0.047870 -0.000000     12.000000
  0.156612  0.047870 -0.000000     12.000000
  0.175037  0.047870 -0.000000     12.000000
  0.193462  0.047870 -0.000000      6.000000
  0.110550  0.063826 -0.000000      6.000000
  0.128975  0.063826 -0.000000     12.000000
  0.147400  0.063826 -0.000000     12.000000
  0.165825  0.063826 -0.000000     12.000000
  0.184249  0.063826 -0.000000     12.000000
  0.138187  0.079783 -0.000000      6.000000
  0.156612  0.079783 -0.000000     12.000000
  0.175037  0.079783 -0.000000     12.000000
  0.193462  0.079783 -0.000000      6.000000
  0.165825  0.095740 -0.000000      6.000000
  0.184249  0.095740 -0.000000     12.000000
  0.193462  0.111696 -0.000000      2.000000
 


--------------------------------------------------------------------------------------------------------




 Dimension of arrays:
   k-points           NKPTS =     48   k-points in BZ     NKDIM =     48   number of bands    NBANDS=     65
   number of dos      NEDOS =    301   number of ions     NIONS =     26
   non local maximal  LDIM  =      5   non local SUM 2l+1 LMDIM =     13
   total plane-waves  NPLWV = 345600
   max r-space proj   IRMAX =      1   max aug-charges    IRDMAX= 191088
   dimension x,y,z NGX =    24 NGY =   24 NGZ =  600
   dimension x,y,z NGXF=    48 NGYF=   48 NGZF= 1200
   support grid    NGXF=    96 NGYF=   96 NGZF= 2400
   ions per type =               9  10   7
   NGX,Y,Z   is equivalent  to a cutoff of  13.37, 13.37, 12.51 a.u.
   NGXF,Y,Z  is equivalent  to a cutoff of  26.74, 26.74, 25.01 a.u.

 SYSTEM =  unknown system                          
 POSCAR =  Layer (20)                              

 Startparameter for this run:
   NWRITE =      2    write-flag & timer
   PREC   = accura    normal or accurate (medium, high low for compatibility)
   ISTART =      0    job   : 0-new  1-cont  2-samecut
   ICHARG =      2    charge: 1-file 2-atom 10-const
   ISPIN  =      1    spin polarized calculation?
   LNONCOLLINEAR =      F non collinear calculations
   LSORBIT =      F    spin-orbit coupling
   INIWAV =      1    electr: 0-lowe 1-rand  2-diag
   LASPH  =      F    aspherical Exc in radial PAW
   METAGGA=      F    non-selfconsistent MetaGGA calc.

 Electronic Relaxation 1
   ENCUT  =  520.0 eV  38.22 Ry    6.18 a.u.   5.55  5.55148.31*2*pi/ulx,y,z
   ENINI  =  520.0     initial cutoff
   ENAUG  =  605.4 eV  augmentation charge cutoff
   NELM   =    100;   NELMIN=  6; NELMDL=  0     # of ELM steps 
   EDIFF  = 0.1E-04   stopping-criterion for ELM
   LREAL  =      F    real-space projection
   NLSPLINE    = F    spline interpolate recip. space projectors
   LCOMPAT=      F    compatible to vasp.4.4
   GGA_COMPAT  = T    GGA compatible to vasp.4.4-vasp.4.6
   LMAXPAW     = -100 max onsite density
   LMAXMIX     =    2 max onsite mixed and CHGCAR
   VOSKOWN=      0    Vosko Wilk Nusair interpolation
   ROPT   =    0.00000   0.00000   0.00000
 Ionic relaxation
   EDIFFG = -.2E-01   stopping-criterion for IOM
   NSW    =      0    number of steps for IOM
   NBLOCK =      1;   KBLOCK =      1    inner block; outer block 
   IBRION =     -1    ionic relax: 0-MD 1-quasi-New 2-CG
   NFREE  =      0    steps in history (QN), initial steepest desc. (CG)
   ISIF   =      4    stress and relaxation
   IWAVPR =     10    prediction:  0-non 1-charg 2-wave 3-comb
   ISYM   =      2    0-nonsym 1-usesym 2-fastsym
   LCORR  =      T    Harris-Foulkes like correction to forces

   POTIM  = 0.5000    time-step for ionic-motion
   TEIN   =    0.0    initial temperature
   TEBEG  =    0.0;   TEEND  =   0.0 temperature during run
   SMASS  =  -3.00    Nose mass-parameter (am)
   estimated Nose-frequenzy (Omega)   =  0.10E-29 period in steps =****** mass=  -0.204E-27a.u.
   SCALEE = 1.0000    scale energy and forces
   NPACO  =    256;   APACO  = 16.0  distance and # of slots for P.C.
   PSTRESS=    0.0 pullay stress

  Mass of Ions in am
   POMASS =  16.00 24.30 26.98
  Ionic Valenz
   ZVAL   =   6.00  2.00  3.00
  Atomic Wigner-Seitz radii
   RWIGS  =  -1.00 -1.00 -1.00
  virtual crystal weights 
   VCA    =   1.00  1.00  1.00
   NELECT =      95.0000    total number of electrons
   NUPDOWN=      -1.0000    fix difference up-down

 DOS related values:
   EMIN   =  10.00;   EMAX   =-10.00  energy-range for DOS
   EFERMI =   0.00
   ISMEAR =     0;   SIGMA  =   0.05  broadening in eV -4-tet -1-fermi 0-gaus

 Electronic relaxation 2 (details)
   IALGO  =     38    algorithm
   LDIAG  =      T    sub-space diagonalisation (order eigenvalues)
   LSUBROT=      F    optimize rotation matrix (better conditioning)
   TURBO    =      0    0=normal 1=particle mesh
   IRESTART =      0    0=no restart 2=restart with 2 vectors
   NREBOOT  =      0    no. of reboots
   NMIN     =      0    reboot dimension
   EREF     =   0.00    reference energy to select bands
   IMIX   =      4    mixing-type and parameters
     AMIX     =   0.40;   BMIX     =  1.00
     AMIX_MAG =   1.60;   BMIX_MAG =  1.00
     AMIN     =   0.01
     WC   =   100.;   INIMIX=   1;  MIXPRE=   1;  MAXMIX= -45

 Intra band minimization:
   WEIMIN = 0.0000     energy-eigenvalue tresh-hold
   EBREAK =  0.38E-07  absolut break condition
   DEPER  =   0.30     relativ break condition  

   TIME   =   0.40     timestep for ELM

  volume/ion in A,a.u.               =      23.66       159.68
  Fermi-wavevector in a.u.,A,eV,Ry     =   0.878302  1.659750 10.495726  0.771414
  Thomas-Fermi vector in A             =   1.998370
 
 Write flags
   LWAVE        =      F    write WAVECAR
   LDOWNSAMPLE  =      F    k-point downsampling of WAVECAR
   LCHARG       =      T    write CHGCAR
   LVTOT        =      F    write LOCPOT, total local potential
   LVHAR        =      F    write LOCPOT, Hartree potential only
   LELF         =      F    write electronic localiz. function (ELF)
   LORBIT       =      0    0 simple, 1 ext, 2 COOP (PROOUT), +10 PAW based schemes


 Dipole corrections
   LMONO  =      F    monopole corrections only (constant potential shift)
   LDIPOL =      F    correct potential (dipole corrections)
   IDIPOL =      0    1-x, 2-y, 3-z, 4-all directions 
   EPSILON=  1.0000000 bulk dielectric constant

 Exchange correlation treatment:
   GGA     =    --    GGA type
   LEXCH   =     8    internal setting for exchange type
   VOSKOWN=      0    Vosko Wilk Nusair interpolation
   LHFCALC =     F    Hartree Fock is set to
   LHFONE  =     F    Hartree Fock one center treatment
   AEXX    =    0.0000 exact exchange contribution

 Linear response parameters
   LEPSILON=     F    determine dielectric tensor
   LRPA    =     F    only Hartree local field effects (RPA)
   LNABLA  =     F    use nabla operator in PAW spheres
   LVEL    =     F    velocity operator in full k-point grid
   LINTERFAST=   F  fast interpolation
   KINTER  =     0    interpolate to denser k-point grid
   CSHIFT  =0.1000    complex shift for real part using Kramers Kronig
   OMEGAMAX=  -1.0    maximum frequency
   DEG_THRESHOLD= 0.2000000E-02 threshold for treating states as degnerate
   RTIME   =   -0.100 relaxation time in fs
  (WPLASMAI=    0.000 imaginary part of plasma frequency in eV, 0.658/RTIME)
   DFIELD  = 0.0000000 0.0000000 0.0000000 field for delta impulse in time
 
 Orbital magnetization related:
   ORBITALMAG=     F  switch on orbital magnetization
   LCHIMAG   =     F  perturbation theory with respect to B field
   DQ        =  0.001000  dq finite difference perturbation B field
   LLRAUG    =     F  two centre corrections for induced B field



--------------------------------------------------------------------------------------------------------


 Static calculation
 charge density and potential will be updated during run
 non-spin polarized calculation
 Variant of blocked Davidson
 Davidson routine will perform the subspace rotation
 perform sub-space diagonalisation
    after iterative eigenvector-optimisation
 modified Broyden-mixing scheme, WC =      100.0
 initial mixing is a Kerker type mixing with AMIX =  0.4000 and BMIX =      1.0000
 Hartree-type preconditioning will be used
 using additional bands           17
 reciprocal scheme for non local part
 use partial core corrections
 calculate Harris-corrections to forces 
   (improved forces if not selfconsistent)
 use gradient corrections 
 use of overlap-Matrix (Vanderbilt PP)
 Gauss-broadening in eV      SIGMA  =   0.05


--------------------------------------------------------------------------------------------------------


  energy-cutoff  :      520.00
  volume of cell :      615.20
      direct lattice vectors                 reciprocal lattice vectors
     2.584487934 -1.492143373  0.000000000     0.386923842  0.000000000 -0.000000000
     0.000000000  2.984286746  0.000000000     0.193461921  0.335088443 -0.000000000
     0.000000000  0.000000000 79.763031829    -0.000000000 -0.000000000  0.012537136

  length of vectors
     2.984303893  2.984286746 79.763031829     0.386923842  0.386926065  0.012537136


 
 k-points in units of 2pi/SCALE and weight: K-Spacing Value to Generate K-Mesh: 0.02
   0.00000000  0.00000000  0.00000000       0.002
   0.01842494  0.00000000 -0.00000000       0.014
   0.03684989  0.00000000 -0.00000000       0.014
   0.05527483  0.00000000 -0.00000000       0.014
   0.07369978  0.00000000 -0.00000000       0.014
   0.09212472  0.00000000 -0.00000000       0.014
   0.11054967  0.00000000 -0.00000000       0.014
   0.12897461  0.00000000 -0.00000000       0.014
   0.14739956  0.00000000 -0.00000000       0.014
   0.16582450  0.00000000 -0.00000000       0.014
   0.18424945  0.00000000 -0.00000000       0.014
   0.02763742  0.01595659 -0.00000000       0.014
   0.04606236  0.01595659 -0.00000000       0.027
   0.06448731  0.01595659 -0.00000000       0.027
   0.08291225  0.01595659 -0.00000000       0.027
   0.10133720  0.01595659 -0.00000000       0.027
   0.11976214  0.01595659 -0.00000000       0.027
   0.13818709  0.01595659 -0.00000000       0.027
   0.15661203  0.01595659 -0.00000000       0.027
   0.17503698  0.01595659 -0.00000000       0.027
   0.19346192  0.01595659 -0.00000000       0.014
   0.05527483  0.03191319 -0.00000000       0.014
   0.07369978  0.03191319 -0.00000000       0.027
   0.09212472  0.03191319 -0.00000000       0.027
   0.11054967  0.03191319 -0.00000000       0.027
   0.12897461  0.03191319 -0.00000000       0.027
   0.14739956  0.03191319 -0.00000000       0.027
   0.16582450  0.03191319 -0.00000000       0.027
   0.18424945  0.03191319 -0.00000000       0.027
   0.08291225  0.04786978 -0.00000000       0.014
   0.10133720  0.04786978 -0.00000000       0.027
   0.11976214  0.04786978 -0.00000000       0.027
   0.13818709  0.04786978 -0.00000000       0.027
   0.15661203  0.04786978 -0.00000000       0.027
   0.17503698  0.04786978 -0.00000000       0.027
   0.19346192  0.04786978 -0.00000000       0.014
   0.11054967  0.06382637 -0.00000000       0.014
   0.12897461  0.06382637 -0.00000000       0.027
   0.14739956  0.06382637 -0.00000000       0.027
   0.16582450  0.06382637 -0.00000000       0.027
   0.18424945  0.06382637 -0.00000000       0.027
   0.13818709  0.07978296 -0.00000000       0.014
   0.15661203  0.07978296 -0.00000000       0.027
   0.17503698  0.07978296 -0.00000000       0.027
   0.19346192  0.07978296 -0.00000000       0.014
   0.16582450  0.09573956 -0.00000000       0.014
   0.18424945  0.09573956 -0.00000000       0.027
   0.19346192  0.11169615 -0.00000000       0.005
 
 k-points in reciprocal lattice and weights: K-Spacing Value to Generate K-Mesh: 0.02
   0.00000000  0.00000000  0.00000000       0.002
   0.04761905 -0.00000000 -0.00000000       0.014
   0.09523810 -0.00000000 -0.00000000       0.014
   0.14285714  0.00000000 -0.00000000       0.014
   0.19047619 -0.00000000 -0.00000000       0.014
   0.23809524  0.00000000 -0.00000000       0.014
   0.28571429  0.00000000  0.00000000       0.014
   0.33333333 -0.00000000 -0.00000000       0.014
   0.38095238 -0.00000000 -0.00000000       0.014
   0.42857143  0.00000000 -0.00000000       0.014
   0.47619048  0.00000000 -0.00000000       0.014
   0.04761905  0.04761905  0.00000000       0.014
   0.09523810  0.04761905  0.00000000       0.027
   0.14285714  0.04761905  0.00000000       0.027
   0.19047619  0.04761905 -0.00000000       0.027
   0.23809524  0.04761905 -0.00000000       0.027
   0.28571429  0.04761905  0.00000000       0.027
   0.33333333  0.04761905 -0.00000000       0.027
   0.38095238  0.04761905 -0.00000000       0.027
   0.42857143  0.04761905 -0.00000000       0.027
   0.47619048  0.04761905 -0.00000000       0.014
   0.09523810  0.09523810  0.00000000       0.014
   0.14285714  0.09523810  0.00000000       0.027
   0.19047619  0.09523810  0.00000000       0.027
   0.23809524  0.09523810  0.00000000       0.027
   0.28571429  0.09523810  0.00000000       0.027
   0.33333333  0.09523810 -0.00000000       0.027
   0.38095238  0.09523810 -0.00000000       0.027
   0.42857143  0.09523810 -0.00000000       0.027
   0.14285714  0.14285714 -0.00000000       0.014
   0.19047619  0.14285714  0.00000000       0.027
   0.23809524  0.14285714  0.00000000       0.027
   0.28571429  0.14285714  0.00000000       0.027
   0.33333333  0.14285714  0.00000000       0.027
   0.38095238  0.14285714  0.00000000       0.027
   0.42857143  0.14285714  0.00000000       0.014
   0.19047619  0.19047619 -0.00000000       0.014
   0.23809524  0.19047619 -0.00000000       0.027
   0.28571429  0.19047619 -0.00000000       0.027
   0.33333333  0.19047619 -0.00000000       0.027
   0.38095238  0.19047619 -0.00000000       0.027
   0.23809524  0.23809524  0.00000000       0.014
   0.28571429  0.23809524  0.00000000       0.027
   0.33333333  0.23809524  0.00000000       0.027
   0.38095238  0.23809524  0.00000000       0.014
   0.28571429  0.28571429 -0.00000000       0.014
   0.33333333  0.28571429  0.00000000       0.027
   0.33333333  0.33333333  0.00000000       0.005
 
 position of ions in fractional coordinates (direct lattice) 
   0.00000000  0.00000000  0.49791631
   0.33333300  0.66666700  0.52868455
   0.00000000  0.00000000  0.59020438
   0.33333300  0.66666700  0.62099419
   0.00000000  0.00000000  0.68258092
   0.33333300  0.66666700  0.71334512
   0.66666700  0.33333300  0.46712749
   0.66666700  0.33333300  0.55943681
   0.66666700  0.33333300  0.65178232
   0.00000000  0.00000000  0.45156545
   0.00000000  0.00000000  0.54419676
   0.00000000  0.00000000  0.63653081
   0.00000000  0.00000000  0.72954982
   0.66666700  0.33333300  0.51344235
   0.66666700  0.33333300  0.60574048
   0.66666700  0.33333300  0.69812693
   0.33333300  0.66666700  0.48267303
   0.33333300  0.66666700  0.57495382
   0.33333300  0.66666700  0.66732605
   0.00000000  0.00000000  0.24966494
   0.00000000  0.00000000  0.33372294
   0.00000000  0.00000000  0.41731028
   0.66666700  0.33333300  0.30587781
   0.66666700  0.33333300  0.38960042
   0.33333300  0.66666700  0.27802279
   0.33333300  0.66666700  0.36162420
 
 position of ions in cartesian coordinates  (Angst):
   0.00000000  0.00000000 39.71531424
   0.86149512  1.49214487 42.16948284
   0.00000000  0.00000000 47.07649104
   0.86149512  1.49214487 49.53237953
   0.00000000  0.00000000 54.44472358
   0.86149512  1.49214487 56.89856944
   1.72299282 -0.00000149 37.25950525
   1.72299282 -0.00000149 44.62237618
   1.72299282 -0.00000149 51.98813395
   0.00000000  0.00000000 36.01822904
   0.00000000  0.00000000 43.40678360
   0.00000000  0.00000000 50.77162759
   0.00000000  0.00000000 58.19110514
   1.72299282 -0.00000149 40.95371882
   1.72299282 -0.00000149 48.31569734
   1.72299282 -0.00000149 55.68472065
   0.86149512  1.49214487 38.49946416
   0.86149512  1.49214487 45.86006001
   0.86149512  1.49214487 53.22794866
   0.00000000  0.00000000 19.91403292
   0.00000000  0.00000000 26.61875326
   0.00000000  0.00000000 33.28593330
   1.72299282 -0.00000149 24.39774169
   1.72299282 -0.00000149 31.07571109
   0.86149512  1.49214487 22.17594103
   0.86149512  1.49214487 28.84424275
 


--------------------------------------------------------------------------------------------------------


 k-point  1 :   0.0000 0.0000 0.0000  plane waves:   16821
 k-point  2 :   0.0476-0.0000-0.0000  plane waves:   16813
 k-point  3 :   0.0952-0.0000-0.0000  plane waves:   16801
 k-point  4 :   0.1429 0.0000-0.0000  plane waves:   16751
 k-point  5 :   0.1905-0.0000-0.0000  plane waves:   16709
 k-point  6 :   0.2381 0.0000-0.0000  plane waves:   16642
 k-point  7 :   0.2857 0.0000 0.0000  plane waves:   16602
 k-point  8 :   0.3333-0.0000-0.0000  plane waves:   16514
 k-point  9 :   0.3810-0.0000-0.0000  plane waves:   16472
 k-point 10 :   0.4286 0.0000-0.0000  plane waves:   16470
 k-point 11 :   0.4762 0.0000-0.0000  plane waves:   16448
 k-point 12 :   0.0476 0.0476 0.0000  plane waves:   16807
 k-point 13 :   0.0952 0.0476 0.0000  plane waves:   16783
 k-point 14 :   0.1429 0.0476 0.0000  plane waves:   16721
 k-point 15 :   0.1905 0.0476-0.0000  plane waves:   16670
 k-point 16 :   0.2381 0.0476-0.0000  plane waves:   16608
 k-point 17 :   0.2857 0.0476 0.0000  plane waves:   16555
 k-point 18 :   0.3333 0.0476-0.0000  plane waves:   16532
 k-point 19 :   0.3810 0.0476-0.0000  plane waves:   16473
 k-point 20 :   0.4286 0.0476-0.0000  plane waves:   16452
 k-point 21 :   0.4762 0.0476-0.0000  plane waves:   16362
 k-point 22 :   0.0952 0.0952 0.0000  plane waves:   16737
 k-point 23 :   0.1429 0.0952 0.0000  plane waves:   16663
 k-point 24 :   0.1905 0.0952 0.0000  plane waves:   16611
 k-point 25 :   0.2381 0.0952 0.0000  plane waves:   16600
 k-point 26 :   0.2857 0.0952 0.0000  plane waves:   16566
 k-point 27 :   0.3333 0.0952-0.0000  plane waves:   16528
 k-point 28 :   0.3810 0.0952-0.0000  plane waves:   16463
 k-point 29 :   0.4286 0.0952-0.0000  plane waves:   16412
 k-point 30 :   0.1429 0.1429-0.0000  plane waves:   16629
 k-point 31 :   0.1905 0.1429 0.0000  plane waves:   16600
 k-point 32 :   0.2381 0.1429 0.0000  plane waves:   16559
 k-point 33 :   0.2857 0.1429 0.0000  plane waves:   16551
 k-point 34 :   0.3333 0.1429 0.0000  plane waves:   16526
 k-point 35 :   0.3810 0.1429 0.0000  plane waves:   16443
 k-point 36 :   0.4286 0.1429 0.0000  plane waves:   16430
 k-point 37 :   0.1905 0.1905-0.0000  plane waves:   16559
 k-point 38 :   0.2381 0.1905-0.0000  plane waves:   16555
 k-point 39 :   0.2857 0.1905-0.0000  plane waves:   16538
 k-point 40 :   0.3333 0.1905-0.0000  plane waves:   16483
 k-point 41 :   0.3810 0.1905-0.0000  plane waves:   16477
 k-point 42 :   0.2381 0.2381 0.0000  plane waves:   16572
 k-point 43 :   0.2857 0.2381 0.0000  plane waves:   16498
 k-point 44 :   0.3333 0.2381 0.0000  plane waves:   16499
 k-point 45 :   0.3810 0.2381 0.0000  plane waves:   16532
 k-point 46 :   0.2857 0.2857-0.0000  plane waves:   16500
 k-point 47 :   0.3333 0.2857 0.0000  plane waves:   16562
 k-point 48 :   0.3333 0.3333 0.0000  plane waves:   16584

 maximum and minimum number of plane-waves per node :      4222     4085

 maximum number of plane-waves:     16821
 maximum index in each direction: 
   IXMAX=    5   IYMAX=    5   IZMAX=  148
   IXMIN=   -6   IYMIN=   -5   IZMIN= -148


 parallel 3D FFT for wavefunctions:
    minimum data exchange during FFTs selected (reduces bandwidth)
 parallel 3D FFT for charge:
    minimum data exchange during FFTs selected (reduces bandwidth)


 total amount of memory used by VASP MPI-rank0   175911. kBytes
=======================================================================

   base      :      30000. kBytes
   nonl-proj :      64800. kBytes
   fftplans  :      23743. kBytes
   grid      :      14531. kBytes
   one-center:         56. kBytes
   wavefun   :      42781. kBytes
 
     INWAV:  cpu time    0.0000: real time    0.0000
 Broyden mixing: mesh for mixing (old mesh)
   NGX = 11   NGY = 11   NGZ =297
  (NGX  = 48   NGY  = 48   NGZ  =***)
  gives a total of  35937 points

 initial charge density was supplied:
 charge density of overlapping atoms calculated
 number of electron      95.0000000 magnetization 
 keeping initial charge density in first step


--------------------------------------------------------------------------------------------------------


 Maximum index for augmentation-charges         9864 (set IRDMAX)


--------------------------------------------------------------------------------------------------------


 First call to EWALD:  gamma=   0.208
 Maximum number of real-space cells 8x 8x 1
 Maximum number of reciprocal cells 1x 1x22

    FEWALD:  cpu time    0.0017: real time    0.0017


--------------------------------------- Iteration      1(   1)  ---------------------------------------


    POTLOK:  cpu time    0.0847: real time    0.0854
    SETDIJ:  cpu time    0.1427: real time    0.1430
     EDDAV:  cpu time   11.2743: real time   11.2839
       DOS:  cpu time    0.0016: real time    0.0019
    --------------------------------------------
      LOOP:  cpu time   11.5032: real time   11.5142

 eigenvalue-minimisations  :  6490
 total energy-change (2. order) : 0.6917941E+03  (-0.3759484E+04)
 number of electron      95.0000000 magnetization 
 augmentation part       95.0000000 magnetization 

 Free energy of the ion-electron system (eV)
  ---------------------------------------------------
  alpha Z        PSCENC =        65.72521154
  Ewald energy   TEWEN  =    216723.42648779
  -Hartree energ DENC   =   -220838.11605543
  -exchange      EXHF   =         0.00000000
  -V(xc)+E(xc)   XCENC  =      -418.25077034
  PAW double counting   =      4235.41334458    -3509.29226066
  entropy T*S    EENTRO =        -0.00761038
  eigenvalues    EBANDS =       -63.46392205
  atomic energy  EATOM  =      4496.35971583
  Solvation  Ediel_sol  =         0.00000000
  ---------------------------------------------------
  free energy    TOTEN  =       691.79414087 eV

  energy without entropy =      691.80175125  energy(sigma->0) =      691.79794606


--------------------------------------------------------------------------------------------------------




--------------------------------------- Iteration      1(   2)  ---------------------------------------


     EDDAV:  cpu time   13.5410: real time   13.5519
       DOS:  cpu time    0.0014: real time    0.0018
    --------------------------------------------
      LOOP:  cpu time   13.5424: real time   13.5537

 eigenvalue-minimisations  :  8350
 total energy-change (2. order) :-0.7200479E+03  (-0.6843866E+03)
 number of electron      95.0000000 magnetization 
 augmentation part       95.0000000 magnetization 

 Free energy of the ion-electron system (eV)
  ---------------------------------------------------
  alpha Z        PSCENC =        65.72521154
  Ewald energy   TEWEN  =    216723.42648779
  -Hartree energ DENC   =   -220838.11605543
  -exchange      EXHF   =         0.00000000
  -V(xc)+E(xc)   XCENC  =      -418.25077034
  PAW double counting   =      4235.41334458    -3509.29226066
  entropy T*S    EENTRO =        -0.00330546
  eigenvalues    EBANDS =      -783.51611188
  atomic energy  EATOM  =      4496.35971583
  Solvation  Ediel_sol  =         0.00000000
  ---------------------------------------------------
  free energy    TOTEN  =       -28.25374403 eV

  energy without entropy =      -28.25043858  energy(sigma->0) =      -28.25209131


--------------------------------------------------------------------------------------------------------




--------------------------------------- Iteration      1(   3)  ---------------------------------------


     EDDAV:  cpu time   12.5265: real time   12.5364
       DOS:  cpu time    0.0015: real time    0.0018
    --------------------------------------------
      LOOP:  cpu time   12.5280: real time   12.5382

 eigenvalue-minimisations  :  7540
 total energy-change (2. order) :-0.1167073E+03  (-0.1158812E+03)
 number of electron      95.0000000 magnetization 
 augmentation part       95.0000000 magnetization 

 Free energy of the ion-electron system (eV)
  ---------------------------------------------------
  alpha Z        PSCENC =        65.72521154
  Ewald energy   TEWEN  =    216723.42648779
  -Hartree energ DENC   =   -220838.11605543
  -exchange      EXHF   =         0.00000000
  -V(xc)+E(xc)   XCENC  =      -418.25077034
  PAW double counting   =      4235.41334458    -3509.29226066
  entropy T*S    EENTRO =        -0.00508718
  eigenvalues    EBANDS =      -900.22165456
  atomic energy  EATOM  =      4496.35971583
  Solvation  Ediel_sol  =         0.00000000
  ---------------------------------------------------
  free energy    TOTEN  =      -144.96106844 eV

  energy without entropy =     -144.95598126  energy(sigma->0) =     -144.95852485


--------------------------------------------------------------------------------------------------------




--------------------------------------- Iteration      1(   4)  ---------------------------------------


     EDDAV:  cpu time   12.6270: real time   12.6366
       DOS:  cpu time    0.0015: real time    0.0019
    --------------------------------------------
      LOOP:  cpu time   12.6286: real time   12.6385

 eigenvalue-minimisations  :  7660
 total energy-change (2. order) :-0.3413285E+01  (-0.3404256E+01)
 number of electron      95.0000000 magnetization 
 augmentation part       95.0000000 magnetization 

 Free energy of the ion-electron system (eV)
  ---------------------------------------------------
  alpha Z        PSCENC =        65.72521154
  Ewald energy   TEWEN  =    216723.42648779
  -Hartree energ DENC   =   -220838.11605543
  -exchange      EXHF   =         0.00000000
  -V(xc)+E(xc)   XCENC  =      -418.25077034
  PAW double counting   =      4235.41334458    -3509.29226066
  entropy T*S    EENTRO =        -0.00431958
  eigenvalues    EBANDS =      -903.63570735
  atomic energy  EATOM  =      4496.35971583
  Solvation  Ediel_sol  =         0.00000000
  ---------------------------------------------------
  free energy    TOTEN  =      -148.37435363 eV

  energy without entropy =     -148.37003405  energy(sigma->0) =     -148.37219384


--------------------------------------------------------------------------------------------------------




--------------------------------------- Iteration      1(   5)  ---------------------------------------


     EDDAV:  cpu time   14.2460: real time   14.2575
       DOS:  cpu time    0.0016: real time    0.0020
    CHARGE:  cpu time    0.6310: real time    0.6314
    MIXING:  cpu time    0.0043: real time    0.0044
    --------------------------------------------
      LOOP:  cpu time   14.8829: real time   14.8953

 eigenvalue-minimisations  :  8970
 total energy-change (2. order) :-0.9343791E-01  (-0.9338838E-01)
 number of electron      95.0000037 magnetization 
 augmentation part        6.9489585 magnetization 

 Broyden mixing:
  rms(total) = 0.22082E+01    rms(broyden)= 0.22077E+01
  rms(prec ) = 0.22441E+01
  weight for this iteration     100.00

 Free energy of the ion-electron system (eV)
  ---------------------------------------------------
  alpha Z        PSCENC =        65.72521154
  Ewald energy   TEWEN  =    216723.42648779
  -Hartree energ DENC   =   -220838.11605543
  -exchange      EXHF   =         0.00000000
  -V(xc)+E(xc)   XCENC  =      -418.25077034
  PAW double counting   =      4235.41334458    -3509.29226066
  entropy T*S    EENTRO =        -0.00431755
  eigenvalues    EBANDS =      -903.72914728
  atomic energy  EATOM  =      4496.35971583
  Solvation  Ediel_sol  =         0.00000000
  ---------------------------------------------------
  free energy    TOTEN  =      -148.46779154 eV

  energy without entropy =     -148.46347398  energy(sigma->0) =     -148.46563276


--------------------------------------------------------------------------------------------------------




--------------------------------------- Iteration      1(   6)  ---------------------------------------


    POTLOK:  cpu time    0.0820: real time    0.0821
    SETDIJ:  cpu time    0.1782: real time    0.1786
     EDDAV:  cpu time   12.9287: real time   12.9457
       DOS:  cpu time    0.0016: real time    0.0024
    CHARGE:  cpu time    0.7698: real time    0.7716
    MIXING:  cpu time    0.0102: real time    0.0102
    --------------------------------------------
      LOOP:  cpu time   13.9705: real time   13.9905

 eigenvalue-minimisations  :  7175
 total energy-change (2. order) : 0.1511451E+02  (-0.8831581E+01)
 number of electron      95.0000042 magnetization 
 augmentation part        5.6830872 magnetization 

 Broyden mixing:
  rms(total) = 0.72544E+00    rms(broyden)= 0.72452E+00
  rms(prec ) = 0.77598E+00
  weight for this iteration     100.00

 eigenvalues of (default mixing * dielectric matrix)
  average eigenvalue GAMMA=   0.8623
  0.8623

 Free energy of the ion-electron system (eV)
  ---------------------------------------------------
  alpha Z        PSCENC =        65.72521154
  Ewald energy   TEWEN  =    216723.42648779
  -Hartree energ DENC   =   -221014.24222521
  -exchange      EXHF   =         0.00000000
  -V(xc)+E(xc)   XCENC  =      -406.14680347
  PAW double counting   =      5074.35456583    -4351.42690389
  entropy T*S    EENTRO =        -0.00581974
  eigenvalues    EBANDS =      -721.39750527
  atomic energy  EATOM  =      4496.35971583
  Solvation  Ediel_sol  =         0.00000000
  ---------------------------------------------------
  free energy    TOTEN  =      -133.35327660 eV

  energy without entropy =     -133.34745686  energy(sigma->0) =     -133.35036673


--------------------------------------------------------------------------------------------------------




--------------------------------------- Iteration      1(   7)  ---------------------------------------


    POTLOK:  cpu time    0.0919: real time    0.0930
    SETDIJ:  cpu time    0.2055: real time    0.2065
     EDDAV:  cpu time   14.7674: real time   15.2395
       DOS:  cpu time    0.0018: real time    0.0036
    CHARGE:  cpu time    1.6459: real time    1.9006
    MIXING:  cpu time    0.0546: real time    0.0546
    --------------------------------------------
      LOOP:  cpu time   16.7670: real time   17.4977

 eigenvalue-minimisations  :  7360
 total energy-change (2. order) : 0.2195979E+00  (-0.9926325E+00)
 number of electron      95.0000044 magnetization 
 augmentation part        5.6670396 magnetization 

 Broyden mixing:
  rms(total) = 0.48917E+00    rms(broyden)= 0.48913E+00
  rms(prec ) = 0.53077E+00
  weight for this iteration     100.00

 eigenvalues of (default mixing * dielectric matrix)
  average eigenvalue GAMMA=   1.3440
  1.0742  1.6138

 Free energy of the ion-electron system (eV)
  ---------------------------------------------------
  alpha Z        PSCENC =        65.72521154
  Ewald energy   TEWEN  =    216723.42648779
  -Hartree energ DENC   =   -221024.85426073
  -exchange      EXHF   =         0.00000000
  -V(xc)+E(xc)   XCENC  =      -405.55972646
  PAW double counting   =      5378.64088400    -4655.35038723
  entropy T*S    EENTRO =        -0.00503151
  eigenvalues    EBANDS =      -711.51657193
  atomic energy  EATOM  =      4496.35971583
  Solvation  Ediel_sol  =         0.00000000
  ---------------------------------------------------
  free energy    TOTEN  =      -133.13367869 eV

  energy without entropy =     -133.12864719  energy(sigma->0) =     -133.13116294


--------------------------------------------------------------------------------------------------------




--------------------------------------- Iteration      1(   8)  ---------------------------------------


    POTLOK:  cpu time    0.1050: real time    0.1063
    SETDIJ:  cpu time    0.5331: real time    0.6605
     EDDAV:  cpu time   15.9901: real time   16.5961
       DOS:  cpu time    0.0016: real time    0.0016
    CHARGE:  cpu time    1.1186: real time    1.1959
    MIXING:  cpu time    0.0463: real time    0.0463
    --------------------------------------------
      LOOP:  cpu time   17.7946: real time   18.6066

 eigenvalue-minimisations  :  7475
 total energy-change (2. order) : 0.1376688E+00  (-0.5444636E+00)
 number of electron      95.0000043 magnetization 
 augmentation part        5.7153796 magnetization 

 Broyden mixing:
  rms(total) = 0.31648E+00    rms(broyden)= 0.31647E+00
  rms(prec ) = 0.37536E+00
  weight for this iteration     100.00

 eigenvalues of (default mixing * dielectric matrix)
  average eigenvalue GAMMA=   1.2932
  2.4220  0.9720  0.4855

 Free energy of the ion-electron system (eV)
  ---------------------------------------------------
  alpha Z        PSCENC =        65.72521154
  Ewald energy   TEWEN  =    216723.42648779
  -Hartree energ DENC   =   -221020.31910611
  -exchange      EXHF   =         0.00000000
  -V(xc)+E(xc)   XCENC  =      -405.18017545
  PAW double counting   =      5569.49501367    -4846.09109814
  entropy T*S    EENTRO =        -0.00445078
  eigenvalues    EBANDS =      -716.40760827
  atomic energy  EATOM  =      4496.35971583
  Solvation  Ediel_sol  =         0.00000000
  ---------------------------------------------------
  free energy    TOTEN  =      -132.99600992 eV

  energy without entropy =     -132.99155913  energy(sigma->0) =     -132.99378453


--------------------------------------------------------------------------------------------------------




--------------------------------------- Iteration      1(   9)  ---------------------------------------


    POTLOK:  cpu time    0.1146: real time    0.1288
    SETDIJ:  cpu time    0.4411: real time    0.4923
     EDDAV:  cpu time   13.7086: real time   13.7486
       DOS:  cpu time    0.0015: real time    0.0019
    CHARGE:  cpu time    0.5507: real time    0.5511
    MIXING:  cpu time    0.0108: real time    0.0107
    --------------------------------------------
      LOOP:  cpu time   14.8273: real time   14.9334

 eigenvalue-minimisations  :  7460
 total energy-change (2. order) : 0.2139063E+00  (-0.1977226E+00)
 number of electron      95.0000044 magnetization 
 augmentation part        5.7154664 magnetization 

 Broyden mixing:
  rms(total) = 0.57540E-01    rms(broyden)= 0.57517E-01
  rms(prec ) = 0.74071E-01
  weight for this iteration     100.00

 eigenvalues of (default mixing * dielectric matrix)
  average eigenvalue GAMMA=   1.1896
  2.4689  0.9140  0.9140  0.4618

 Free energy of the ion-electron system (eV)
  ---------------------------------------------------
  alpha Z        PSCENC =        65.72521154
  Ewald energy   TEWEN  =    216723.42648779
  -Hartree energ DENC   =   -221040.29001737
  -exchange      EXHF   =         0.00000000
  -V(xc)+E(xc)   XCENC  =      -403.88292064
  PAW double counting   =      5971.00547091    -5247.43514526
  entropy T*S    EENTRO =        -0.00449815
  eigenvalues    EBANDS =      -697.68640823
  atomic energy  EATOM  =      4496.35971583
  Solvation  Ediel_sol  =         0.00000000
  ---------------------------------------------------
  free energy    TOTEN  =      -132.78210358 eV

  energy without entropy =     -132.77760543  energy(sigma->0) =     -132.77985450


--------------------------------------------------------------------------------------------------------




--------------------------------------- Iteration      1(  10)  ---------------------------------------


    POTLOK:  cpu time    0.0836: real time    0.0840
    SETDIJ:  cpu time    0.1093: real time    0.1098
     EDDAV:  cpu time   12.0318: real time   12.0415
       DOS:  cpu time    0.0015: real time    0.0019
    CHARGE:  cpu time    0.5421: real time    0.5424
    MIXING:  cpu time    0.0102: real time    0.0102
    --------------------------------------------
      LOOP:  cpu time   12.7785: real time   12.7898

 eigenvalue-minimisations  :  7460
 total energy-change (2. order) : 0.1426913E-01  (-0.1812929E-01)
 number of electron      95.0000044 magnetization 
 augmentation part        5.7071501 magnetization 

 Broyden mixing:
  rms(total) = 0.43808E-01    rms(broyden)= 0.43806E-01
  rms(prec ) = 0.46281E-01
  weight for this iteration     100.00

 eigenvalues of (default mixing * dielectric matrix)
  average eigenvalue GAMMA=   1.0715
  2.4276  1.0379  1.0379  0.4896  0.3647

 Free energy of the ion-electron system (eV)
  ---------------------------------------------------
  alpha Z        PSCENC =        65.72521154
  Ewald energy   TEWEN  =    216723.42648779
  -Hartree energ DENC   =   -221041.33775358
  -exchange      EXHF   =         0.00000000
  -V(xc)+E(xc)   XCENC  =      -403.68037080
  PAW double counting   =      5970.29131369    -5246.75864401
  entropy T*S    EENTRO =        -0.00547664
  eigenvalues    EBANDS =      -696.78831828
  atomic energy  EATOM  =      4496.35971583
  Solvation  Ediel_sol  =         0.00000000
  ---------------------------------------------------
  free energy    TOTEN  =      -132.76783445 eV

  energy without entropy =     -132.76235781  energy(sigma->0) =     -132.76509613


--------------------------------------------------------------------------------------------------------




--------------------------------------- Iteration      1(  11)  ---------------------------------------


    POTLOK:  cpu time    0.0822: real time    0.0826
    SETDIJ:  cpu time    0.1080: real time    0.1085
     EDDAV:  cpu time   11.9309: real time   11.9406
       DOS:  cpu time    0.0018: real time    0.0020
    CHARGE:  cpu time    0.5481: real time    0.5485
    MIXING:  cpu time    0.0051: real time    0.0051
    --------------------------------------------
      LOOP:  cpu time   12.6762: real time   12.6872

 eigenvalue-minimisations  :  7380
 total energy-change (2. order) : 0.1643980E-02  (-0.1304831E-02)
 number of electron      95.0000044 magnetization 
 augmentation part        5.6980054 magnetization 

 Broyden mixing:
  rms(total) = 0.34848E-01    rms(broyden)= 0.34847E-01
  rms(prec ) = 0.38433E-01
  weight for this iteration     100.00

 eigenvalues of (default mixing * dielectric matrix)
  average eigenvalue GAMMA=   1.1095
  2.3268  1.5169  0.9282  0.4556  0.7149  0.7149

 Free energy of the ion-electron system (eV)
  ---------------------------------------------------
  alpha Z        PSCENC =        65.72521154
  Ewald energy   TEWEN  =    216723.42648779
  -Hartree energ DENC   =   -221044.31344949
  -exchange      EXHF   =         0.00000000
  -V(xc)+E(xc)   XCENC  =      -403.58936037
  PAW double counting   =      5938.84272309    -5215.34831967
  entropy T*S    EENTRO =        -0.00554735
  eigenvalues    EBANDS =      -693.86365184
  atomic energy  EATOM  =      4496.35971583
  Solvation  Ediel_sol  =         0.00000000
  ---------------------------------------------------
  free energy    TOTEN  =      -132.76619047 eV

  energy without entropy =     -132.76064312  energy(sigma->0) =     -132.76341679


--------------------------------------------------------------------------------------------------------




--------------------------------------- Iteration      1(  12)  ---------------------------------------


    POTLOK:  cpu time    0.0816: real time    0.0837
    SETDIJ:  cpu time    0.1057: real time    0.1062
     EDDAV:  cpu time   13.8310: real time   13.8426
       DOS:  cpu time    0.0017: real time    0.0017
    CHARGE:  cpu time    0.5508: real time    0.5512
    MIXING:  cpu time    0.0032: real time    0.0032
    --------------------------------------------
      LOOP:  cpu time   14.5740: real time   14.5886

 eigenvalue-minimisations  :  9030
 total energy-change (2. order) : 0.1948089E-02  (-0.1175987E-03)
 number of electron      95.0000044 magnetization 
 augmentation part        5.6961752 magnetization 

 Broyden mixing:
  rms(total) = 0.22812E-01    rms(broyden)= 0.22811E-01
  rms(prec ) = 0.26929E-01
  weight for this iteration     100.00

 eigenvalues of (default mixing * dielectric matrix)
  average eigenvalue GAMMA=   1.3251
  2.6763  2.5974  0.9990  0.9990  1.0090  0.4610  0.5342

 Free energy of the ion-electron system (eV)
  ---------------------------------------------------
  alpha Z        PSCENC =        65.72521154
  Ewald energy   TEWEN  =    216723.42648779
  -Hartree energ DENC   =   -221046.69560258
  -exchange      EXHF   =         0.00000000
  -V(xc)+E(xc)   XCENC  =      -403.56062911
  PAW double counting   =      5900.96040007    -5177.48230341
  entropy T*S    EENTRO =        -0.00530326
  eigenvalues    EBANDS =      -691.49221926
  atomic energy  EATOM  =      4496.35971583
  Solvation  Ediel_sol  =         0.00000000
  ---------------------------------------------------
  free energy    TOTEN  =      -132.76424238 eV

  energy without entropy =     -132.75893912  energy(sigma->0) =     -132.76159075


--------------------------------------------------------------------------------------------------------




--------------------------------------- Iteration      1(  13)  ---------------------------------------


    POTLOK:  cpu time    0.0831: real time    0.0833
    SETDIJ:  cpu time    0.1040: real time    0.1045
     EDDAV:  cpu time   12.3992: real time   12.4093
       DOS:  cpu time    0.0015: real time    0.0015
    CHARGE:  cpu time    0.5526: real time    0.5529
    MIXING:  cpu time    0.0037: real time    0.0037
    --------------------------------------------
      LOOP:  cpu time   13.1441: real time   13.1553

 eigenvalue-minimisations  :  7895
 total energy-change (2. order) : 0.1980046E-02  (-0.4713305E-03)
 number of electron      95.0000044 magnetization 
 augmentation part        5.6993244 magnetization 

 Broyden mixing:
  rms(total) = 0.16400E-01    rms(broyden)= 0.16397E-01
  rms(prec ) = 0.33423E-01
  weight for this iteration     100.00

 eigenvalues of (default mixing * dielectric matrix)
  average eigenvalue GAMMA=   1.2411
  2.9079  2.5246  1.0487  1.0487  0.7525  0.7525  0.4470  0.4470

 Free energy of the ion-electron system (eV)
  ---------------------------------------------------
  alpha Z        PSCENC =        65.72521154
  Ewald energy   TEWEN  =    216723.42648779
  -Hartree energ DENC   =   -221051.24862072
  -exchange      EXHF   =         0.00000000
  -V(xc)+E(xc)   XCENC  =      -403.51148316
  PAW double counting   =      5862.95391435    -5139.49011938
  entropy T*S    EENTRO =        -0.00522026
  eigenvalues    EBANDS =      -686.97214832
  atomic energy  EATOM  =      4496.35971583
  Solvation  Ediel_sol  =         0.00000000
  ---------------------------------------------------
  free energy    TOTEN  =      -132.76226233 eV

  energy without entropy =     -132.75704207  energy(sigma->0) =     -132.75965220


--------------------------------------------------------------------------------------------------------




--------------------------------------- Iteration      1(  14)  ---------------------------------------


    POTLOK:  cpu time    0.0845: real time    0.0846
    SETDIJ:  cpu time    0.1048: real time    0.1052
     EDDAV:  cpu time   11.7585: real time   11.7682
       DOS:  cpu time    0.0014: real time    0.0014
    CHARGE:  cpu time    0.5471: real time    0.5474
    MIXING:  cpu time    0.0044: real time    0.0044
    --------------------------------------------
      LOOP:  cpu time   12.5007: real time   12.5113

 eigenvalue-minimisations  :  7380
 total energy-change (2. order) : 0.3641580E-02  (-0.1520771E-03)
 number of electron      95.0000044 magnetization 
 augmentation part        5.6978395 magnetization 

 Broyden mixing:
  rms(total) = 0.58849E-02    rms(broyden)= 0.58827E-02
  rms(prec ) = 0.98098E-02
  weight for this iteration     100.00

 eigenvalues of (default mixing * dielectric matrix)
  average eigenvalue GAMMA=   1.2345
  3.0121  2.5389  1.0296  1.0296  1.0064  1.0064  0.6133  0.4371  0.4371

 Free energy of the ion-electron system (eV)
  ---------------------------------------------------
  alpha Z        PSCENC =        65.72521154
  Ewald energy   TEWEN  =    216723.42648779
  -Hartree energ DENC   =   -221052.75280193
  -exchange      EXHF   =         0.00000000
  -V(xc)+E(xc)   XCENC  =      -403.50206868
  PAW double counting   =      5856.47410860    -5133.01198847
  entropy T*S    EENTRO =        -0.00549877
  eigenvalues    EBANDS =      -685.47178665
  atomic energy  EATOM  =      4496.35971583
  Solvation  Ediel_sol  =         0.00000000
  ---------------------------------------------------
  free energy    TOTEN  =      -132.75862075 eV

  energy without entropy =     -132.75312198  energy(sigma->0) =     -132.75587137


--------------------------------------------------------------------------------------------------------




--------------------------------------- Iteration      1(  15)  ---------------------------------------


    POTLOK:  cpu time    0.0828: real time    0.0828
    SETDIJ:  cpu time    0.1061: real time    0.1065
     EDDAV:  cpu time   12.3207: real time   12.3313
       DOS:  cpu time    0.0016: real time    0.0016
    CHARGE:  cpu time    0.5503: real time    0.5507
    MIXING:  cpu time    0.0045: real time    0.0045
    --------------------------------------------
      LOOP:  cpu time   13.0660: real time   13.0774

 eigenvalue-minimisations  :  7850
 total energy-change (2. order) : 0.1853429E-02  (-0.6820256E-04)
 number of electron      95.0000044 magnetization 
 augmentation part        5.6968440 magnetization 

 Broyden mixing:
  rms(total) = 0.55041E-02    rms(broyden)= 0.55032E-02
  rms(prec ) = 0.91061E-02
  weight for this iteration     100.00

 eigenvalues of (default mixing * dielectric matrix)
  average eigenvalue GAMMA=   1.2114
  2.9686  2.4898  1.1633  1.1633  0.9405  0.9405  0.9403  0.6285  0.4395  0.4395

 Free energy of the ion-electron system (eV)
  ---------------------------------------------------
  alpha Z        PSCENC =        65.72521154
  Ewald energy   TEWEN  =    216723.42648779
  -Hartree energ DENC   =   -221055.70802797
  -exchange      EXHF   =         0.00000000
  -V(xc)+E(xc)   XCENC  =      -403.49331527
  PAW double counting   =      5856.38703254    -5132.92602226
  entropy T*S    EENTRO =        -0.00547231
  eigenvalues    EBANDS =      -682.52237721
  atomic energy  EATOM  =      4496.35971583
  Solvation  Ediel_sol  =         0.00000000
  ---------------------------------------------------
  free energy    TOTEN  =      -132.75676732 eV

  energy without entropy =     -132.75129501  energy(sigma->0) =     -132.75403117


--------------------------------------------------------------------------------------------------------




--------------------------------------- Iteration      1(  16)  ---------------------------------------


    POTLOK:  cpu time    0.0843: real time    0.0844
    SETDIJ:  cpu time    0.1033: real time    0.1038
     EDDAV:  cpu time   12.3386: real time   12.3487
       DOS:  cpu time    0.0014: real time    0.0014
    CHARGE:  cpu time    0.5555: real time    0.5558
    MIXING:  cpu time    0.0058: real time    0.0058
    --------------------------------------------
      LOOP:  cpu time   13.0889: real time   13.1000

 eigenvalue-minimisations  :  7970
 total energy-change (2. order) : 0.1354465E-02  (-0.5303003E-04)
 number of electron      95.0000044 magnetization 
 augmentation part        5.6976283 magnetization 

 Broyden mixing:
  rms(total) = 0.45098E-02    rms(broyden)= 0.45095E-02
  rms(prec ) = 0.86319E-02
  weight for this iteration     100.00

 eigenvalues of (default mixing * dielectric matrix)
  average eigenvalue GAMMA=   1.3902
  3.5629  2.5452  2.5452  1.1946  1.1946  0.9354  0.9354  0.8403  0.6598  0.4393
  0.4393

 Free energy of the ion-electron system (eV)
  ---------------------------------------------------
  alpha Z        PSCENC =        65.72521154
  Ewald energy   TEWEN  =    216723.42648779
  -Hartree energ DENC   =   -221058.11478276
  -exchange      EXHF   =         0.00000000
  -V(xc)+E(xc)   XCENC  =      -403.49321800
  PAW double counting   =      5858.09988125    -5134.63678020
  entropy T*S    EENTRO =        -0.00554690
  eigenvalues    EBANDS =      -680.11638141
  atomic energy  EATOM  =      4496.35971583
  Solvation  Ediel_sol  =         0.00000000
  ---------------------------------------------------
  free energy    TOTEN  =      -132.75541286 eV

  energy without entropy =     -132.74986596  energy(sigma->0) =     -132.75263941


--------------------------------------------------------------------------------------------------------




--------------------------------------- Iteration      1(  17)  ---------------------------------------


    POTLOK:  cpu time    0.0833: real time    0.0834
    SETDIJ:  cpu time    0.1042: real time    0.1048
     EDDAV:  cpu time   13.4582: real time   13.4695
       DOS:  cpu time    0.0014: real time    0.0018
    CHARGE:  cpu time    0.5487: real time    0.5490
    MIXING:  cpu time    0.0039: real time    0.0040
    --------------------------------------------
      LOOP:  cpu time   14.1997: real time   14.2124

 eigenvalue-minimisations  :  8905
 total energy-change (2. order) : 0.4499225E-02  (-0.2700305E-03)
 number of electron      95.0000044 magnetization 
 augmentation part        5.6979145 magnetization 

 Broyden mixing:
  rms(total) = 0.35681E-02    rms(broyden)= 0.35671E-02
  rms(prec ) = 0.62945E-02
  weight for this iteration     100.00

 eigenvalues of (default mixing * dielectric matrix)
  average eigenvalue GAMMA=   1.5372
  5.8641  2.7376  2.3870  1.3080  1.0171  1.0171  1.0162  0.7714  0.7714  0.6769
  0.4397  0.4397

 Free energy of the ion-electron system (eV)
  ---------------------------------------------------
  alpha Z        PSCENC =        65.72521154
  Ewald energy   TEWEN  =    216723.42648779
  -Hartree energ DENC   =   -221068.32951383
  -exchange      EXHF   =         0.00000000
  -V(xc)+E(xc)   XCENC  =      -403.48737859
  PAW double counting   =      5857.18621148    -5133.72055905
  entropy T*S    EENTRO =        -0.00555017
  eigenvalues    EBANDS =      -669.90553862
  atomic energy  EATOM  =      4496.35971583
  Solvation  Ediel_sol  =         0.00000000
  ---------------------------------------------------
  free energy    TOTEN  =      -132.75091363 eV

  energy without entropy =     -132.74536346  energy(sigma->0) =     -132.74813854


--------------------------------------------------------------------------------------------------------




--------------------------------------- Iteration      1(  18)  ---------------------------------------


    POTLOK:  cpu time    0.0833: real time    0.0839
    SETDIJ:  cpu time    0.1049: real time    0.1050
     EDDAV:  cpu time   11.6377: real time   11.6476
       DOS:  cpu time    0.0016: real time    0.0016
    CHARGE:  cpu time    0.5562: real time    0.5565
    MIXING:  cpu time    0.0078: real time    0.0079
    --------------------------------------------
      LOOP:  cpu time   12.3915: real time   12.4024

 eigenvalue-minimisations  :  7380
 total energy-change (2. order) : 0.1464764E-02  (-0.1412060E-03)
 number of electron      95.0000044 magnetization 
 augmentation part        5.6978279 magnetization 

 Broyden mixing:
  rms(total) = 0.31381E-02    rms(broyden)= 0.31374E-02
  rms(prec ) = 0.48684E-02
  weight for this iteration     100.00

 eigenvalues of (default mixing * dielectric matrix)
  average eigenvalue GAMMA=   1.5447
  6.7792  2.7730  2.3906  1.3299  0.9888  0.9888  0.9639  0.8300  0.8300  0.4396
  0.4396  0.7021  0.6263

 Free energy of the ion-electron system (eV)
  ---------------------------------------------------
  alpha Z        PSCENC =        65.72521154
  Ewald energy   TEWEN  =    216723.42648779
  -Hartree energ DENC   =   -221072.12739503
  -exchange      EXHF   =         0.00000000
  -V(xc)+E(xc)   XCENC  =      -403.47954341
  PAW double counting   =      5855.77003525    -5132.30612732
  entropy T*S    EENTRO =        -0.00559129
  eigenvalues    EBANDS =      -666.11224223
  atomic energy  EATOM  =      4496.35971583
  Solvation  Ediel_sol  =         0.00000000
  ---------------------------------------------------
  free energy    TOTEN  =      -132.74944887 eV

  energy without entropy =     -132.74385758  energy(sigma->0) =     -132.74665322


--------------------------------------------------------------------------------------------------------




--------------------------------------- Iteration      1(  19)  ---------------------------------------


    POTLOK:  cpu time    0.0837: real time    0.0841
    SETDIJ:  cpu time    0.1051: real time    0.1056
     EDDAV:  cpu time   12.3640: real time   12.3740
       DOS:  cpu time    0.0014: real time    0.0014
    CHARGE:  cpu time    0.5541: real time    0.5544
    MIXING:  cpu time    0.0048: real time    0.0048
    --------------------------------------------
      LOOP:  cpu time   13.1131: real time   13.1243

 eigenvalue-minimisations  :  8025
 total energy-change (2. order) : 0.6408569E-03  (-0.4812836E-04)
 number of electron      95.0000044 magnetization 
 augmentation part        5.6974537 magnetization 

 Broyden mixing:
  rms(total) = 0.28311E-02    rms(broyden)= 0.28306E-02
  rms(prec ) = 0.44107E-02
  weight for this iteration     100.00

 eigenvalues of (default mixing * dielectric matrix)
  average eigenvalue GAMMA=   1.6508
  7.8095  2.9808  2.4250  1.8838  1.1619  1.1619  0.9577  0.9577  0.9383  0.4396
  0.4396  0.6602  0.6479  0.6479

 Free energy of the ion-electron system (eV)
  ---------------------------------------------------
  alpha Z        PSCENC =        65.72521154
  Ewald energy   TEWEN  =    216723.42648779
  -Hartree energ DENC   =   -221074.48755724
  -exchange      EXHF   =         0.00000000
  -V(xc)+E(xc)   XCENC  =      -403.47726856
  PAW double counting   =      5856.85850346    -5133.39448618
  entropy T*S    EENTRO =        -0.00558865
  eigenvalues    EBANDS =      -663.75382601
  atomic energy  EATOM  =      4496.35971583
  Solvation  Ediel_sol  =         0.00000000
  ---------------------------------------------------
  free energy    TOTEN  =      -132.74880801 eV

  energy without entropy =     -132.74321936  energy(sigma->0) =     -132.74601369


--------------------------------------------------------------------------------------------------------




--------------------------------------- Iteration      1(  20)  ---------------------------------------


    POTLOK:  cpu time    0.0829: real time    0.0829
    SETDIJ:  cpu time    0.1068: real time    0.1072
     EDDAV:  cpu time   12.4098: real time   12.4199
       DOS:  cpu time    0.0014: real time    0.0015
    CHARGE:  cpu time    0.5626: real time    0.5629
    MIXING:  cpu time    0.0042: real time    0.0042
    --------------------------------------------
      LOOP:  cpu time   13.1677: real time   13.1786

 eigenvalue-minimisations  :  7965
 total energy-change (2. order) : 0.6329461E-03  (-0.2376004E-04)
 number of electron      95.0000044 magnetization 
 augmentation part        5.6975365 magnetization 

 Broyden mixing:
  rms(total) = 0.33773E-02    rms(broyden)= 0.33771E-02
  rms(prec ) = 0.50206E-02
  weight for this iteration     100.00

 eigenvalues of (default mixing * dielectric matrix)
  average eigenvalue GAMMA=   1.7649
  9.4448  3.3458  2.5201  2.1802  1.3989  0.9814  0.9814  0.9715  0.4396  0.4396
  0.8479  0.8479  0.6594  0.7078  0.7078

 Free energy of the ion-electron system (eV)
  ---------------------------------------------------
  alpha Z        PSCENC =        65.72521154
  Ewald energy   TEWEN  =    216723.42648779
  -Hartree energ DENC   =   -221078.86641537
  -exchange      EXHF   =         0.00000000
  -V(xc)+E(xc)   XCENC  =      -403.47680927
  PAW double counting   =      5859.04399903    -5135.57890081
  entropy T*S    EENTRO =        -0.00561506
  eigenvalues    EBANDS =      -659.37584874
  atomic energy  EATOM  =      4496.35971583
  Solvation  Ediel_sol  =         0.00000000
  ---------------------------------------------------
  free energy    TOTEN  =      -132.74817506 eV

  energy without entropy =     -132.74256001  energy(sigma->0) =     -132.74536753


--------------------------------------------------------------------------------------------------------




--------------------------------------- Iteration      1(  21)  ---------------------------------------


    POTLOK:  cpu time    0.0837: real time    0.0838
    SETDIJ:  cpu time    0.1036: real time    0.1036
[...]
     42      -2.0207      2.00000
     43      -1.2824      2.00000
     44      -1.1837      2.00000
     45      -0.3405      2.00000
     46      -0.0740      2.00000
     47       0.0471      2.00000
     48       0.2967      2.00000
     49       0.7609      2.00000
     50       0.9510      2.00000
     51       1.4115      0.00444
     52       1.8078      0.00000
     53       2.4020      0.00000
     54       2.7008      0.00000
     55       3.0970      0.00000
     56       3.3237      0.00000
     57       3.6511      0.00000
     58       3.8420      0.00000
     59       4.1825      0.00000
     60       4.6774      0.00000
     61       4.8585      0.00000
     62       5.4727      0.00000
     63       5.6617      0.00000
     64       6.5772      0.00000
     65       6.8825      0.00000

 k-point    46 :       0.2857    0.2857   -0.0000
  band No.  band energies     occupation 
      1     -18.6379      2.00000
      2     -18.4911      2.00000
      3     -18.3885      2.00000
      4     -18.2997      2.00000
      5     -18.2204      2.00000
      6     -18.1492      2.00000
      7     -18.0855      2.00000
      8     -18.0278      2.00000
      9     -17.9513      2.00000
     10      -6.3798      2.00000
     11      -6.3168      2.00000
     12      -6.1569      2.00000
     13      -6.0772      2.00000
     14      -5.9770      2.00000
     15      -5.8848      2.00000
     16      -5.7784      2.00000
     17      -5.6503      2.00000
     18      -5.5877      2.00000
     19      -5.3744      2.00000
     20      -5.3129      2.00000
     21      -5.1878      2.00000
     22      -5.0420      2.00000
     23      -4.9561      2.00000
     24      -4.7955      2.00000
     25      -4.6888      2.00000
     26      -4.5424      2.00000
     27      -4.4332      2.00000
     28      -4.3564      2.00000
     29      -4.0772      2.00000
     30      -4.0212      2.00000
     31      -3.8714      2.00000
     32      -3.7693      2.00000
     33      -3.6857      2.00000
     34      -3.6645      2.00000
     35      -3.5558      2.00000
     36      -3.4865      2.00000
     37      -3.4097      2.00000
     38      -3.2442      2.00000
     39      -3.0494      2.00000
     40      -2.2045      2.00000
     41      -1.1824      2.00000
     42      -1.0629      2.00000
     43      -1.0570      2.00000
     44      -0.7034      2.00000
     45      -0.6696      2.00000
     46      -0.2632      2.00000
     47      -0.1049      2.00000
     48       0.1850      2.00000
     49       0.6572      2.00000
     50       0.8916      2.00000
     51       1.5096      0.00000
     52       1.8594      0.00000
     53       2.2257      0.00000
     54       2.7847      0.00000
     55       2.9811      0.00000
     56       3.1057      0.00000
     57       3.3757      0.00000
     58       4.0661      0.00000
     59       4.3837      0.00000
     60       4.6952      0.00000
     61       5.3725      0.00000
     62       5.5753      0.00000
     63       5.6972      0.00000
     64       6.1556      0.00000
     65       6.5759      0.00000

 k-point    47 :       0.3333    0.2857    0.0000
  band No.  band energies     occupation 
      1     -18.6018      2.00000
      2     -18.4616      2.00000
      3     -18.3619      2.00000
      4     -18.2741      2.00000
      5     -18.1928      2.00000
      6     -18.1238      2.00000
      7     -18.0582      2.00000
      8     -18.0035      2.00000
      9     -17.9573      2.00000
     10      -6.3540      2.00000
     11      -6.1718      2.00000
     12      -6.1032      2.00000
     13      -5.9780      2.00000
     14      -5.9233      2.00000
     15      -5.8552      2.00000
     16      -5.7596      2.00000
     17      -5.6608      2.00000
     18      -5.5828      2.00000
     19      -5.4931      2.00000
     20      -5.3607      2.00000
     21      -5.2660      2.00000
     22      -5.1740      2.00000
     23      -5.0997      2.00000
     24      -5.0261      2.00000
     25      -4.8937      2.00000
     26      -4.7845      2.00000
     27      -4.5923      2.00000
     28      -4.3002      2.00000
     29      -3.9384      2.00000
     30      -3.8090      2.00000
     31      -3.7592      2.00000
     32      -3.6782      2.00000
     33      -3.5778      2.00000
     34      -3.5175      2.00000
     35      -3.4296      2.00000
     36      -3.3314      2.00000
     37      -3.1604      2.00000
     38      -2.7742      2.00000
     39      -2.1575      2.00000
     40      -2.1453      2.00000
     41      -1.7727      2.00000
     42      -1.3359      2.00000
     43      -1.1618      2.00000
     44      -1.1359      2.00000
     45      -0.7852      2.00000
     46      -0.4981      2.00000
     47      -0.2532      2.00000
     48      -0.0913      2.00000
     49       0.5155      2.00000
     50       0.7798      2.00000
     51       1.1996      1.99837
     52       1.8108      0.00000
     53       2.2604      0.00000
     54       2.5115      0.00000
     55       3.1136      0.00000
     56       3.3400      0.00000
     57       3.4687      0.00000
     58       3.7115      0.00000
     59       4.2317      0.00000
     60       4.6269      0.00000
     61       5.0534      0.00000
     62       5.1864      0.00000
     63       5.6588      0.00000
     64       6.2225      0.00000
     65       6.2521      0.00000

 k-point    48 :       0.3333    0.3333    0.0000
  band No.  band energies     occupation 
      1     -18.5881      2.00000
      2     -18.4503      2.00000
      3     -18.3515      2.00000
      4     -18.2640      2.00000
      5     -18.1818      2.00000
      6     -18.1138      2.00000
      7     -18.0478      2.00000
      8     -17.9854      2.00000
      9     -17.9652      2.00000
     10      -6.1354      2.00000
     11      -6.0969      2.00000
     12      -6.0936      2.00000
     13      -5.8923      2.00000
     14      -5.8658      2.00000
     15      -5.8398      2.00000
     16      -5.7096      2.00000
     17      -5.6795      2.00000
     18      -5.6117      2.00000
     19      -5.4565      2.00000
     20      -5.4333      2.00000
     21      -5.4281      2.00000
     22      -5.2297      2.00000
     23      -5.2166      2.00000
     24      -5.1234      2.00000
     25      -4.9660      2.00000
     26      -4.9379      2.00000
     27      -4.8109      2.00000
     28      -4.2789      2.00000
     29      -3.8953      2.00000
     30      -3.7898      2.00000
     31      -3.7286      2.00000
     32      -3.6843      2.00000
     33      -3.6053      2.00000
     34      -3.4879      2.00000
     35      -3.4434      2.00000
     36      -3.4027      2.00000
     37      -2.2065      2.00000
     38      -2.2021      2.00000
     39      -2.1973      2.00000
     40      -1.8375      2.00000
     41      -1.8224      2.00000
     42      -1.8056      2.00000
     43      -1.2434      2.00000
     44      -1.2037      2.00000
     45      -1.1742      2.00000
     46      -0.4718      2.00000
     47      -0.4057      2.00000
     48      -0.3814      2.00000
     49       0.4951      2.00000
     50       0.7013      2.00000
     51       1.0298      2.00000
     52       1.8438      0.00000
     53       2.2970      0.00000
     54       2.2985      0.00000
     55       3.1586      0.00000
     56       3.2491      0.00000
     57       3.5472      0.00000
     58       3.6789      0.00000
     59       4.4386      0.00000
     60       4.4602      0.00000
     61       4.8406      0.00000
     62       5.1580      0.00000
     63       5.6364      0.00000
     64       5.8562      0.00000
     65       6.4265      0.00000


--------------------------------------------------------------------------------------------------------


 soft charge-density along one line, spin component           1
         0         1         2         3         4         5         6         7         8         9
 total charge-density along one line
 
 pseudopotential strength for first ion, spin component:           1
 13.025 -15.915   0.000   0.001  -0.000  -0.000  -0.001   0.000
-15.915  19.470  -0.000  -0.001   0.000   0.000   0.001  -0.000
  0.000  -0.000  -9.421  -0.000   0.000  11.502   0.000  -0.000
  0.001  -0.001  -0.000  -9.422   0.000   0.000  11.504  -0.000
 -0.000   0.000   0.000   0.000  -9.421  -0.000  -0.000  11.502
 -0.000   0.000  11.502   0.000  -0.000 -13.932  -0.000   0.000
 -0.001   0.001   0.000  11.504  -0.000  -0.000 -13.935   0.000
  0.000  -0.000  -0.000  -0.000  11.502   0.000   0.000 -13.932
 total augmentation occupancy for first ion, spin component:           1
  2.614   0.370  -0.000  -0.003  -0.000  -0.000  -0.001  -0.000
  0.370   0.070  -0.000  -0.002  -0.000  -0.000  -0.001  -0.000
 -0.000  -0.000   2.171   0.000   0.000   0.263   0.000   0.000
 -0.003  -0.002   0.000   2.170   0.000   0.000   0.264   0.000
 -0.000  -0.000   0.000   0.000   2.171   0.000   0.000   0.263
 -0.000  -0.000   0.263   0.000   0.000   0.034   0.000   0.000
 -0.001  -0.001   0.000   0.264   0.000   0.000   0.035   0.000
 -0.000  -0.000   0.000   0.000   0.263   0.000   0.000   0.034


------------------------ aborting loop because EDIFF is reached ----------------------------------------


    CHARGE:  cpu time    0.5533: real time    0.5537
    FORLOC:  cpu time    0.0203: real time    0.0203
    FORNL :  cpu time    4.3970: real time    4.3992
    STRESS:  cpu time    8.6593: real time    8.6648
    FORCOR:  cpu time    0.0976: real time    0.0977
    FORHAR:  cpu time    0.0349: real time    0.0352
    MIXING:  cpu time    0.0045: real time    0.0045
    OFIELD:  cpu time    0.0001: real time    0.0001

  FORCE on cell =-STRESS in cart. coord.  units (eV):
  Direction    XX          YY          ZZ          XY          YZ          ZX
  --------------------------------------------------------------------------------------
  Alpha Z    65.72521    65.72521    65.72521
  Ewald  219207.61765219207.62436************    -0.00002    -0.00003    -0.00373
  Hartree220257.25956220257.25756************    -0.00000    -0.00000     0.00101
  E(xc)    -390.37271  -390.37304  -390.98684    -0.00000     0.00000     0.00001
  Local  ************************440012.09340    -0.00015     0.00003     0.00136
  n-local   -24.16528   -34.91122   -24.18964     2.65868    -1.65980     5.38402
  augment    53.92610    53.92503    53.46107     0.00016    -0.00000     0.00004
  Kinetic  1406.74977  1358.16646  1381.46931    -0.10402    -0.32676     0.72371
  Fock        0.00000     0.00000     0.00000     0.00000     0.00000     0.00000
  -------------------------------------------------------------------------------------
  Total       0.39426     0.39425     1.23529     0.00000     0.00000    -0.00000
  in kB       1.02678     1.02676     3.21709     0.00000     0.00000    -0.00000
  external pressure =        1.76 kB  Pullay stress =        0.00 kB


 VOLUME and BASIS-vectors are now :
 -----------------------------------------------------------------------------
  energy-cutoff  :      520.00
  volume of cell :      615.20
      direct lattice vectors                 reciprocal lattice vectors
     2.584487934 -1.492143373  0.000000000     0.386923842  0.000000000 -0.000000000
     0.000000000  2.984286746  0.000000000     0.193461921  0.335088443 -0.000000000
     0.000000000  0.000000000 79.763031829    -0.000000000 -0.000000000  0.012537136

  length of vectors
     2.984303893  2.984286746 79.763031829     0.386923842  0.386926065  0.012537136


 FORCES acting on ions
    electron-ion (+dipol)            ewald-force                    non-local-force                 convergence-correction
 -----------------------------------------------------------------------------------------------
   0.426E-06 -.362E-09 0.142E+04   -.105E-04 0.124E-05 -.142E+04   -.118E-16 -.224E-16 -.307E+00   0.660E-08 0.949E-10 -.480E-01
   0.106E-02 -.183E-02 0.710E+03   0.500E-04 -.103E-03 -.710E+03   -.131E-16 -.246E-16 -.333E+00   -.361E-08 -.949E-09 -.740E-01
   0.240E-06 -.300E-08 -.719E+03   -.104E-04 0.122E-05 0.720E+03   -.107E-16 -.203E-16 -.281E+00   -.102E-07 -.856E-11 -.171E+00
   0.106E-02 -.183E-02 -.143E+04   0.495E-04 -.103E-03 0.143E+04   -.111E-16 -.201E-16 -.281E+00   -.302E-07 0.347E-07 -.179E+00
   0.120E-05 -.138E-07 -.286E+04   -.116E-04 0.132E-05 0.286E+04   -.116E-16 -.222E-16 -.332E+00   -.956E-09 0.285E-10 -.154E+00
   0.100E-02 -.184E-02 -.357E+04   0.927E-04 -.891E-04 0.357E+04   -.767E-16 -.138E-15 -.193E+01   -.631E-07 0.101E-06 -.109E+00
   -.996E-03 0.184E-02 0.213E+04   -.126E-03 0.890E-04 -.214E+04   0.216E-16 0.357E-16 0.659E+00   0.196E-07 -.167E-07 -.408E-01
   -.106E-02 0.183E-02 -.458E+01   -.683E-04 0.102E-03 0.501E+01   -.122E-16 -.221E-16 -.306E+00   0.348E-08 -.207E-07 -.128E+00
   -.106E-02 0.183E-02 -.215E+04   -.686E-04 0.102E-03 0.215E+04   -.105E-16 -.198E-16 -.275E+00   0.311E-07 -.604E-07 -.173E+00
   -.224E-03 0.294E-05 0.812E+03   0.264E-03 -.271E-04 -.813E+03   -.172E-16 0.685E-17 0.566E+00   -.974E-09 -.791E-09 -.104E-01
   -.823E-05 0.202E-06 0.117E+03   0.102E-04 -.119E-05 -.117E+03   -.540E-17 -.892E-17 -.164E+00   0.998E-09 0.122E-08 -.353E-01
   -.851E-05 0.153E-06 -.597E+03   0.106E-04 -.125E-05 0.598E+03   -.540E-17 -.124E-16 -.165E+00   0.988E-09 0.154E-08 -.602E-01
   0.206E-03 -.263E-05 -.129E+04   -.242E-03 0.245E-04 0.129E+04   -.167E-16 0.493E-16 0.631E+00   -.525E-08 0.113E-08 -.114E-01
   0.363E-04 -.774E-04 0.355E+03   -.409E-04 0.879E-04 -.355E+03   -.675E-17 -.142E-16 -.171E+00   0.623E-09 0.618E-10 -.194E-01
   0.363E-04 -.774E-04 -.359E+03   -.409E-04 0.878E-04 0.359E+03   -.540E-17 -.107E-16 -.164E+00   0.284E-09 0.293E-09 -.615E-01
   0.355E-04 -.775E-04 -.107E+04   -.386E-04 0.880E-04 0.107E+04   -.387E-17 -.797E-17 -.103E+00   0.348E-08 -.142E-08 -.434E-01
   -.540E-04 0.773E-04 0.594E+03   0.600E-04 -.865E-04 -.593E+03   -.135E-16 -.606E-17 -.214E+00   -.180E-08 -.257E-09 -.130E-01
   -.525E-04 0.774E-04 -.121E+03   0.594E-04 -.867E-04 0.121E+03   -.536E-17 -.106E-16 -.158E+00   0.109E-08 0.452E-09 -.535E-01
   -.530E-04 0.772E-04 -.836E+03   0.600E-04 -.865E-04 0.836E+03   -.671E-17 -.141E-16 -.165E+00   0.107E-08 -.161E-08 -.541E-01
   0.106E-04 0.743E-07 0.134E+04   -.288E-04 0.221E-05 -.134E+04   -.159E-16 -.169E-16 -.139E+01   0.410E-09 -.188E-10 0.155E-03
   0.409E-06 0.540E-07 0.127E+04   0.280E-06 -.250E-07 -.127E+04   -.252E-18 -.741E-17 -.389E-01   -.112E-09 -.992E-11 0.232E-01
   -.172E-04 0.556E-07 0.120E+04   0.334E-04 -.257E-05 -.120E+04   0.227E-16 -.136E-16 0.199E-01   -.329E-09 0.678E-12 -.160E-02
   0.153E-04 -.262E-04 0.129E+04   -.428E-05 0.737E-05 -.129E+04   0.134E-18 0.323E-17 0.207E-01   0.301E-09 -.841E-10 0.190E-01
   0.174E-04 -.271E-04 0.122E+04   -.582E-05 0.730E-05 -.122E+04   -.340E-17 0.127E-18 0.105E-01   0.205E-09 0.423E-10 0.136E-01
   -.149E-04 0.261E-04 0.132E+04   0.201E-05 -.712E-05 -.132E+04   0.213E-16 0.390E-19 0.321E-02   0.162E-09 0.502E-10 0.108E-01
   -.158E-04 0.267E-04 0.124E+04   0.454E-05 -.724E-05 -.124E+04   -.416E-18 0.616E-17 -.642E-01   0.265E-09 -.858E-11 0.218E-01
 -----------------------------------------------------------------------------------------------
   -.821E-04 -.167E-05 0.628E+01   -.331E-13 -.865E-14 0.250E-11   -.198E-15 -.311E-15 -.493E+01   -.458E-07 0.378E-07 -.135E+01
 
 
 POSITION                                       TOTAL-FORCE (eV/Angst)
 -----------------------------------------------------------------------------------
      0.00000      0.00000     39.71531        -0.000000     -0.000000     -0.024182
      0.86150      1.49214     42.16948        -0.000000     -0.000000     -0.019593
      0.00000      0.00000     47.07649         0.000000      0.000000      0.005242
      0.86150      1.49214     49.53238         0.000000      0.000000      0.003885
      0.00000      0.00000     54.44472         0.000000      0.000000      0.008317
      0.86150      1.49214     56.89857        -0.000000     -0.000000     -0.001331
      1.72299     -0.00000     37.25951         0.000000     -0.000000     -0.000184
      1.72299     -0.00000     44.62238        -0.000000     -0.000000     -0.005452
      1.72299     -0.00000     51.98813         0.000000      0.000000      0.010019
      0.00000      0.00000     36.01823        -0.000000     -0.000000     -0.001248
      0.00000      0.00000     43.40678         0.000000      0.000000      0.015044
      0.00000      0.00000     50.77163        -0.000000     -0.000000     -0.004761
      0.00000      0.00000     58.19111         0.000000      0.000000      0.011238
      1.72299     -0.00000     40.95372         0.000000      0.000000      0.018173
      1.72299     -0.00000     48.31570        -0.000000     -0.000000     -0.002729
      1.72299     -0.00000     55.68472         0.000000      0.000000      0.000533
      0.86150      1.49214     38.49946         0.000000      0.000000      0.020242
      0.86150      1.49214     45.86006         0.000000      0.000000      0.015710
      0.86150      1.49214     53.22795        -0.000000     -0.000000     -0.007000
      0.00000      0.00000     19.91403        -0.000000     -0.000000     -0.042047
      0.00000      0.00000     26.61875        -0.000000     -0.000000     -0.006600
      0.00000      0.00000     33.28593         0.000000      0.000000      0.049388
      1.72299     -0.00000     24.39774         0.000000      0.000000      0.002338
      1.72299     -0.00000     31.07571        -0.000000     -0.000000     -0.009563
      0.86150      1.49214     22.17594        -0.000000     -0.000000     -0.001192
      0.86150      1.49214     28.84424        -0.000000     -0.000000     -0.034247
 -----------------------------------------------------------------------------------
    total drift:                               -0.000082     -0.000002     -0.001098


--------------------------------------------------------------------------------------------------------



  FREE ENERGIE OF THE ION-ELECTRON SYSTEM (eV)
  ---------------------------------------------------
  free  energy   TOTEN  =      -132.74763400 eV

  energy  without entropy=     -132.74202115  energy(sigma->0) =     -132.74482757
 


--------------------------------------------------------------------------------------------------------


    POTLOK:  cpu time    0.1851: real time    0.1853


--------------------------------------------------------------------------------------------------------


 stress matrix after NEB project (eV)
      0.39426      0.00000     -0.00000
      0.00000      0.39425      0.00000
      0.00000      0.00000      1.23529
  FORCES: max atom, RMS     0.049388    0.017710
  FORCE total and by dimension    0.090303    0.049388
  Stress total and by dimension    1.355293    1.235291
     LOOP+:  cpu time  422.8850: real time  425.3599
    4ORBIT:  cpu time    0.0000: real time    0.0000

 total amount of memory used by VASP MPI-rank0   175911. kBytes
=======================================================================

   base      :      30000. kBytes
   nonl-proj :      64800. kBytes
   fftplans  :      23743. kBytes
   grid      :      14531. kBytes
   one-center:         56. kBytes
   wavefun   :      42781. kBytes
 
  
  
 General timing and accounting informations for this job:
 ========================================================
  
                  Total CPU time used (sec):      430.923
                            User time (sec):      421.218
                          System time (sec):        9.704
                         Elapsed time (sec):      433.388
  
                   Maximum memory used (kb):      273700.
                   Average memory used (kb):           0.
  
                          Minor page faults:       297335
                          Major page faults:            0
                 Voluntary context switches:          945
