       N       E                     dE             d eps       ncg     rms          rms(c)
DAV:   1     0.656661682417E+03    0.65666E+03   -0.38688E+04  6560   0.118E+03
DAV:   2    -0.411274031171E+02   -0.69779E+03   -0.66251E+03  8380   0.262E+02
DAV:   3    -0.144563803683E+03   -0.10344E+03   -0.10263E+03  7635   0.105E+02
DAV:   4    -0.147570602791E+03   -0.30068E+01   -0.30000E+01  7990   0.208E+01
DAV:   5    -0.147653757792E+03   -0.83155E-01   -0.83111E-01  8910   0.318E+00    0.221E+01
DAV:   6    -0.132379015068E+03    0.15275E+02   -0.87032E+01  7345   0.284E+01    0.727E+00
DAV:   7    -0.132293469369E+03    0.85546E-01   -0.84887E+00  7600   0.663E+00    0.487E+00
DAV:   8    -0.132164187193E+03    0.12928E+00   -0.33182E+00  7720   0.415E+00    0.296E+00
DAV:   9    -0.132013810219E+03    0.15038E+00   -0.15659E+00  7605   0.346E+00    0.664E-01
DAV:  10    -0.132003503902E+03    0.10306E-01   -0.15107E-01  7700   0.119E+00    0.463E-01
DAV:  11    -0.131999433354E+03    0.40705E-02   -0.29131E-02  7690   0.588E-01    0.305E-01
DAV:  12    -0.131997100698E+03    0.23327E-02   -0.89704E-03  7910   0.419E-01    0.263E-01
DAV:  13    -0.131994356267E+03    0.27444E-02   -0.24787E-03  8615   0.307E-01    0.151E-01
DAV:  14    -0.131991916868E+03    0.24394E-02   -0.24409E-03  7755   0.272E-01    0.649E-02
DAV:  15    -0.131990880198E+03    0.10367E-02   -0.57595E-04  7790   0.134E-01    0.506E-02
DAV:  16    -0.131987211459E+03    0.36687E-02   -0.14070E-03  8130   0.367E-01    0.531E-02
DAV:  17    -0.131985610999E+03    0.16005E-02   -0.61646E-04  7660   0.186E-01    0.403E-02
DAV:  18    -0.131982889260E+03    0.27217E-02   -0.13158E-03  9010   0.375E-01    0.384E-02
DAV:  19    -0.131981503483E+03    0.13858E-02   -0.83630E-04  7745   0.225E-01    0.347E-02
DAV:  20    -0.131980912435E+03    0.59105E-03   -0.63011E-04  8265   0.211E-01    0.336E-02
DAV:  21    -0.131980806308E+03    0.10613E-03   -0.29327E-04  7500   0.948E-02    0.280E-02
DAV:  22    -0.131980864777E+03   -0.58470E-04   -0.12225E-04  7255   0.994E-02    0.217E-02
DAV:  23    -0.131980838974E+03    0.25803E-04   -0.87524E-05  7305   0.876E-02    0.199E-02
DAV:  24    -0.131980766014E+03    0.72960E-04   -0.12876E-04  7765   0.135E-01    0.140E-02
DAV:  25    -0.131980740168E+03    0.25846E-04   -0.11508E-04  7115   0.750E-02    0.175E-02
DAV:  26    -0.131980707238E+03    0.32930E-04   -0.68601E-05  7275   0.638E-02    0.105E-02
DAV:  27    -0.131980616961E+03    0.90278E-04   -0.28077E-05  6290   0.542E-02    0.124E-02
DAV:  28    -0.131980553389E+03    0.63572E-04   -0.21469E-05  6405   0.288E-02    0.114E-02
DAV:  29    -0.131980459783E+03    0.93606E-04   -0.34929E-05  6660   0.345E-02    0.105E-02
DAV:  30    -0.131980370578E+03    0.89205E-04   -0.17255E-05  5540   0.305E-02    0.121E-02
DAV:  31    -0.131980317442E+03    0.53136E-04   -0.54831E-05  6460   0.398E-02    0.132E-02
DAV:  32    -0.131980214498E+03    0.10294E-03   -0.36958E-05  6600   0.421E-02    0.154E-02
DAV:  33    -0.131980140656E+03    0.73843E-04   -0.31623E-05  6485   0.361E-02    0.882E-03
DAV:  34    -0.131980152781E+03   -0.12125E-04   -0.18454E-05  5405   0.355E-02    0.779E-03
DAV:  35    -0.131980231340E+03   -0.78560E-04   -0.20653E-05  5785   0.364E-02    0.104E-02
DAV:  36    -0.131980274829E+03   -0.43488E-04   -0.15195E-05  5575   0.314E-02    0.547E-03
DAV:  37    -0.131980395412E+03   -0.12058E-03   -0.55633E-05  6790   0.485E-02    0.164E-02
DAV:  38    -0.131980425145E+03   -0.29733E-04   -0.30506E-05  6920   0.282E-02    0.608E-03
DAV:  39    -0.131980443187E+03   -0.18041E-04   -0.79915E-06  4730   0.122E-02    0.380E-03
DAV:  40    -0.131980461041E+03   -0.17855E-04   -0.16038E-06  4695   0.721E-03    0.292E-03
DAV:  41    -0.131980472913E+03   -0.11872E-04   -0.16393E-06  4715   0.669E-03    0.213E-03
DAV:  42    -0.131980484281E+03   -0.11368E-04   -0.13659E-06  4580   0.886E-03    0.188E-03
DAV:  43    -0.131980489140E+03   -0.48590E-05   -0.99628E-07  4365   0.448E-03
   1 F= -.13198049E+03 E0= -.13197823E+03  d E =-.131980E+03
       N       E                     dE             d eps       ncg     rms          rms(c)
DAV:   1    -0.132828307329E+03   -0.84782E+00   -0.24036E+01  6810   0.215E+01    0.295E+00
DAV:   2    -0.132689648869E+03    0.13866E+00   -0.72709E-01  7555   0.325E+00    0.175E+00
DAV:   3    -0.132631212521E+03    0.58436E-01   -0.24963E-01  7640   0.162E+00    0.719E-01
DAV:   4    -0.132605088722E+03    0.26124E-01   -0.20900E-01  7750   0.126E+00    0.249E-01
DAV:   5    -0.132600539442E+03    0.45493E-02   -0.34266E-02  7615   0.514E-01    0.164E-01
DAV:   6    -0.132599368218E+03    0.11712E-02   -0.31795E-03  7890   0.215E-01    0.111E-01
DAV:   7    -0.132598007292E+03    0.13609E-02   -0.70819E-04  9030   0.237E-01    0.750E-02
DAV:   8    -0.132596224177E+03    0.17831E-02   -0.18177E-03  8210   0.447E-01    0.333E-02
DAV:   9    -0.132596068741E+03    0.15544E-03   -0.93184E-04  7430   0.131E-01    0.289E-02
DAV:  10    -0.132595593101E+03    0.47564E-03   -0.20753E-04  8785   0.200E-01    0.229E-02
DAV:  11    -0.132594813901E+03    0.77920E-03   -0.69654E-04  8110   0.369E-01    0.229E-02
DAV:  12    -0.132594444969E+03    0.36893E-03   -0.64476E-04  8400   0.279E-01    0.224E-02
DAV:  13    -0.132594149605E+03    0.29536E-03   -0.46936E-04  9150   0.275E-01    0.157E-02
DAV:  14    -0.132593976266E+03    0.17334E-03   -0.37343E-04  8365   0.210E-01    0.167E-02
DAV:  15    -0.132593874874E+03    0.10139E-03   -0.22514E-04  7855   0.125E-01    0.131E-02
DAV:  16    -0.132593791429E+03    0.83445E-04   -0.71861E-05  8175   0.936E-02    0.951E-03
DAV:  17    -0.132593708772E+03    0.82657E-04   -0.40568E-05  7435   0.111E-01    0.796E-03
DAV:  18    -0.132593660303E+03    0.48469E-04   -0.71120E-05  7355   0.792E-02    0.742E-03
DAV:  19    -0.132593631302E+03    0.29000E-04   -0.38787E-05  7155   0.588E-02    0.547E-03
DAV:  20    -0.132593615411E+03    0.15891E-04   -0.29489E-05  6935   0.391E-02    0.490E-03
DAV:  21    -0.132593593894E+03    0.21517E-04   -0.45806E-06  5375   0.328E-02    0.394E-03
DAV:  22    -0.132593557663E+03    0.36231E-04   -0.83545E-06  5455   0.469E-02    0.470E-03
DAV:  23    -0.132593534091E+03    0.23572E-04   -0.15102E-05  5950   0.327E-02    0.307E-03
DAV:  24    -0.132593516705E+03    0.17386E-04   -0.86293E-06  5365   0.243E-02    0.472E-03
DAV:  25    -0.132593506420E+03    0.10284E-04   -0.63918E-06  5220   0.181E-02    0.305E-03
DAV:  26    -0.132593504576E+03    0.18446E-05   -0.41346E-06  4475   0.103E-02
   2 F= -.13259350E+03 E0= -.13259061E+03  d E =-.613015E+00
       N       E                     dE             d eps       ncg     rms          rms(c)
DAV:   1    -0.132605937727E+03   -0.12431E-01   -0.48920E-01  6775   0.306E+00    0.418E-01
DAV:   2    -0.132603141551E+03    0.27962E-02   -0.12600E-02  7640   0.420E-01    0.242E-01
DAV:   3    -0.132602034015E+03    0.11075E-02   -0.62371E-03  7715   0.244E-01    0.934E-02
DAV:   4    -0.132601372456E+03    0.66156E-03   -0.42065E-03  7920   0.167E-01    0.291E-02
DAV:   5    -0.132601309215E+03    0.63241E-04   -0.34938E-04  7620   0.566E-02    0.227E-02
DAV:   6    -0.132601283377E+03    0.25838E-04   -0.35624E-05  7595   0.316E-02    0.138E-02
DAV:   7    -0.132601250887E+03    0.32490E-04   -0.18307E-05  6345   0.440E-02    0.573E-03
DAV:   8    -0.132601234507E+03    0.16380E-04   -0.20111E-05  6485   0.424E-02    0.405E-03
DAV:   9    -0.132601227971E+03    0.65358E-05   -0.19236E-05  5575   0.549E-02
   3 F= -.13260123E+03 E0= -.13259885E+03  d E =-.620739E+00
       N       E                     dE             d eps       ncg     rms          rms(c)
DAV:   1    -0.132665199655E+03   -0.63965E-01   -0.27691E+01  6370   0.196E+01    0.104E+00
DAV:   2    -0.132718417869E+03   -0.53218E-01   -0.76036E-01  7505   0.282E+00    0.654E-01
DAV:   3    -0.132708485240E+03    0.99326E-02   -0.11800E-02  8200   0.594E-01    0.411E-01
DAV:   4    -0.132701515527E+03    0.69697E-02   -0.14953E-02  7830   0.796E-01    0.946E-02
DAV:   5    -0.132701351114E+03    0.16441E-03   -0.75136E-03  7690   0.378E-01    0.757E-02
DAV:   6    -0.132700979708E+03    0.37141E-03   -0.73419E-04  8215   0.152E-01    0.377E-02
DAV:   7    -0.132700683424E+03    0.29628E-03   -0.22364E-04  8035   0.131E-01    0.233E-02
DAV:   8    -0.132700460352E+03    0.22307E-03   -0.18347E-04  9190   0.127E-01    0.196E-02
DAV:   9    -0.132700101491E+03    0.35886E-03   -0.25664E-04  8555   0.231E-01    0.191E-02
DAV:  10    -0.132699916593E+03    0.18490E-03   -0.29184E-04  8045   0.198E-01    0.162E-02
DAV:  11    -0.132699823330E+03    0.93263E-04   -0.22813E-04  8635   0.167E-01    0.105E-02
DAV:  12    -0.132699781721E+03    0.41608E-04   -0.14602E-04  8125   0.117E-01    0.828E-03
DAV:  13    -0.132699753369E+03    0.28352E-04   -0.56576E-05  7510   0.823E-02    0.636E-03
DAV:  14    -0.132699721005E+03    0.32364E-04   -0.18206E-05  5745   0.800E-02    0.446E-03
DAV:  15    -0.132699709255E+03    0.11750E-04   -0.50302E-05  6995   0.493E-02    0.465E-03
DAV:  16    -0.132699696615E+03    0.12640E-04   -0.87326E-06  4955   0.340E-02    0.322E-03
DAV:  17    -0.132699677676E+03    0.18939E-04   -0.52861E-06  5160   0.422E-02    0.278E-03
DAV:  18    -0.132699665550E+03    0.12126E-04   -0.11120E-05  5220   0.288E-02    0.349E-03
DAV:  19    -0.132699659182E+03    0.63677E-05   -0.75962E-06  4475   0.167E-02
   4 F= -.13269966E+03 E0= -.13269730E+03  d E =-.984312E-01
       N       E                     dE             d eps       ncg     rms          rms(c)
DAV:   1    -0.132702464311E+03   -0.27988E-02   -0.22812E+00  6380   0.585E+00    0.295E-01
DAV:   2    -0.132706328755E+03   -0.38644E-02   -0.57119E-02  7445   0.816E-01    0.181E-01
DAV:   3    -0.132705553479E+03    0.77528E-03   -0.92639E-04  8295   0.178E-01    0.116E-01
DAV:   4    -0.132704988778E+03    0.56470E-03   -0.15220E-03  7960   0.247E-01    0.312E-02
DAV:   5    -0.132704980357E+03    0.84210E-05   -0.76923E-04  7665   0.113E-01    0.306E-02
DAV:   6    -0.132704950779E+03    0.29578E-04   -0.84997E-05  7585   0.386E-02    0.182E-02
DAV:   7    -0.132704911678E+03    0.39101E-04   -0.31723E-05  7025   0.371E-02    0.878E-03
DAV:   8    -0.132704880663E+03    0.31015E-04   -0.14738E-05  5155   0.434E-02    0.655E-03
DAV:   9    -0.132704834341E+03    0.46322E-04   -0.27775E-05  6585   0.807E-02    0.593E-03
DAV:  10    -0.132704808133E+03    0.26208E-04   -0.38881E-05  7055   0.700E-02    0.493E-03
DAV:  11    -0.132704787902E+03    0.20230E-04   -0.18225E-05  5655   0.640E-02    0.339E-03
DAV:  12    -0.132704770719E+03    0.17184E-04   -0.16970E-05  5915   0.677E-02    0.278E-03
DAV:  13    -0.132704768873E+03    0.18459E-05   -0.39004E-05  6875   0.301E-02
   5 F= -.13270477E+03 E0= -.13270234E+03  d E =-.103541E+00
       N       E                     dE             d eps       ncg     rms          rms(c)
DAV:   1    -0.132743510415E+03   -0.38740E-01   -0.54651E+00  6440   0.968E+00    0.495E-01
DAV:   2    -0.132753326103E+03   -0.98157E-02   -0.14429E-01  7385   0.142E+00    0.282E-01
DAV:   3    -0.132751927758E+03    0.13983E-02   -0.31227E-03  7875   0.265E-01    0.179E-01
DAV:   4    -0.132751359620E+03    0.56814E-03   -0.36459E-03  7610   0.273E-01    0.779E-02
DAV:   5    -0.132751071788E+03    0.28783E-03   -0.91608E-04  7575   0.161E-01    0.583E-02
DAV:   6    -0.132751016253E+03    0.55535E-04   -0.31922E-04  8060   0.808E-02    0.396E-02
DAV:   7    -0.132750986037E+03    0.30216E-04   -0.77464E-05  7555   0.430E-02    0.257E-02
DAV:   8    -0.132750943910E+03    0.42127E-04   -0.26799E-05  6850   0.602E-02    0.117E-02
DAV:   9    -0.132750911213E+03    0.32697E-04   -0.47006E-05  7085   0.550E-02    0.839E-03
DAV:  10    -0.132750904957E+03    0.62555E-05   -0.22710E-05  5995   0.232E-02
   6 F= -.13275090E+03 E0= -.13274863E+03  d E =-.461361E-01
       N       E                     dE             d eps       ncg     rms          rms(c)
DAV:   1    -0.132759141795E+03   -0.82306E-02   -0.12469E+01  6455   0.144E+01    0.756E-01
DAV:   2    -0.132782476730E+03   -0.23335E-01   -0.34190E-01  7420   0.210E+00    0.440E-01
DAV:   3    -0.132779092202E+03    0.33845E-02   -0.72692E-03  7825   0.401E-01    0.280E-01
DAV:   4    -0.132777927409E+03    0.11648E-02   -0.82847E-03  7580   0.409E-01    0.134E-01
DAV:   5    -0.132777023092E+03    0.90432E-03   -0.20319E-03  7600   0.260E-01    0.936E-02
DAV:   6    -0.132776828906E+03    0.19419E-03   -0.68747E-04  8075   0.118E-01    0.640E-02
DAV:   7    -0.132776725547E+03    0.10336E-03   -0.26119E-04  7750   0.755E-02    0.389E-02
DAV:   8    -0.132776613687E+03    0.11186E-03   -0.93910E-05  8440   0.860E-02    0.193E-02
DAV:   9    -0.132776509287E+03    0.10440E-03   -0.82344E-05  7375   0.815E-02    0.117E-02
DAV:  10    -0.132776468951E+03    0.40336E-04   -0.56199E-05  7345   0.454E-02    0.108E-02
DAV:  11    -0.132776364397E+03    0.10455E-03   -0.27812E-05  6735   0.881E-02    0.738E-03
DAV:  12    -0.132776283526E+03    0.80871E-04   -0.60465E-05  7745   0.922E-02    0.912E-03
DAV:  13    -0.132776244022E+03    0.39505E-04   -0.50158E-05  7525   0.888E-02    0.661E-03
DAV:  14    -0.132776212462E+03    0.31560E-04   -0.60904E-05  7595   0.132E-01    0.520E-03
DAV:  15    -0.132776228884E+03   -0.16422E-04   -0.10607E-04  7535   0.463E-02    0.732E-03
DAV:  16    -0.132776231721E+03   -0.28370E-05   -0.14742E-05  5130   0.135E-02
   7 F= -.13277623E+03 E0= -.13277321E+03  d E =-.714628E-01
       N       E                     dE             d eps       ncg     rms          rms(c)
DAV:   1    -0.132798770641E+03   -0.22542E-01   -0.72780E+00  6695   0.100E+01    0.376E-01
DAV:   2    -0.132812627517E+03   -0.13857E-01   -0.17119E-01  7530   0.143E+00    0.227E-01
DAV:   3    -0.132811495391E+03    0.11321E-02   -0.36525E-03  7730   0.263E-01    0.152E-01
DAV:   4    -0.132810897880E+03    0.59751E-03   -0.24689E-03  7655   0.226E-01    0.776E-02
DAV:   5    -0.132810619148E+03    0.27873E-03   -0.13031E-03  7725   0.165E-01    0.423E-02
DAV:   6    -0.132810581892E+03    0.37256E-04   -0.43091E-04  7665   0.101E-01    0.328E-02
DAV:   7    -0.132810527007E+03    0.54885E-04   -0.96893E-05  8705   0.778E-02    0.223E-02
DAV:   8    -0.132810480454E+03    0.46553E-04   -0.36391E-05  7095   0.714E-02    0.126E-02
DAV:   9    -0.132810440626E+03    0.39828E-04   -0.41297E-05  7760   0.903E-02    0.647E-03
DAV:  10    -0.132810429925E+03    0.10701E-04   -0.47302E-05  7185   0.566E-02    0.525E-03
DAV:  11    -0.132810419581E+03    0.10344E-04   -0.13946E-05  5985   0.838E-02    0.412E-03
DAV:  12    -0.132810420113E+03   -0.53244E-06   -0.41388E-05  7345   0.687E-02
   8 F= -.13281042E+03 E0= -.13280698E+03  d E =-.341884E-01
       N       E                     dE             d eps       ncg     rms          rms(c)
DAV:   1    -0.132810044840E+03    0.37474E-03   -0.76868E+00  6630   0.107E+01    0.387E-01
DAV:   2    -0.132824687149E+03   -0.14642E-01   -0.18110E-01  7565   0.155E+00    0.235E-01
DAV:   3    -0.132823465782E+03    0.12214E-02   -0.39759E-03  7825   0.277E-01    0.158E-01
DAV:   4    -0.132822839890E+03    0.62589E-03   -0.28421E-03  7700   0.237E-01    0.815E-02
DAV:   5    -0.132822497565E+03    0.34232E-03   -0.14672E-03  7780   0.183E-01    0.449E-02
DAV:   6    -0.132822451830E+03    0.45735E-04   -0.48583E-04  7755   0.113E-01    0.355E-02
DAV:   7    -0.132822385836E+03    0.65994E-04   -0.10116E-04  8915   0.808E-02    0.245E-02
DAV:   8    -0.132822325777E+03    0.60059E-04   -0.35385E-05  6635   0.759E-02    0.138E-02
DAV:   9    -0.132822263421E+03    0.62356E-04   -0.44306E-05  7760   0.102E-01    0.708E-03
DAV:  10    -0.132822236490E+03    0.26930E-04   -0.48858E-05  7275   0.710E-02    0.551E-03
DAV:  11    -0.132822208607E+03    0.27884E-04   -0.17224E-05  5985   0.988E-02    0.395E-03
DAV:  12    -0.132822198593E+03    0.10014E-04   -0.55889E-05  7870   0.918E-02    0.391E-03
DAV:  13    -0.132822204805E+03   -0.62122E-05   -0.73685E-05  7125   0.409E-02
   9 F= -.13282220E+03 E0= -.13281860E+03  d E =-.459731E-01
       N       E                     dE             d eps       ncg     rms          rms(c)
DAV:   1    -0.132839237317E+03   -0.17039E-01   -0.88723E+00  6385   0.122E+01    0.435E-01
DAV:   2    -0.132856095750E+03   -0.16858E-01   -0.19959E-01  7370   0.168E+00    0.243E-01
DAV:   3    -0.132854828969E+03    0.12668E-02   -0.40615E-03  8040   0.258E-01    0.161E-01
DAV:   4    -0.132854276956E+03    0.55201E-03   -0.37110E-03  7485   0.236E-01    0.830E-02
DAV:   5    -0.132853935983E+03    0.34097E-03   -0.20653E-03  7785   0.184E-01    0.465E-02
DAV:   6    -0.132853922083E+03    0.13900E-04   -0.40085E-04  7660   0.892E-02    0.426E-02
DAV:   7    -0.132853908584E+03    0.13499E-04   -0.72130E-05  7710   0.362E-02    0.305E-02
DAV:   8    -0.132853876431E+03    0.32153E-04   -0.17884E-05  5775   0.532E-02    0.143E-02
DAV:   9    -0.132853860495E+03    0.15936E-04   -0.31345E-05  7190   0.522E-02    0.535E-03
DAV:  10    -0.132853857949E+03    0.25464E-05   -0.16735E-05  5735   0.460E-02
  10 F= -.13285386E+03 E0= -.13285035E+03  d E =-.316531E-01
       N       E                     dE             d eps       ncg     rms          rms(c)
DAV:   1    -0.132744576831E+03    0.10928E+00   -0.69841E+01  6380   0.338E+01    0.130E+00
DAV:   2    -0.132897637375E+03   -0.15306E+00   -0.18097E+00  7350   0.486E+00    0.792E-01
DAV:   3    -0.132885244510E+03    0.12393E-01   -0.38099E-02  7910   0.777E-01    0.507E-01
DAV:   4    -0.132880167861E+03    0.50766E-02   -0.33129E-02  7560   0.693E-01    0.245E-01
DAV:   5    -0.132877540151E+03    0.26277E-02   -0.16425E-02  7750   0.472E-01    0.139E-01
DAV:   6    -0.132877228395E+03    0.31176E-03   -0.32312E-03  7780   0.268E-01    0.108E-01
DAV:   7    -0.132877063351E+03    0.16504E-03   -0.75085E-04  8185   0.135E-01    0.642E-02
DAV:   8    -0.132876871442E+03    0.19191E-03   -0.22122E-04 10595   0.146E-01    0.328E-02
DAV:   9    -0.132876743177E+03    0.12826E-03   -0.16318E-04  8135   0.126E-01    0.144E-02
DAV:  10    -0.132876708010E+03    0.35167E-04   -0.12576E-04  7855   0.810E-02    0.133E-02
DAV:  11    -0.132876681878E+03    0.26131E-04   -0.83762E-05  8425   0.110E-01    0.100E-02
DAV:  12    -0.132876685573E+03   -0.36943E-05   -0.81249E-05  7655   0.569E-02
  11 F= -.13287669E+03 E0= -.13287384E+03  d E =-.544808E-01
       N       E                     dE             d eps       ncg     rms          rms(c)
DAV:   1    -0.132871716412E+03    0.49655E-02   -0.49935E+00  6420   0.881E+00    0.330E-01
DAV:   2    -0.132881403900E+03   -0.96875E-02   -0.11293E-01  7310   0.120E+00    0.181E-01
DAV:   3    -0.132880695302E+03    0.70860E-03   -0.21301E-03  7995   0.187E-01    0.120E-01
DAV:   4    -0.132880424169E+03    0.27113E-03   -0.21314E-03  7700   0.180E-01    0.615E-02
DAV:   5    -0.132880250522E+03    0.17365E-03   -0.11720E-03  7750   0.135E-01    0.332E-02
DAV:   6    -0.132880246217E+03    0.43048E-05   -0.20787E-04  7855   0.616E-02    0.297E-02
DAV:   7    -0.132880239496E+03    0.67207E-05   -0.38194E-05  7425   0.253E-02
  12 F= -.13288024E+03 E0= -.13287720E+03  d E =-.580347E-01
       N       E                     dE             d eps       ncg     rms          rms(c)
DAV:   1    -0.132893298919E+03   -0.13053E-01   -0.82902E+00  6580   0.116E+01    0.404E-01
DAV:   2    -0.132910316323E+03   -0.17017E-01   -0.18904E-01  7370   0.161E+00    0.223E-01
DAV:   3    -0.132909252740E+03    0.10636E-02   -0.30231E-03  7995   0.243E-01    0.152E-01
DAV:   4    -0.132908685915E+03    0.56683E-03   -0.27073E-03  7585   0.229E-01    0.726E-02
DAV:   5    -0.132908410168E+03    0.27575E-03   -0.17026E-03  7695   0.170E-01    0.467E-02
DAV:   6    -0.132908371834E+03    0.38334E-04   -0.36802E-04  7625   0.846E-02    0.388E-02
DAV:   7    -0.132908331362E+03    0.40472E-04   -0.84742E-05  8285   0.442E-02    0.233E-02
DAV:   8    -0.132908270554E+03    0.60809E-04   -0.34736E-05  6585   0.626E-02    0.130E-02
DAV:   9    -0.132908230032E+03    0.40522E-04   -0.35712E-05  7045   0.605E-02    0.825E-03
DAV:  10    -0.132908202212E+03    0.27820E-04   -0.35540E-05  6985   0.621E-02    0.575E-03
DAV:  11    -0.132908182571E+03    0.19642E-04   -0.18098E-05  5850   0.583E-02    0.476E-03
DAV:  12    -0.132908173819E+03    0.87520E-05   -0.24102E-05  6320   0.529E-02
  13 F= -.13290817E+03 E0= -.13290563E+03  d E =-.279343E-01
       N       E                     dE             d eps       ncg     rms          rms(c)
DAV:   1    -0.132795986535E+03    0.11220E+00   -0.74447E+01  6560   0.353E+01    0.127E+00
DAV:   2    -0.132967529191E+03   -0.17154E+00   -0.18982E+00  7320   0.509E+00    0.775E-01
DAV:   3    -0.132955664669E+03    0.11865E-01   -0.31547E-02  8085   0.782E-01    0.484E-01
DAV:   4    -0.132950138112E+03    0.55266E-02   -0.24610E-02  7545   0.704E-01    0.220E-01
DAV:   5    -0.132948134388E+03    0.20037E-02   -0.14996E-02  7695   0.458E-01    0.120E-01
DAV:   6    -0.132947605020E+03    0.52937E-03   -0.26867E-03  7670   0.237E-01    0.912E-02
DAV:   7    -0.132947167995E+03    0.43702E-03   -0.55359E-04  8560   0.147E-01    0.525E-02
DAV:   8    -0.132946722356E+03    0.44564E-03   -0.30116E-04  9810   0.165E-01    0.283E-02
DAV:   9    -0.132946391996E+03    0.33036E-03   -0.29132E-04  9125   0.165E-01    0.196E-02
DAV:  10    -0.132946214053E+03    0.17794E-03   -0.19550E-04  8090   0.123E-01    0.163E-02
DAV:  11    -0.132946074088E+03    0.13997E-03   -0.92160E-05  8310   0.112E-01    0.124E-02
DAV:  12    -0.132945948290E+03    0.12580E-03   -0.14071E-04  8320   0.158E-01    0.830E-03
DAV:  13    -0.132945946677E+03    0.16129E-05   -0.17741E-04  7475   0.605E-02    0.956E-03
DAV:  14    -0.132945939877E+03    0.68005E-05   -0.19969E-05  5915   0.254E-02
  14 F= -.13294594E+03 E0= -.13294437E+03  d E =-.657004E-01
       N       E                     dE             d eps       ncg     rms          rms(c)
DAV:   1    -0.132959220813E+03   -0.13274E-01   -0.12160E+01  6370   0.145E+01    0.523E-01
DAV:   2    -0.132983383151E+03   -0.24162E-01   -0.27688E-01  7340   0.202E+00    0.291E-01
DAV:   3    -0.132981557274E+03    0.18259E-02   -0.71509E-03  7955   0.322E-01    0.192E-01
DAV:   4    -0.132980917468E+03    0.63981E-03   -0.63929E-03  7540   0.303E-01    0.106E-01
DAV:   5    -0.132980324201E+03    0.59327E-03   -0.33665E-03  7590   0.254E-01    0.447E-02
DAV:   6    -0.132980305573E+03    0.18629E-04   -0.62947E-04  7660   0.118E-01    0.477E-02
DAV:   7    -0.132980279299E+03    0.26274E-04   -0.81095E-05  7945   0.378E-02    0.386E-02
DAV:   8    -0.132980203628E+03    0.75670E-04   -0.35529E-05  6565   0.670E-02    0.187E-02
DAV:   9    -0.132980135962E+03    0.67666E-04   -0.35330E-05  7165   0.845E-02    0.948E-03
DAV:  10    -0.132980081107E+03    0.54855E-04   -0.38062E-05  7285   0.926E-02    0.682E-03
DAV:  11    -0.132980068505E+03    0.12602E-04   -0.46527E-05  7085   0.414E-02    0.728E-03
DAV:  12    -0.132980063482E+03    0.50222E-05   -0.11391E-05  4385   0.198E-02
  15 F= -.13298006E+03 E0= -.13297863E+03  d E =-.341236E-01
       N       E                     dE             d eps       ncg     rms          rms(c)
DAV:   1    -0.132923877840E+03    0.56191E-01   -0.45057E+01  6370   0.280E+01    0.103E+00
DAV:   2    -0.133018418047E+03   -0.94540E-01   -0.10894E+00  7375   0.398E+00    0.596E-01
DAV:   3    -0.133010962972E+03    0.74551E-02   -0.29809E-02  7860   0.646E-01    0.385E-01
DAV:   4    -0.133008486100E+03    0.24769E-02   -0.23839E-02  7625   0.560E-01    0.213E-01
DAV:   5    -0.133006208995E+03    0.22771E-02   -0.12756E-02  7680   0.455E-01    0.899E-02
DAV:   6    -0.133006079619E+03    0.12938E-03   -0.21140E-03  7570   0.227E-01    0.855E-02
DAV:   7    -0.133005966445E+03    0.11317E-03   -0.38771E-04  8370   0.897E-02    0.630E-02
DAV:   8    -0.133005736784E+03    0.22966E-03   -0.11818E-04  8635   0.124E-01    0.289E-02
DAV:   9    -0.133005542900E+03    0.19388E-03   -0.13040E-04  8900   0.137E-01    0.152E-02
DAV:  10    -0.133005440982E+03    0.10192E-03   -0.10237E-04  8065   0.996E-02    0.129E-02
DAV:  11    -0.133005351566E+03    0.89416E-04   -0.55954E-05  7460   0.100E-01    0.117E-02
DAV:  12    -0.133005290018E+03    0.61547E-04   -0.55957E-05  7490   0.860E-02    0.915E-03
DAV:  13    -0.133005194490E+03    0.95528E-04   -0.74960E-05  7960   0.155E-01    0.619E-03
DAV:  14    -0.133005175570E+03    0.18920E-04   -0.11010E-04  7365   0.699E-02    0.822E-03
DAV:  15    -0.133005169722E+03    0.58483E-05   -0.49571E-05  7220   0.384E-02
  16 F= -.13300517E+03 E0= -.13300336E+03  d E =-.592298E-01
       N       E                     dE             d eps       ncg     rms          rms(c)
DAV:   1    -0.133020062118E+03   -0.14887E-01   -0.40377E+00  6410   0.850E+00    0.350E-01
DAV:   2    -0.133027030283E+03   -0.69682E-02   -0.99651E-02  7495   0.125E+00    0.187E-01
DAV:   3    -0.133026257481E+03    0.77280E-03   -0.53145E-03  7905   0.246E-01    0.129E-01
DAV:   4    -0.133025891183E+03    0.36630E-03   -0.23300E-03  7585   0.144E-01    0.828E-02
DAV:   5    -0.133025549568E+03    0.34162E-03   -0.10484E-03  7930   0.145E-01    0.375E-02
DAV:   6    -0.133025493493E+03    0.56075E-04   -0.27881E-04  8355   0.966E-02    0.321E-02
DAV:   7    -0.133025428378E+03    0.65115E-04   -0.15440E-04  9095   0.105E-01    0.234E-02
DAV:   8    -0.133025378860E+03    0.49518E-04   -0.62923E-05  7580   0.652E-02    0.149E-02
DAV:   9    -0.133025309000E+03    0.69860E-04   -0.30114E-05  6805   0.854E-02    0.729E-03
DAV:  10    -0.133025238922E+03    0.70078E-04   -0.34650E-05  7005   0.115E-01    0.952E-03
DAV:  11    -0.133025191396E+03    0.47526E-04   -0.71193E-05  8440   0.130E-01    0.714E-03
DAV:  12    -0.133025172236E+03    0.19160E-04   -0.53860E-05  7260   0.106E-01    0.772E-03
DAV:  13    -0.133025179819E+03   -0.75836E-05   -0.87611E-05  6520   0.342E-02
  17 F= -.13302518E+03 E0= -.13302331E+03  d E =-.200101E-01
       N       E                     dE             d eps       ncg     rms          rms(c)
DAV:   1    -0.133027054947E+03   -0.18827E-02   -0.21019E+00  6400   0.615E+00    0.253E-01
DAV:   2    -0.133030630771E+03   -0.35758E-02   -0.51965E-02  7575   0.905E-01    0.135E-01
DAV:   3    -0.133030192010E+03    0.43876E-03   -0.29077E-03  7945   0.178E-01    0.931E-02
DAV:   4    -0.133029963715E+03    0.22829E-03   -0.12239E-03  7695   0.106E-01    0.603E-02
DAV:   5    -0.133029722852E+03    0.24086E-03   -0.55458E-04  7890   0.115E-01    0.280E-02
DAV:   6    -0.133029672046E+03    0.50806E-04   -0.15249E-04  8355   0.777E-02    0.239E-02
DAV:   7    -0.133029596231E+03    0.75815E-04   -0.98385E-05  8980   0.103E-01    0.169E-02
DAV:   8    -0.133029551963E+03    0.44268E-04   -0.61563E-05  7600   0.600E-02    0.128E-02
DAV:   9    -0.133029501179E+03    0.50784E-04   -0.26985E-05  6805   0.681E-02    0.802E-03
DAV:  10    -0.133029435044E+03    0.66135E-04   -0.31203E-05  6890   0.109E-01    0.949E-03
DAV:  11    -0.133029397655E+03    0.37390E-04   -0.68343E-05  7810   0.102E-01    0.626E-03
DAV:  12    -0.133029352039E+03    0.45616E-04   -0.62591E-05  7680   0.184E-01    0.675E-03
DAV:  13    -0.133029353617E+03   -0.15780E-05   -0.12733E-04  7475   0.939E-02    0.532E-03
DAV:  14    -0.133029361988E+03   -0.83713E-05   -0.79774E-05  6755   0.371E-02
  18 F= -.13302936E+03 E0= -.13302746E+03  d E =-.241923E-01
       N       E                     dE             d eps       ncg     rms          rms(c)
DAV:   1    -0.133035154794E+03   -0.58012E-02   -0.49272E+00  6395   0.933E+00    0.355E-01
DAV:   2    -0.133044610661E+03   -0.94559E-02   -0.11645E-01  7415   0.133E+00    0.205E-01
DAV:   3    -0.133043646263E+03    0.96440E-03   -0.18074E-03  8220   0.230E-01    0.134E-01
DAV:   4    -0.133043036239E+03    0.61002E-03   -0.23608E-03  7805   0.296E-01    0.481E-02
DAV:   5    -0.133043016832E+03    0.19407E-04   -0.14524E-03  7725   0.155E-01    0.445E-02
DAV:   6    -0.133042989328E+03    0.27504E-04   -0.15655E-04  7725   0.493E-02    0.345E-02
DAV:   7    -0.133042967867E+03    0.21461E-04   -0.42738E-05  7420   0.249E-02    0.217E-02
DAV:   8    -0.133042937021E+03    0.30845E-04   -0.17960E-05  5575   0.501E-02    0.950E-03
DAV:   9    -0.133042913325E+03    0.23697E-04   -0.27379E-05  6615   0.621E-02    0.726E-03
DAV:  10    -0.133042904866E+03    0.84581E-05   -0.21828E-05  6135   0.443E-02
  19 F= -.13304290E+03 E0= -.13304107E+03  d E =-.135429E-01
       N       E                     dE             d eps       ncg     rms          rms(c)
DAV:   1    -0.133034704712E+03    0.82086E-02   -0.79270E+00  6370   0.119E+01    0.448E-01
DAV:   2    -0.133049763722E+03   -0.15059E-01   -0.18596E-01  7420   0.169E+00    0.259E-01
DAV:   3    -0.133048217520E+03    0.15462E-02   -0.29818E-03  8170   0.291E-01    0.169E-01
DAV:   4    -0.133047208098E+03    0.10094E-02   -0.36769E-03  7775   0.369E-01    0.619E-02
DAV:   5    -0.133047139627E+03    0.68470E-04   -0.23877E-03  7675   0.204E-01    0.551E-02
DAV:   6    -0.133047088738E+03    0.50889E-04   -0.31361E-04  7745   0.699E-02    0.436E-02
DAV:   7    -0.133047046239E+03    0.42499E-04   -0.59143E-05  7555   0.323E-02    0.295E-02
DAV:   8    -0.133046970360E+03    0.75879E-04   -0.34964E-05  7040   0.733E-02    0.133E-02
DAV:   9    -0.133046901745E+03    0.68615E-04   -0.43058E-05  7445   0.932E-02    0.976E-03
DAV:  10    -0.133046860921E+03    0.40824E-04   -0.41898E-05  7335   0.798E-02    0.724E-03
DAV:  11    -0.133046810865E+03    0.50056E-04   -0.19541E-05  6185   0.101E-01    0.588E-03
DAV:  12    -0.133046752160E+03    0.58704E-04   -0.79693E-05  8635   0.153E-01    0.653E-03
DAV:  13    -0.133046723198E+03    0.28963E-04   -0.95568E-05  7765   0.112E-01    0.615E-03
DAV:  14    -0.133046722342E+03    0.85600E-06   -0.95765E-05  7290   0.567E-02
  20 F= -.13304672E+03 E0= -.13304500E+03  d E =-.173604E-01
       N       E                     dE             d eps       ncg     rms          rms(c)
DAV:   1    -0.133048555853E+03   -0.18327E-02   -0.39930E+00  6370   0.841E+00    0.284E-01
DAV:   2    -0.133056381471E+03   -0.78256E-02   -0.92511E-02  7480   0.122E+00    0.160E-01
DAV:   3    -0.133055897410E+03    0.48406E-03   -0.17839E-03  8285   0.189E-01    0.115E-01
DAV:   4    -0.133055582195E+03    0.31522E-03   -0.12384E-03  7985   0.168E-01    0.526E-02
DAV:   5    -0.133055517894E+03    0.64301E-04   -0.31937E-04  7740   0.986E-02    0.373E-02
DAV:   6    -0.133055490198E+03    0.27696E-04   -0.27827E-04  8210   0.995E-02    0.189E-02
DAV:   7    -0.133055492763E+03   -0.25652E-05   -0.91103E-05  7430   0.412E-02
  21 F= -.13305549E+03 E0= -.13305376E+03  d E =-.877042E-02
       N       E                     dE             d eps       ncg     rms          rms(c)
DAV:   1    -0.133049872803E+03    0.56174E-02   -0.44268E+00  6370   0.887E+00    0.301E-01
DAV:   2    -0.133058656600E+03   -0.87838E-02   -0.10339E-01  7470   0.128E+00    0.170E-01
DAV:   3    -0.133058094490E+03    0.56211E-03   -0.18989E-03  8315   0.198E-01    0.121E-01
DAV:   4    -0.133057728833E+03    0.36566E-03   -0.14755E-03  7900   0.186E-01    0.546E-02
DAV:   5    -0.133057659080E+03    0.69753E-04   -0.40225E-04  7815   0.110E-01    0.406E-02
DAV:   6    -0.133057629824E+03    0.29256E-04   -0.32286E-04  8075   0.102E-01    0.201E-02
DAV:   7    -0.133057624537E+03    0.52871E-05   -0.12040E-04  7565   0.524E-02    0.207E-02
DAV:   8    -0.133057617674E+03    0.68628E-05   -0.16371E-05  4865   0.209E-02
  22 F= -.13305762E+03 E0= -.13305587E+03  d E =-.108953E-01
       N       E                     dE             d eps       ncg     rms          rms(c)
DAV:   1    -0.133062329589E+03   -0.47051E-02   -0.20982E+00  6370   0.611E+00    0.256E-01
DAV:   2    -0.133066332582E+03   -0.40030E-02   -0.50882E-02  7555   0.876E-01    0.150E-01
DAV:   3    -0.133065867753E+03    0.46483E-03   -0.72537E-04  8745   0.138E-01    0.101E-01
DAV:   4    -0.133065561568E+03    0.30619E-03   -0.12435E-03  7585   0.190E-01    0.334E-02
DAV:   5    -0.133065551587E+03    0.99811E-05   -0.45458E-04  7600   0.912E-02    0.308E-02
DAV:   6    -0.133065535268E+03    0.16319E-04   -0.11069E-04  7555   0.416E-02    0.155E-02
DAV:   7    -0.133065516903E+03    0.18365E-04   -0.34108E-05  5305   0.309E-02    0.788E-03
DAV:   8    -0.133065502414E+03    0.14489E-04   -0.10867E-05  5190   0.349E-02    0.733E-03
DAV:   9    -0.133065483460E+03    0.18954E-04   -0.96544E-06  5250   0.540E-02    0.533E-03
DAV:  10    -0.133065469360E+03    0.14100E-04   -0.19520E-05  6320   0.554E-02    0.423E-03
DAV:  11    -0.133065457725E+03    0.11635E-04   -0.10408E-05  5350   0.603E-02    0.429E-03
DAV:  12    -0.133065447889E+03    0.98363E-05   -0.23241E-05  6275   0.836E-02
  23 F= -.13306545E+03 E0= -.13306358E+03  d E =-.783021E-02
       N       E                     dE             d eps       ncg     rms          rms(c)
DAV:   1    -0.133063060115E+03    0.23976E-02   -0.26859E+00  6390   0.692E+00    0.290E-01
DAV:   2    -0.133068178569E+03   -0.51185E-02   -0.65258E-02  7585   0.992E-01    0.170E-01
DAV:   3    -0.133067585098E+03    0.59347E-03   -0.94190E-04  8630   0.157E-01    0.114E-01
DAV:   4    -0.133067201952E+03    0.38315E-03   -0.16446E-03  7490   0.214E-01    0.391E-02
DAV:   5    -0.133067182166E+03    0.19787E-04   -0.59831E-04  7575   0.103E-01    0.352E-02
DAV:   6    -0.133067160520E+03    0.21646E-04   -0.14839E-04  7530   0.483E-02    0.175E-02
DAV:   7    -0.133067135854E+03    0.24665E-04   -0.43907E-05  6255   0.351E-02    0.895E-03
DAV:   8    -0.133067115364E+03    0.20490E-04   -0.11940E-05  5235   0.392E-02    0.836E-03
DAV:   9    -0.133067083740E+03    0.31624E-04   -0.15787E-05  5635   0.681E-02    0.577E-03
DAV:  10    -0.133067068208E+03    0.15532E-04   -0.26680E-05  6425   0.470E-02    0.486E-03
DAV:  11    -0.133067049874E+03    0.18334E-04   -0.70972E-06  5125   0.546E-02    0.434E-03
DAV:  12    -0.133067027206E+03    0.22668E-04   -0.37903E-05  7130   0.101E-01    0.765E-03
DAV:  13    -0.133067028296E+03   -0.10894E-05   -0.43757E-05  6735   0.282E-02
  24 F= -.13306703E+03 E0= -.13306508E+03  d E =-.941062E-02
       N       E                     dE             d eps       ncg     rms          rms(c)
DAV:   1    -0.133067024678E+03    0.25280E-05   -0.22515E-01  6520   0.200E+00    0.846E-02
DAV:   2    -0.133067456422E+03   -0.43174E-03   -0.54968E-03  7585   0.287E-01    0.494E-02
DAV:   3    -0.133067405375E+03    0.51047E-04   -0.74322E-05  8355   0.461E-02    0.328E-02
DAV:   4    -0.133067375457E+03    0.29918E-04   -0.14336E-04  7325   0.650E-02    0.107E-02
DAV:   5    -0.133067376010E+03   -0.55300E-06   -0.57081E-05  7135   0.303E-02    0.102E-02
DAV:   6    -0.133067374782E+03    0.12274E-05   -0.91814E-06  4280   0.129E-02
  25 F= -.13306737E+03 E0= -.13306545E+03  d E =-.975711E-02
       N       E                     dE             d eps       ncg     rms          rms(c)
DAV:   1    -0.133072242350E+03   -0.48663E-02   -0.10531E+00  6440   0.428E+00    0.147E-01
DAV:   2    -0.133073985431E+03   -0.17431E-02   -0.23537E-02  7585   0.626E-01    0.845E-02
DAV:   3    -0.133073794440E+03    0.19099E-03   -0.11110E-03  7875   0.128E-01    0.605E-02
DAV:   4    -0.133073697920E+03    0.96520E-04   -0.38843E-04  7725   0.723E-02    0.406E-02
DAV:   5    -0.133073566031E+03    0.13189E-03   -0.25917E-04  7700   0.103E-01    0.187E-02
DAV:   6    -0.133073536809E+03    0.29222E-04   -0.10559E-04  7665   0.676E-02    0.168E-02
DAV:   7    -0.133073495487E+03    0.41322E-04   -0.64983E-05  8295   0.838E-02    0.117E-02
DAV:   8    -0.133073455581E+03    0.39906E-04   -0.20117E-05  5955   0.759E-02    0.862E-03
DAV:   9    -0.133073416314E+03    0.39267E-04   -0.25341E-05  6325   0.789E-02    0.554E-03
DAV:  10    -0.133073371557E+03    0.44757E-04   -0.33233E-05  6850   0.113E-01    0.637E-03
DAV:  11    -0.133073341264E+03    0.30294E-04   -0.78575E-05  8635   0.131E-01    0.591E-03
DAV:  12    -0.133073340969E+03    0.29500E-06   -0.90229E-05  7055   0.589E-02
  26 F= -.13307334E+03 E0= -.13307130E+03  d E =-.596619E-02
       N       E                     dE             d eps       ncg     rms          rms(c)
DAV:   1    -0.133073675524E+03   -0.33426E-03   -0.10456E+00  6425   0.427E+00    0.146E-01
DAV:   2    -0.133075442080E+03   -0.17666E-02   -0.23617E-02  7585   0.627E-01    0.856E-02
DAV:   3    -0.133075252035E+03    0.19005E-03   -0.11395E-03  7795   0.128E-01    0.620E-02
DAV:   4    -0.133075156906E+03    0.95128E-04   -0.38606E-04  7715   0.697E-02    0.419E-02
DAV:   5    -0.133075030272E+03    0.12663E-03   -0.25704E-04  7755   0.983E-02    0.192E-02
DAV:   6    -0.133074999959E+03    0.30312E-04   -0.95081E-05  7635   0.667E-02    0.166E-02
DAV:   7    -0.133074953665E+03    0.46295E-04   -0.63947E-05  7895   0.908E-02    0.114E-02
DAV:   8    -0.133074918300E+03    0.35365E-04   -0.35461E-05  6725   0.686E-02    0.943E-03
DAV:   9    -0.133074889114E+03    0.29186E-04   -0.20365E-05  5675   0.510E-02    0.584E-03
DAV:  10    -0.133074835355E+03    0.53760E-04   -0.24634E-05  6225   0.108E-01    0.687E-03
DAV:  11    -0.133074810377E+03    0.24978E-04   -0.43652E-05  7170   0.746E-02    0.593E-03
DAV:  12    -0.133074781191E+03    0.29186E-04   -0.35163E-05  6955   0.123E-01    0.478E-03
DAV:  13    -0.133074775643E+03    0.55482E-05   -0.70221E-05  7280   0.784E-02
  27 F= -.13307478E+03 E0= -.13307265E+03  d E =-.740086E-02
       N       E                     dE             d eps       ncg     rms          rms(c)
DAV:   1    -0.133077187147E+03   -0.24060E-02   -0.84022E-01  6410   0.383E+00    0.134E-01
DAV:   2    -0.133078835843E+03   -0.16487E-02   -0.19048E-02  7540   0.541E-01    0.771E-02
DAV:   3    -0.133078696674E+03    0.13917E-03   -0.44357E-04  7815   0.921E-02    0.515E-02
DAV:   4    -0.133078648475E+03    0.48199E-04   -0.50266E-04  7710   0.906E-02    0.282E-02
DAV:   5    -0.133078599896E+03    0.48580E-04   -0.24144E-04  7695   0.730E-02    0.127E-02
DAV:   6    -0.133078598142E+03    0.17538E-05   -0.48926E-05  7115   0.350E-02
  28 F= -.13307860E+03 E0= -.13307645E+03  d E =-.382250E-02
       N       E                     dE             d eps       ncg     rms          rms(c)
DAV:   1    -0.133070717960E+03    0.78819E-02   -0.75572E+00  6370   0.115E+01    0.403E-01
DAV:   2    -0.133085763116E+03   -0.15045E-01   -0.17357E-01  7515   0.163E+00    0.232E-01
DAV:   3    -0.133084497776E+03    0.12653E-02   -0.37211E-03  7845   0.273E-01    0.155E-01
DAV:   4    -0.133084025051E+03    0.47272E-03   -0.44938E-03  7720   0.285E-01    0.840E-02
DAV:   5    -0.133083570081E+03    0.45497E-03   -0.22718E-03  7800   0.234E-01    0.387E-02
DAV:   6    -0.133083541042E+03    0.29039E-04   -0.47402E-04  7545   0.109E-01    0.395E-02
DAV:   7    -0.133083506772E+03    0.34270E-04   -0.69838E-05  8165   0.402E-02    0.303E-02
DAV:   8    -0.133083424000E+03    0.82771E-04   -0.25127E-05  5700   0.762E-02    0.165E-02
DAV:   9    -0.133083343673E+03    0.80327E-04   -0.47398E-05  7605   0.963E-02    0.923E-03
DAV:  10    -0.133083263234E+03    0.80439E-04   -0.48694E-05  7585   0.120E-01    0.733E-03
DAV:  11    -0.133083222354E+03    0.40880E-04   -0.61299E-05  7155   0.853E-02    0.851E-03
DAV:  12    -0.133083183908E+03    0.38446E-04   -0.23651E-05  6350   0.848E-02    0.554E-03
DAV:  13    -0.133083131715E+03    0.52192E-04   -0.53499E-05  7755   0.158E-01    0.596E-03
DAV:  14    -0.133083134286E+03   -0.25705E-05   -0.10516E-04  7125   0.403E-02    0.641E-03
DAV:  15    -0.133083130057E+03    0.42290E-05   -0.60320E-06  4930   0.205E-02
  29 F= -.13308313E+03 E0= -.13308094E+03  d E =-.835441E-02
       N       E                     dE             d eps       ncg     rms          rms(c)
DAV:   1    -0.133085725545E+03   -0.25913E-02   -0.93252E-01  6390   0.403E+00    0.136E-01
DAV:   2    -0.133087300558E+03   -0.15750E-02   -0.19967E-02  7595   0.570E-01    0.776E-02
DAV:   3    -0.133087143208E+03    0.15735E-03   -0.46368E-04  8070   0.105E-01    0.542E-02
DAV:   4    -0.133087034449E+03    0.10876E-03   -0.22409E-04  7575   0.733E-02    0.257E-02
DAV:   5    -0.133086993140E+03    0.41309E-04   -0.17127E-04  7625   0.701E-02    0.142E-02
DAV:   6    -0.133086990324E+03    0.28159E-05   -0.94223E-05  7610   0.390E-02
  30 F= -.13308699E+03 E0= -.13308487E+03  d E =-.386027E-02
       N       E                     dE             d eps       ncg     rms          rms(c)
DAV:   1    -0.133086665617E+03    0.32752E-03   -0.14352E+00  6380   0.501E+00    0.171E-01
DAV:   2    -0.133089128305E+03   -0.24627E-02   -0.31497E-02  7600   0.717E-01    0.977E-02
DAV:   3    -0.133088875750E+03    0.25256E-03   -0.71787E-04  8070   0.133E-01    0.701E-02
DAV:   4    -0.133088677665E+03    0.19809E-03   -0.38653E-04  7790   0.102E-01    0.323E-02
DAV:   5    -0.133088606635E+03    0.71031E-04   -0.20572E-04  7815   0.915E-02    0.198E-02
DAV:   6    -0.133088599782E+03    0.68522E-05   -0.16591E-04  7655   0.576E-02    0.148E-02
DAV:   7    -0.133088584648E+03    0.15135E-04   -0.40374E-05  6550   0.383E-02    0.112E-02
DAV:   8    -0.133088574547E+03    0.10101E-04   -0.10285E-05  5335   0.269E-02    0.924E-03
DAV:   9    -0.133088564504E+03    0.10043E-04   -0.14893E-05  5625   0.369E-02    0.314E-03
DAV:  10    -0.133088564039E+03    0.46508E-06   -0.11145E-05  4810   0.186E-02
  31 F= -.13308856E+03 E0= -.13308654E+03  d E =-.543398E-02
       N       E                     dE             d eps       ncg     rms          rms(c)
DAV:   1    -0.133091104865E+03   -0.25404E-02   -0.10280E+00  6370   0.428E+00    0.145E-01
DAV:   2    -0.133093173759E+03   -0.20689E-02   -0.23625E-02  7390   0.610E-01    0.779E-02
DAV:   3    -0.133093058436E+03    0.11532E-03   -0.36186E-04  8155   0.856E-02    0.549E-02
DAV:   4    -0.133093000633E+03    0.57804E-04   -0.37122E-04  7575   0.868E-02    0.252E-02
DAV:   5    -0.133092986701E+03    0.13932E-04   -0.18134E-04  7475   0.513E-02    0.203E-02
DAV:   6    -0.133092983756E+03    0.29450E-05   -0.37216E-05  5805   0.265E-02
  32 F= -.13309298E+03 E0= -.13309102E+03  d E =-.441972E-02
       N       E                     dE             d eps       ncg     rms          rms(c)
DAV:   1    -0.133082449264E+03    0.10537E-01   -0.85323E+00  6370   0.123E+01    0.429E-01
DAV:   2    -0.133099906041E+03   -0.17457E-01   -0.20036E-01  7385   0.177E+00    0.229E-01
DAV:   3    -0.133098911959E+03    0.99408E-03   -0.32202E-03  8205   0.257E-01    0.162E-01
DAV:   4    -0.133098390564E+03    0.52140E-03   -0.31043E-03  7610   0.250E-01    0.757E-02
DAV:   5    -0.133098247982E+03    0.14258E-03   -0.13339E-03  7580   0.145E-01    0.594E-02
DAV:   6    -0.133098213251E+03    0.34730E-04   -0.37085E-04  7650   0.843E-02    0.461E-02
DAV:   7    -0.133098178148E+03    0.35103E-04   -0.15148E-04  8185   0.702E-02    0.236E-02
DAV:   8    -0.133098152328E+03    0.25820E-04   -0.48988E-05  7350   0.585E-02    0.144E-02
DAV:   9    -0.133098122855E+03    0.29473E-04   -0.11872E-05  5375   0.517E-02    0.709E-03
DAV:  10    -0.133098100341E+03    0.22514E-04   -0.10439E-05  5105   0.456E-02    0.480E-03
DAV:  11    -0.133098059662E+03    0.40678E-04   -0.13331E-05  5730   0.856E-02    0.429E-03
DAV:  12    -0.133098024635E+03    0.35027E-04   -0.34419E-05  6930   0.885E-02    0.710E-03
DAV:  13    -0.133097989367E+03    0.35268E-04   -0.22552E-05  6305   0.106E-01    0.636E-03
DAV:  14    -0.133097956792E+03    0.32575E-04   -0.47304E-05  7945   0.139E-01    0.487E-03
DAV:  15    -0.133097954926E+03    0.18666E-05   -0.85545E-05  6865   0.633E-02
  33 F= -.13309795E+03 E0= -.13309618E+03  d E =-.939089E-02
       N       E                     dE             d eps       ncg     rms          rms(c)
DAV:   1    -0.133099827716E+03   -0.18709E-02   -0.65199E-01  6460   0.338E+00    0.112E-01
DAV:   2    -0.133101163353E+03   -0.13356E-02   -0.14661E-02  7225   0.469E-01    0.606E-02
DAV:   3    -0.133101084761E+03    0.78592E-04   -0.15475E-04  8135   0.592E-02    0.409E-02
DAV:   4    -0.133101039331E+03    0.45429E-04   -0.23399E-04  7520   0.762E-02    0.153E-02
DAV:   5    -0.133101034291E+03    0.50404E-05   -0.13417E-04  7310   0.426E-02    0.140E-02
DAV:   6    -0.133101031892E+03    0.23987E-05   -0.13571E-05  4915   0.158E-02
  34 F= -.13310103E+03 E0= -.13309929E+03  d E =-.307697E-02
       N       E                     dE             d eps       ncg     rms          rms(c)
DAV:   1    -0.133096201048E+03    0.48332E-02   -0.58662E+00  6370   0.101E+01    0.341E-01
DAV:   2    -0.133108331608E+03   -0.12131E-01   -0.13348E-01  7195   0.141E+00    0.181E-01
DAV:   3    -0.133107627965E+03    0.70364E-03   -0.14416E-03  8210   0.186E-01    0.123E-01
DAV:   4    -0.133107192413E+03    0.43555E-03   -0.19839E-03  7640   0.238E-01    0.466E-02
DAV:   5    -0.133107148147E+03    0.44265E-04   -0.11639E-03  7530   0.136E-01    0.450E-02
DAV:   6    -0.133107123464E+03    0.24683E-04   -0.16265E-04  7580   0.526E-02    0.349E-02
DAV:   7    -0.133107101003E+03    0.22461E-04   -0.30773E-05  6900   0.271E-02    0.236E-02
DAV:   8    -0.133107048580E+03    0.52423E-04   -0.47860E-05  7670   0.703E-02    0.962E-03
DAV:   9    -0.133107019801E+03    0.28779E-04   -0.14381E-05  5575   0.534E-02    0.786E-03
DAV:  10    -0.133106985704E+03    0.34096E-04   -0.23894E-05  6055   0.715E-02    0.613E-03
DAV:  11    -0.133106958251E+03    0.27454E-04   -0.14093E-05  5500   0.563E-02    0.512E-03
DAV:  12    -0.133106900391E+03    0.57860E-04   -0.31819E-05  6725   0.140E-01    0.836E-03
DAV:  13    -0.133106872323E+03    0.28068E-04   -0.57592E-05  8130   0.117E-01    0.867E-03
DAV:  14    -0.133106855980E+03    0.16344E-04   -0.61218E-05  8035   0.131E-01    0.525E-03
DAV:  15    -0.133106858612E+03   -0.26324E-05   -0.82992E-05  6980   0.505E-02
  35 F= -.13310686E+03 E0= -.13310523E+03  d E =-.890369E-02
       N       E                     dE             d eps       ncg     rms          rms(c)
DAV:   1    -0.133059676044E+03    0.47180E-01   -0.23442E+01  6370   0.203E+01    0.690E-01
DAV:   2    -0.133109163825E+03   -0.49488E-01   -0.54605E-01  7230   0.286E+00    0.374E-01
DAV:   3    -0.133106269002E+03    0.28948E-02   -0.62369E-03  8120   0.384E-01    0.251E-01
DAV:   4    -0.133104537147E+03    0.17319E-02   -0.75721E-03  7630   0.468E-01    0.959E-02
DAV:   5    -0.133104405426E+03    0.13172E-03   -0.38745E-03  7465   0.265E-01    0.863E-02
DAV:   6    -0.133104316665E+03    0.88760E-04   -0.76695E-04  7615   0.118E-01    0.618E-02
DAV:   7    -0.133104224011E+03    0.92654E-04   -0.17708E-04  8130   0.713E-02    0.344E-02
DAV:   8    -0.133104096868E+03    0.12714E-03   -0.73296E-05  9005   0.122E-01    0.195E-02
DAV:   9    -0.133103969552E+03    0.12732E-03   -0.48613E-05  7765   0.140E-01    0.109E-02
DAV:  10    -0.133103899234E+03    0.70319E-04   -0.57626E-05  7470   0.869E-02    0.954E-03
DAV:  11    -0.133103769359E+03    0.12988E-03   -0.23654E-05  6150   0.155E-01    0.740E-03
DAV:  12    -0.133103745247E+03    0.24112E-04   -0.21383E-04  9630   0.336E-01    0.307E-02
DAV:  13    -0.133103707947E+03    0.37299E-04   -0.15759E-04  7020   0.653E-02    0.210E-02
DAV:  14    -0.133103706851E+03    0.10963E-05   -0.22186E-05  5885   0.175E-02
  36 F= -.13310371E+03 E0= -.13310206E+03  d E =-.575193E-02
       N       E                     dE             d eps       ncg     rms          rms(c)
DAV:   1    -0.133089342594E+03    0.14365E-01   -0.10096E+01  6370   0.133E+01    0.441E-01
DAV:   2    -0.133110059584E+03   -0.20717E-01   -0.22740E-01  7205   0.185E+00    0.245E-01
DAV:   3    -0.133108832567E+03    0.12270E-02   -0.27061E-03  8175   0.254E-01    0.160E-01
DAV:   4    -0.133108137134E+03    0.69543E-03   -0.26648E-03  7640   0.269E-01    0.610E-02
DAV:   5    -0.133108080171E+03    0.56963E-04   -0.16508E-03  7380   0.166E-01    0.470E-02
DAV:   6    -0.133108053098E+03    0.27073E-04   -0.33571E-04  7785   0.749E-02    0.353E-02
DAV:   7    -0.133108032518E+03    0.20580E-04   -0.57251E-05  8050   0.398E-02    0.203E-02
DAV:   8    -0.133108009034E+03    0.23484E-04   -0.84804E-06  5540   0.559E-02    0.928E-03
DAV:   9    -0.133107987189E+03    0.21844E-04   -0.15224E-05  6015   0.626E-02    0.540E-03
DAV:  10    -0.133107971492E+03    0.15697E-04   -0.18525E-05  6275   0.573E-02    0.431E-03
DAV:  11    -0.133107953680E+03    0.17812E-04   -0.76987E-06  5560   0.684E-02    0.380E-03
DAV:  12    -0.133107941201E+03    0.12480E-04   -0.21691E-05  6425   0.663E-02    0.469E-03
DAV:  13    -0.133107939477E+03    0.17234E-05   -0.30295E-05  6550   0.353E-02
  37 F= -.13310794E+03 E0= -.13310634E+03  d E =-.998455E-02
       N       E                     dE             d eps       ncg     rms          rms(c)
DAV:   1    -0.133110422872E+03   -0.24817E-02   -0.97596E-01  6370   0.419E+00    0.146E-01
DAV:   2    -0.133112386017E+03   -0.19631E-02   -0.21775E-02  7330   0.583E-01    0.764E-02
DAV:   3    -0.133112268264E+03    0.11775E-03   -0.27809E-04  8530   0.842E-02    0.505E-02
DAV:   4    -0.133112187060E+03    0.81205E-04   -0.27253E-04  7575   0.889E-02    0.197E-02
DAV:   5    -0.133112172782E+03    0.14277E-04   -0.16487E-04  7555   0.630E-02    0.169E-02
DAV:   6    -0.133112168207E+03    0.45755E-05   -0.45332E-05  6825   0.305E-02
  38 F= -.13311217E+03 E0= -.13311058E+03  d E =-.422873E-02
       N       E                     dE             d eps       ncg     rms          rms(c)
DAV:   1    -0.133102454939E+03    0.97178E-02   -0.87775E+00  6370   0.126E+01    0.442E-01
DAV:   2    -0.133120116016E+03   -0.17661E-01   -0.19784E-01  7310   0.177E+00    0.231E-01
DAV:   3    -0.133119080617E+03    0.10354E-02   -0.30286E-03  8430   0.270E-01    0.155E-01
DAV:   4    -0.133118325496E+03    0.75512E-03   -0.21687E-03  7655   0.244E-01    0.639E-02
DAV:   5    -0.133118142600E+03    0.18290E-03   -0.10900E-03  7950   0.197E-01    0.488E-02
DAV:   6    -0.133118100761E+03    0.41839E-04   -0.53698E-04  7605   0.106E-01    0.365E-02
DAV:   7    -0.133118017591E+03    0.83169E-04   -0.10468E-04  8770   0.829E-02    0.197E-02
DAV:   8    -0.133117927760E+03    0.89831E-04   -0.37875E-05  7030   0.960E-02    0.145E-02
DAV:   9    -0.133117814915E+03    0.11285E-03   -0.70445E-05  8615   0.134E-01    0.108E-02
DAV:  10    -0.133117741052E+03    0.73863E-04   -0.74625E-05  7425   0.103E-01    0.718E-03
DAV:  11    -0.133117654749E+03    0.86302E-04   -0.62385E-05  7895   0.149E-01    0.745E-03
DAV:  12    -0.133117595838E+03    0.58911E-04   -0.10461E-04  8465   0.159E-01    0.843E-03
DAV:  13    -0.133117594465E+03    0.13728E-05   -0.16985E-04  7495   0.737E-02    0.587E-03
DAV:  14    -0.133117596355E+03   -0.18894E-05   -0.46174E-05  6575   0.249E-02
  39 F= -.13311760E+03 E0= -.13311609E+03  d E =-.965688E-02
       N       E                     dE             d eps       ncg     rms          rms(c)
DAV:   1    -0.133119080702E+03   -0.14862E-02   -0.15834E+00  6420   0.531E+00    0.182E-01
DAV:   2    -0.133122341710E+03   -0.32610E-02   -0.36083E-02  7285   0.746E-01    0.973E-02
DAV:   3    -0.133122145818E+03    0.19589E-03   -0.44340E-04  8200   0.102E-01    0.654E-02
DAV:   4    -0.133122034012E+03    0.11181E-03   -0.57022E-04  7645   0.116E-01    0.266E-02
DAV:   5    -0.133122013450E+03    0.20562E-04   -0.31035E-04  7630   0.706E-02    0.228E-02
DAV:   6    -0.133122008946E+03    0.45037E-05   -0.54336E-05  6935   0.321E-02
  40 F= -.13312201E+03 E0= -.13312053E+03  d E =-.441259E-02
       N       E                     dE             d eps       ncg     rms          rms(c)
DAV:   1    -0.133102866971E+03    0.19146E-01   -0.12625E+01  6370   0.150E+01    0.521E-01
DAV:   2    -0.133129295189E+03   -0.26428E-01   -0.29266E-01  7285   0.212E+00    0.279E-01
DAV:   3    -0.133127699962E+03    0.15952E-02   -0.36071E-03  8270   0.295E-01    0.186E-01
DAV:   4    -0.133126758183E+03    0.94178E-03   -0.46196E-03  7700   0.348E-01    0.767E-02
DAV:   5    -0.133126573267E+03    0.18492E-03   -0.27780E-03  7730   0.213E-01    0.652E-02
DAV:   6    -0.133126521143E+03    0.52123E-04   -0.44955E-04  7645   0.924E-02    0.473E-02
DAV:   7    -0.133126472663E+03    0.48480E-04   -0.96917E-05  8015   0.481E-02    0.276E-02
DAV:   8    -0.133126399010E+03    0.73654E-04   -0.58330E-05  8025   0.898E-02    0.132E-02
DAV:   9    -0.133126345168E+03    0.53842E-04   -0.41985E-05  7555   0.896E-02    0.958E-03
DAV:  10    -0.133126304012E+03    0.41156E-04   -0.29153E-05  6665   0.776E-02    0.748E-03
DAV:  11    -0.133126246276E+03    0.57736E-04   -0.30515E-05  6705   0.117E-01    0.593E-03
DAV:  12    -0.133126199343E+03    0.46934E-04   -0.82308E-05  8105   0.126E-01    0.983E-03
DAV:  13    -0.133126184795E+03    0.14547E-04   -0.79808E-05  7375   0.823E-02    0.655E-03
DAV:  14    -0.133126180311E+03    0.44845E-05   -0.45529E-05  6825   0.564E-02
  41 F= -.13312618E+03 E0= -.13312477E+03  d E =-.858396E-02
       N       E                     dE             d eps       ncg     rms          rms(c)
DAV:   1    -0.133122754293E+03    0.34305E-02   -0.39823E+00  6370   0.833E+00    0.270E-01
DAV:   2    -0.133130859559E+03   -0.81053E-02   -0.88471E-02  7155   0.116E+00    0.144E-01
DAV:   3    -0.133130432910E+03    0.42665E-03   -0.10043E-03  8165   0.148E-01    0.996E-02
DAV:   4    -0.133130176456E+03    0.25645E-03   -0.13005E-03  7565   0.181E-01    0.397E-02
DAV:   5    -0.133130141593E+03    0.34863E-04   -0.74204E-04  7410   0.102E-01    0.370E-02
DAV:   6    -0.133130126909E+03    0.14683E-04   -0.93959E-05  7280   0.372E-02    0.291E-02
DAV:   7    -0.133130116295E+03    0.10614E-04   -0.23324E-05  6780   0.198E-02    0.187E-02
DAV:   8    -0.133130100604E+03    0.15691E-04   -0.22443E-05  6375   0.310E-02    0.667E-03
DAV:   9    -0.133130092557E+03    0.80475E-05   -0.64194E-06  5365   0.265E-02
  42 F= -.13313009E+03 E0= -.13312871E+03  d E =-.391225E-02
       N       E                     dE             d eps       ncg     rms          rms(c)
DAV:   1    -0.133116406221E+03    0.13694E-01   -0.84491E+00  6370   0.122E+01    0.397E-01
DAV:   2    -0.133133772628E+03   -0.17366E-01   -0.18998E-01  7060   0.170E+00    0.213E-01
DAV:   3    -0.133132842099E+03    0.93053E-03   -0.21767E-03  8195   0.217E-01    0.147E-01
DAV:   4    -0.133132283120E+03    0.55898E-03   -0.28585E-03  7535   0.267E-01    0.590E-02
DAV:   5    -0.133132197266E+03    0.85853E-04   -0.16240E-03  7475   0.152E-01    0.544E-02
DAV:   6    -0.133132162569E+03    0.34698E-04   -0.22191E-04  7475   0.573E-02    0.419E-02
DAV:   7    -0.133132136092E+03    0.26476E-04   -0.57256E-05  7895   0.315E-02    0.257E-02
DAV:   8    -0.133132099925E+03    0.36168E-04   -0.39815E-05  6745   0.476E-02    0.100E-02
DAV:   9    -0.133132077547E+03    0.22378E-04   -0.12998E-05  5570   0.438E-02    0.789E-03
DAV:  10    -0.133132060693E+03    0.16854E-04   -0.21348E-05  6500   0.437E-02    0.523E-03
DAV:  11    -0.133132050735E+03    0.99584E-05   -0.73334E-06  5375   0.322E-02
  43 F= -.13313205E+03 E0= -.13313070E+03  d E =-.587042E-02
       N       E                     dE             d eps       ncg     rms          rms(c)
DAV:   1    -0.133134190938E+03   -0.21302E-02   -0.56514E-01  6475   0.315E+00    0.119E-01
DAV:   2    -0.133135184686E+03   -0.99375E-03   -0.13304E-02  7585   0.464E-01    0.733E-02
DAV:   3    -0.133135063836E+03    0.12085E-03   -0.26720E-04  8370   0.845E-02    0.519E-02
DAV:   4    -0.133134979676E+03    0.84161E-04   -0.31181E-04  7695   0.858E-02    0.215E-02
DAV:   5    -0.133134965756E+03    0.13920E-04   -0.73488E-05  7525   0.500E-02    0.177E-02
DAV:   6    -0.133134954889E+03    0.10867E-04   -0.68914E-05  7060   0.503E-02    0.709E-03
DAV:   7    -0.133134950894E+03    0.39952E-05   -0.19064E-05  5535   0.267E-02
  44 F= -.13313495E+03 E0= -.13313362E+03  d E =-.290016E-02
       N       E                     dE             d eps       ncg     rms          rms(c)
DAV:   1    -0.133135139324E+03   -0.18443E-03   -0.23810E-01  6415   0.205E+00    0.778E-02
DAV:   2    -0.133135538156E+03   -0.39883E-03   -0.56242E-03  7580   0.304E-01    0.477E-02
DAV:   3    -0.133135473383E+03    0.64772E-04   -0.12444E-04  8170   0.608E-02    0.341E-02
DAV:   4    -0.133135404721E+03    0.68663E-04   -0.12444E-04  7635   0.663E-02    0.153E-02
DAV:   5    -0.133135380471E+03    0.24250E-04   -0.49645E-05  7305   0.507E-02    0.137E-02
DAV:   6    -0.133135363784E+03    0.16687E-04   -0.35969E-05  6750   0.408E-02    0.628E-03
DAV:   7    -0.133135338568E+03    0.25216E-04   -0.74026E-06  5285   0.497E-02    0.572E-03
DAV:   8    -0.133135319498E+03    0.19070E-04   -0.16309E-05  5510   0.427E-02    0.601E-03
DAV:   9    -0.133135296450E+03    0.23048E-04   -0.74621E-06  5225   0.504E-02    0.415E-03
DAV:  10    -0.133135241310E+03    0.55140E-04   -0.62574E-05  8195   0.148E-01    0.723E-03
DAV:  11    -0.133135234229E+03    0.70816E-05   -0.63305E-05  7220   0.523E-02
  45 F= -.13313523E+03 E0= -.13313394E+03  d E =-.318349E-02
       N       E                     dE             d eps       ncg     rms          rms(c)
DAV:   1    -0.133135599490E+03   -0.35818E-03   -0.75515E-01  6490   0.366E+00    0.123E-01
DAV:   2    -0.133137128163E+03   -0.15287E-02   -0.17989E-02  7575   0.530E-01    0.776E-02
DAV:   3    -0.133136993585E+03    0.13458E-03   -0.25360E-04  8295   0.874E-02    0.547E-02
DAV:   4    -0.133136902790E+03    0.90795E-04   -0.43849E-04  7615   0.115E-01    0.223E-02
DAV:   5    -0.133136888430E+03    0.14361E-04   -0.23376E-04  7535   0.645E-02    0.220E-02
DAV:   6    -0.133136884060E+03    0.43701E-05   -0.30460E-05  5975   0.236E-02
  46 F= -.13313688E+03 E0= -.13313563E+03  d E =-.164983E-02
       N       E                     dE             d eps       ncg     rms          rms(c)
DAV:   1    -0.133136789149E+03    0.99281E-04   -0.13323E-01  6450   0.154E+00    0.559E-02
DAV:   2    -0.133137049333E+03   -0.26018E-03   -0.32757E-03  7555   0.229E-01    0.339E-02
DAV:   3    -0.133137019594E+03    0.29738E-04   -0.63987E-05  7915   0.467E-02    0.244E-02
DAV:   4    -0.133136995978E+03    0.23616E-04   -0.75621E-05  7305   0.544E-02    0.111E-02
DAV:   5    -0.133136987479E+03    0.84995E-05   -0.54079E-05  7355   0.424E-02    0.106E-02
DAV:   6    -0.133136986579E+03    0.89988E-06   -0.16877E-05  4440   0.181E-02
  47 F= -.13313699E+03 E0= -.13313575E+03  d E =-.175235E-02
       N       E                     dE             d eps       ncg     rms          rms(c)
DAV:   1    -0.133137773965E+03   -0.78649E-03   -0.24582E-01  6395   0.206E+00    0.891E-02
DAV:   2    -0.133138214473E+03   -0.44051E-03   -0.60921E-03  7455   0.302E-01    0.516E-02
DAV:   3    -0.133138144218E+03    0.70255E-04   -0.28426E-04  7795   0.591E-02    0.340E-02
DAV:   4    -0.133138109413E+03    0.34805E-04   -0.20738E-04  7420   0.589E-02    0.201E-02
DAV:   5    -0.133138068481E+03    0.40932E-04   -0.10575E-04  7315   0.644E-02    0.695E-03
DAV:   6    -0.133138059074E+03    0.94066E-05   -0.41594E-05  6990   0.367E-02
  48 F= -.13313806E+03 E0= -.13313684E+03  d E =-.107249E-02
       N       E                     dE             d eps       ncg     rms          rms(c)
DAV:   1    -0.133138099240E+03   -0.30760E-04   -0.21886E-01  6405   0.194E+00    0.838E-02
DAV:   2    -0.133138451268E+03   -0.35203E-03   -0.54228E-03  7525   0.286E-01    0.494E-02
DAV:   3    -0.133138360612E+03    0.90656E-04   -0.26963E-04  7775   0.626E-02    0.327E-02
DAV:   4    -0.133138294844E+03    0.65768E-04   -0.18182E-04  7515   0.642E-02    0.206E-02
DAV:   5    -0.133138201262E+03    0.93582E-04   -0.10021E-04  7200   0.847E-02    0.785E-03
DAV:   6    -0.133138157289E+03    0.43973E-04   -0.55358E-05  7505   0.602E-02    0.771E-03
DAV:   7    -0.133138115004E+03    0.42285E-04   -0.75143E-06  5180   0.517E-02    0.629E-03
DAV:   8    -0.133138028398E+03    0.86606E-04   -0.40010E-05  7150   0.119E-01    0.667E-03
DAV:   9    -0.133137990202E+03    0.38196E-04   -0.50496E-05  7235   0.818E-02    0.517E-03
DAV:  10    -0.133137932826E+03    0.57376E-04   -0.58453E-05  7320   0.175E-01    0.637E-03
DAV:  11    -0.133137927630E+03    0.51961E-05   -0.11003E-04  7505   0.111E-01    0.701E-03
DAV:  12    -0.133137941270E+03   -0.13640E-04   -0.11288E-04  6930   0.355E-02    0.101E-02
DAV:  13    -0.133137941230E+03    0.39438E-07   -0.13714E-06  4305   0.462E-03
  49 F= -.13313794E+03 E0= -.13313671E+03  d E =-.954651E-03
       N       E                     dE             d eps       ncg     rms          rms(c)
DAV:   1    -0.133138018961E+03   -0.77691E-04   -0.34317E-02  6615   0.771E-01    0.355E-02
DAV:   2    -0.133138080458E+03   -0.61497E-04   -0.84907E-04  7445   0.114E-01    0.191E-02
DAV:   3    -0.133138072479E+03    0.79792E-05   -0.45682E-05  5550   0.242E-02    0.120E-02
DAV:   4    -0.133138069675E+03    0.28039E-05   -0.33613E-05  5050   0.203E-02    0.701E-03
DAV:   5    -0.133138066817E+03    0.28583E-05   -0.14826E-05  5180   0.183E-02    0.275E-03
DAV:   6    -0.133138066474E+03    0.34311E-06   -0.32330E-06  4515   0.118E-02
  50 F= -.13313807E+03 E0= -.13313683E+03  d E =-.107989E-02
       N       E                     dE             d eps       ncg     rms          rms(c)
DAV:   1    -0.133138598435E+03   -0.53162E-03   -0.40169E-02  6745   0.848E-01    0.402E-02
DAV:   2    -0.133138664129E+03   -0.65694E-04   -0.11014E-03  7570   0.134E-01    0.229E-02
DAV:   3    -0.133138651002E+03    0.13127E-04   -0.91945E-05  6780   0.343E-02    0.159E-02
DAV:   4    -0.133138643776E+03    0.72258E-05   -0.40742E-05  5030   0.226E-02    0.948E-03
DAV:   5    -0.133138634808E+03    0.89674E-05   -0.16188E-05  4975   0.293E-02    0.485E-03
DAV:   6    -0.133138632855E+03    0.19537E-05   -0.59943E-06  4445   0.167E-02
  51 F= -.13313863E+03 E0= -.13313739E+03  d E =-.566381E-03
       N       E                     dE             d eps       ncg     rms          rms(c)
DAV:   1    -0.133138909900E+03   -0.27509E-03   -0.20672E-01  6495   0.192E+00    0.910E-02
DAV:   2    -0.133139266476E+03   -0.35658E-03   -0.58015E-03  7565   0.305E-01    0.542E-02
DAV:   3    -0.133139197053E+03    0.69424E-04   -0.44164E-04  7695   0.752E-02    0.371E-02
DAV:   4    -0.133139161782E+03    0.35270E-04   -0.21742E-04  7430   0.494E-02    0.220E-02
DAV:   5    -0.133139118788E+03    0.42994E-04   -0.73324E-05  7190   0.576E-02    0.107E-02
DAV:   6    -0.133139105024E+03    0.13764E-04   -0.22410E-05  6155   0.417E-02    0.890E-03
DAV:   7    -0.133139089110E+03    0.15914E-04   -0.15091E-05  5415   0.488E-02    0.573E-03
DAV:   8    -0.133139078165E+03    0.10945E-04   -0.12839E-05  4890   0.334E-02    0.492E-03
DAV:   9    -0.133139059495E+03    0.18670E-04   -0.63435E-06  5145   0.462E-02    0.412E-03
DAV:  10    -0.133139032386E+03    0.27108E-04   -0.22437E-05  6620   0.911E-02    0.515E-03
DAV:  11    -0.133139024566E+03    0.78208E-05   -0.33684E-05  6455   0.527E-02
  52 F= -.13313902E+03 E0= -.13313778E+03  d E =-.958092E-03
       N       E                     dE             d eps       ncg     rms          rms(c)
DAV:   1    -0.133139580169E+03   -0.54778E-03   -0.52633E-02  6680   0.974E-01    0.472E-02
DAV:   2    -0.133139653272E+03   -0.73103E-04   -0.13052E-03  7620   0.143E-01    0.292E-02
DAV:   3    -0.133139624952E+03    0.28320E-04   -0.39113E-05  7270   0.351E-02    0.189E-02
DAV:   4    -0.133139598805E+03    0.26146E-04   -0.40260E-05  6655   0.383E-02    0.767E-03
DAV:   5    -0.133139588750E+03    0.10055E-04   -0.32018E-05  5545   0.256E-02    0.574E-03
DAV:   6    -0.133139583289E+03    0.54609E-05   -0.93476E-06  4730   0.160E-02
  53 F= -.13313958E+03 E0= -.13313831E+03  d E =-.558724E-03
       N       E                     dE             d eps       ncg     rms          rms(c)
DAV:   1    -0.133139821696E+03   -0.23295E-03   -0.11531E-01  6495   0.144E+00    0.699E-02
DAV:   2    -0.133139968621E+03   -0.14692E-03   -0.28040E-03  7620   0.212E-01    0.414E-02
DAV:   3    -0.133139901942E+03    0.66679E-04   -0.73597E-05  7675   0.485E-02    0.273E-02
DAV:   4    -0.133139831196E+03    0.70746E-04   -0.10544E-04  7335   0.652E-02    0.107E-02
DAV:   5    -0.133139806965E+03    0.24231E-04   -0.87717E-05  7525   0.407E-02    0.910E-03
DAV:   6    -0.133139797284E+03    0.96813E-05   -0.15103E-05  5510   0.191E-02
  54 F= -.13313980E+03 E0= -.13313850E+03  d E =-.772718E-03
       N       E                     dE             d eps       ncg     rms          rms(c)
DAV:   1    -0.133140204275E+03   -0.39731E-03   -0.55674E-02  6630   0.993E-01    0.454E-02
DAV:   2    -0.133140300228E+03   -0.95953E-04   -0.13649E-03  7525   0.145E-01    0.254E-02
DAV:   3    -0.133140282697E+03    0.17531E-04   -0.24018E-05  6380   0.251E-02    0.164E-02
DAV:   4    -0.133140268251E+03    0.14446E-04   -0.47032E-05  7025   0.349E-02    0.692E-03
DAV:   5    -0.133140263770E+03    0.44808E-05   -0.22843E-05  5000   0.186E-02    0.666E-03
DAV:   6    -0.133140262587E+03    0.11828E-05   -0.33431E-06  4185   0.872E-03
  55 F= -.13314026E+03 E0= -.13313897E+03  d E =-.465303E-03
       N       E                     dE             d eps       ncg     rms          rms(c)
DAV:   1    -0.133140219676E+03    0.44094E-04   -0.38536E-01  6375   0.261E+00    0.118E-01
DAV:   2    -0.133140943670E+03   -0.72399E-03   -0.94898E-03  7495   0.382E-01    0.672E-02
DAV:   3    -0.133140853983E+03    0.89686E-04   -0.17700E-04  8025   0.632E-02    0.433E-02
DAV:   4    -0.133140818035E+03    0.35949E-04   -0.34410E-04  7260   0.811E-02    0.189E-02
DAV:   5    -0.133140801422E+03    0.16613E-04   -0.15353E-04  7480   0.405E-02    0.157E-02
DAV:   6    -0.133140799047E+03    0.23746E-05   -0.17586E-05  5290   0.185E-02
  56 F= -.13314080E+03 E0= -.13313950E+03  d E =-.100176E-02
       N       E                     dE             d eps       ncg     rms          rms(c)
DAV:   1    -0.133141149259E+03   -0.34784E-03   -0.59647E-02  6455   0.103E+00    0.440E-02
DAV:   2    -0.133141268607E+03   -0.11935E-03   -0.14490E-03  7280   0.148E-01    0.236E-02
DAV:   3    -0.133141256992E+03    0.11616E-04   -0.27435E-05  6120   0.245E-02    0.154E-02
DAV:   4    -0.133141252911E+03    0.40809E-05   -0.49478E-05  5950   0.327E-02    0.755E-03
DAV:   5    -0.133141250124E+03    0.27865E-05   -0.33783E-05  5350   0.230E-02    0.521E-03
DAV:   6    -0.133141250251E+03   -0.12686E-06   -0.39871E-06  4370   0.938E-03
  57 F= -.13314125E+03 E0= -.13313996E+03  d E =-.451204E-03
       N       E                     dE             d eps       ncg     rms          rms(c)
DAV:   1    -0.133141154019E+03    0.96105E-04   -0.53697E-01  6370   0.310E+00    0.129E-01
DAV:   2    -0.133142183814E+03   -0.10298E-02   -0.12954E-02  7335   0.442E-01    0.714E-02
DAV:   3    -0.133142061110E+03    0.12270E-03   -0.29994E-04  7825   0.753E-02    0.469E-02
DAV:   4    -0.133141996845E+03    0.64265E-04   -0.43383E-04  7590   0.884E-02    0.238E-02
DAV:   5    -0.133141939859E+03    0.56987E-04   -0.27556E-04  7645   0.658E-02    0.147E-02
DAV:   6    -0.133141931211E+03    0.86480E-05   -0.36179E-05  7380   0.262E-02
  58 F= -.13314193E+03 E0= -.13314068E+03  d E =-.113216E-02
       N       E                     dE             d eps       ncg     rms          rms(c)
DAV:   1    -0.133141862878E+03    0.76981E-04   -0.64394E-02  6455   0.108E+00    0.469E-02
DAV:   2    -0.133141957854E+03   -0.94976E-04   -0.15759E-03  7405   0.156E-01    0.257E-02
DAV:   3    -0.133141924905E+03    0.32949E-04   -0.43214E-05  6845   0.366E-02    0.174E-02
DAV:   4    -0.133141892456E+03    0.32449E-04   -0.61518E-05  6555   0.464E-02    0.104E-02
DAV:   5    -0.133141860920E+03    0.31535E-04   -0.46730E-05  6580   0.466E-02    0.654E-03
DAV:   6    -0.133141854147E+03    0.67732E-05   -0.19180E-05  5905   0.231E-02
  59 F= -.13314185E+03 E0= -.13314061E+03  d E =-.105510E-02
       N       E                     dE             d eps       ncg     rms          rms(c)
DAV:   1    -0.133142328017E+03   -0.46710E-03   -0.83192E-02  6545   0.122E+00    0.616E-02
DAV:   2    -0.133142462662E+03   -0.13465E-03   -0.19577E-03  7440   0.175E-01    0.337E-02
DAV:   3    -0.133142441280E+03    0.21382E-04   -0.70694E-05  7290   0.346E-02    0.209E-02
DAV:   4    -0.133142432398E+03    0.88816E-05   -0.10071E-04  6675   0.355E-02    0.102E-02
DAV:   5    -0.133142425511E+03    0.68866E-05   -0.47124E-05  5070   0.244E-02    0.629E-03
DAV:   6    -0.133142425323E+03    0.18844E-06   -0.63492E-06  4410   0.136E-02
  60 F= -.13314243E+03 E0= -.13314117E+03  d E =-.571176E-03
       N       E                     dE             d eps       ncg     rms          rms(c)
DAV:   1    -0.133142300580E+03    0.12493E-03   -0.54322E-01  6370   0.313E+00    0.157E-01
DAV:   2    -0.133143200769E+03   -0.90019E-03   -0.12722E-02  7420   0.446E-01    0.864E-02
DAV:   3    -0.133143066515E+03    0.13425E-03   -0.43061E-04  7795   0.850E-02    0.538E-02
DAV:   4    -0.133143024501E+03    0.42014E-04   -0.66012E-04  7490   0.845E-02    0.249E-02
DAV:   5    -0.133142981376E+03    0.43125E-04   -0.29241E-04  7500   0.525E-02    0.160E-02
DAV:   6    -0.133142979294E+03    0.20823E-05   -0.35604E-05  7270   0.270E-02
  61 F= -.13314298E+03 E0= -.13314171E+03  d E =-.112515E-02
       N       E                     dE             d eps       ncg     rms          rms(c)
DAV:   1    -0.133143563919E+03   -0.58254E-03   -0.14717E-01  6470   0.163E+00    0.589E-02
DAV:   2    -0.133143841860E+03   -0.27794E-03   -0.32774E-03  7500   0.226E-01    0.319E-02
DAV:   3    -0.133143816011E+03    0.25849E-04   -0.61522E-05  7675   0.411E-02    0.215E-02
DAV:   4    -0.133143797737E+03    0.18275E-04   -0.82668E-05  7490   0.506E-02    0.108E-02
DAV:   5    -0.133143783973E+03    0.13764E-04   -0.59738E-05  6575   0.439E-02    0.703E-03
DAV:   6    -0.133143779789E+03    0.41839E-05   -0.15801E-05  5195   0.227E-02
  62 F= -.13314378E+03 E0= -.13314249E+03  d E =-.800496E-03
       N       E                     dE             d eps       ncg     rms          rms(c)
DAV:   1    -0.133143488319E+03    0.29565E-03   -0.59673E-01  6455   0.327E+00    0.115E-01
DAV:   2    -0.133144587296E+03   -0.10990E-02   -0.13219E-02  7505   0.455E-01    0.645E-02
DAV:   3    -0.133144463294E+03    0.12400E-03   -0.26203E-04  8385   0.818E-02    0.435E-02
DAV:   4    -0.133144365652E+03    0.97643E-04   -0.33005E-04  7725   0.975E-02    0.222E-02
DAV:   5    -0.133144281239E+03    0.84412E-04   -0.23134E-04  7640   0.879E-02    0.138E-02
DAV:   6    -0.133144251199E+03    0.30040E-04   -0.66996E-05  7795   0.493E-02    0.120E-02
DAV:   7    -0.133144218795E+03    0.32404E-04   -0.65315E-06  5045   0.338E-02    0.835E-03
DAV:   8    -0.133144148821E+03    0.69974E-04   -0.16593E-05  5950   0.766E-02    0.610E-03
DAV:   9    -0.133144079508E+03    0.69313E-04   -0.38969E-05  7130   0.961E-02    0.544E-03
DAV:  10    -0.133143997194E+03    0.82315E-04   -0.65552E-05  8125   0.151E-01    0.502E-03
DAV:  11    -0.133143947854E+03    0.49340E-04   -0.10643E-04  8685   0.161E-01    0.397E-03
DAV:  12    -0.133143953317E+03   -0.54637E-05   -0.14234E-04  7205   0.669E-02    0.737E-03
DAV:  13    -0.133143956177E+03   -0.28598E-05   -0.36703E-05  6190   0.244E-02
  63 F= -.13314396E+03 E0= -.13314266E+03  d E =-.976884E-03
       N       E                     dE             d eps       ncg     rms          rms(c)
DAV:   1    -0.133143979965E+03   -0.26648E-04   -0.51662E-02  6725   0.962E-01    0.372E-02
DAV:   2    -0.133144072867E+03   -0.92902E-04   -0.11459E-03  7445   0.136E-01    0.196E-02
DAV:   3    -0.133144064749E+03    0.81180E-05   -0.38407E-05  5945   0.289E-02    0.120E-02
DAV:   4    -0.133144062773E+03    0.19762E-05   -0.28306E-05  5155   0.231E-02    0.678E-03
DAV:   5    -0.133144061009E+03    0.17643E-05   -0.18504E-05  5220   0.200E-02    0.376E-03
DAV:   6    -0.133144061534E+03   -0.52498E-06   -0.36560E-06  4435   0.140E-02
  64 F= -.13314406E+03 E0= -.13314278E+03  d E =-.108224E-02
       N       E                     dE             d eps       ncg     rms          rms(c)
DAV:   1    -0.133144588052E+03   -0.52704E-03   -0.15046E-01  6390   0.164E+00    0.650E-02
DAV:   2    -0.133144881244E+03   -0.29319E-03   -0.36411E-03  7275   0.239E-01    0.365E-02
DAV:   3    -0.133144849552E+03    0.31692E-04   -0.11518E-04  7835   0.422E-02    0.245E-02
DAV:   4    -0.133144832214E+03    0.17338E-04   -0.91858E-05  6580   0.381E-02    0.136E-02
DAV:   5    -0.133144814180E+03    0.18033E-04   -0.60256E-05  6140   0.427E-02    0.697E-03
DAV:   6    -0.133144812688E+03    0.14922E-05   -0.19249E-05  4990   0.221E-02
  65 F= -.13314481E+03 E0= -.13314351E+03  d E =-.751154E-03
       N       E                     dE             d eps       ncg     rms          rms(c)
DAV:   1    -0.133144715979E+03    0.98201E-04   -0.33319E-01  6370   0.244E+00    0.981E-02
DAV:   2    -0.133145360475E+03   -0.64450E-03   -0.80944E-03  7315   0.358E-01    0.543E-02
DAV:   3    -0.133145284881E+03    0.75594E-04   -0.25305E-04  7880   0.670E-02    0.367E-02
DAV:   4    -0.133145238085E+03    0.46797E-04   -0.20124E-04  7570   0.612E-02    0.206E-02
DAV:   5    -0.133145187818E+03    0.50267E-04   -0.13451E-04  7500   0.685E-02    0.111E-02
DAV:   6    -0.133145181788E+03    0.60292E-05   -0.49086E-05  7370   0.351E-02
  66 F= -.13314518E+03 E0= -.13314385E+03  d E =-.112025E-02
       N       E                     dE             d eps       ncg     rms          rms(c)
DAV:   1    -0.133145674857E+03   -0.48704E-03   -0.80761E-02  6470   0.120E+00    0.473E-02
DAV:   2    -0.133145806023E+03   -0.13117E-03   -0.20443E-03  7445   0.179E-01    0.283E-02
DAV:   3    -0.133145766160E+03    0.39863E-04   -0.47121E-05  7305   0.447E-02    0.203E-02
DAV:   4    -0.133145716916E+03    0.49243E-04   -0.54712E-05  6765   0.606E-02    0.116E-02
DAV:   5    -0.133145666782E+03    0.50134E-04   -0.59875E-05  6900   0.639E-02    0.809E-03
DAV:   6    -0.133145655613E+03    0.11169E-04   -0.36764E-05  6935   0.303E-02    0.903E-03
DAV:   7    -0.133145647398E+03    0.82155E-05   -0.44769E-06  4425   0.128E-02
  67 F= -.13314565E+03 E0= -.13314432E+03  d E =-.465609E-03
       N       E                     dE             d eps       ncg     rms          rms(c)
DAV:   1    -0.133145562211E+03    0.93402E-04   -0.15240E-01  6865   0.165E+00    0.664E-02
DAV:   2    -0.133145854679E+03   -0.29247E-03   -0.43198E-03  7450   0.265E-01    0.435E-02
DAV:   3    -0.133145788903E+03    0.65776E-04   -0.11950E-04  8065   0.536E-02    0.299E-02
DAV:   4    -0.133145715773E+03    0.73130E-04   -0.10958E-04  7540   0.584E-02    0.160E-02
DAV:   5    -0.133145656512E+03    0.59261E-04   -0.77388E-05  7205   0.593E-02    0.108E-02
DAV:   6    -0.133145635111E+03    0.21401E-04   -0.31998E-05  6325   0.383E-02    0.806E-03
DAV:   7    -0.133145597074E+03    0.38037E-04   -0.80420E-06  5075   0.493E-02    0.582E-03
DAV:   8    -0.133145522759E+03    0.74315E-04   -0.28856E-05  6830   0.102E-01    0.732E-03
DAV:   9    -0.133145478191E+03    0.44568E-04   -0.36664E-05  6975   0.773E-02    0.538E-03
DAV:  10    -0.133145410466E+03    0.67725E-04   -0.53837E-05  7775   0.159E-01    0.449E-03
DAV:  11    -0.133145384815E+03    0.25651E-04   -0.98361E-05  7945   0.132E-01    0.425E-03
DAV:  12    -0.133145396398E+03   -0.11584E-04   -0.12031E-04  7180   0.484E-02    0.914E-03
DAV:  13    -0.133145397223E+03   -0.82475E-06   -0.10388E-05  4815   0.131E-02
  68 F= -.13314540E+03 E0= -.13314404E+03  d E =-.215435E-03
       N       E                     dE             d eps       ncg     rms          rms(c)
DAV:   1    -0.133145481525E+03   -0.85127E-04   -0.24694E-02  6875   0.660E-01    0.262E-02
DAV:   2    -0.133145534794E+03   -0.53269E-04   -0.65892E-04  7395   0.995E-02    0.164E-02
DAV:   3    -0.133145529053E+03    0.57408E-05   -0.12034E-05  5545   0.188E-02    0.116E-02
DAV:   4    -0.133145526226E+03    0.28271E-05   -0.23301E-05  5500   0.265E-02    0.506E-03
DAV:   5    -0.133145525247E+03    0.97928E-06   -0.16675E-05  4825   0.192E-02    0.461E-03
DAV:   6    -0.133145525309E+03   -0.61816E-07   -0.31052E-06  4225   0.761E-03
  69 F= -.13314553E+03 E0= -.13314417E+03  d E =-.343520E-03
       N       E                     dE             d eps       ncg     rms          rms(c)
DAV:   1    -0.133145540969E+03   -0.15722E-04   -0.16334E-02  6570   0.536E-01    0.221E-02
DAV:   2    -0.133145570311E+03   -0.29342E-04   -0.42494E-04  7395   0.813E-02    0.128E-02
DAV:   3    -0.133145564495E+03    0.58157E-05   -0.10959E-05  5505   0.190E-02    0.936E-03
DAV:   4    -0.133145559337E+03    0.51578E-05   -0.11663E-05  4845   0.231E-02    0.530E-03
DAV:   5    -0.133145553394E+03    0.59436E-05   -0.11935E-05  5125   0.284E-02    0.354E-03
DAV:   6    -0.133145552840E+03    0.55431E-06   -0.80279E-06  4415   0.127E-02
  70 F= -.13314555E+03 E0= -.13314419E+03  d E =-.371051E-03
       N       E                     dE             d eps       ncg     rms          rms(c)
DAV:   1    -0.133145962336E+03   -0.40894E-03   -0.32043E-02  6420   0.757E-01    0.376E-02
DAV:   2    -0.133146003314E+03   -0.40978E-04   -0.85340E-04  7560   0.124E-01    0.243E-02
DAV:   3    -0.133145987963E+03    0.15350E-04   -0.43224E-05  7435   0.367E-02    0.174E-02
DAV:   4    -0.133145971847E+03    0.16116E-04   -0.26705E-05  6685   0.321E-02    0.783E-03
DAV:   5    -0.133145962475E+03    0.93718E-05   -0.10912E-05  5025   0.330E-02    0.595E-03
DAV:   6    -0.133145959053E+03    0.34220E-05   -0.11333E-05  4545   0.215E-02
  71 F= -.13314596E+03 E0= -.13314460E+03  d E =-.406214E-03
       N       E                     dE             d eps       ncg     rms          rms(c)
DAV:   1    -0.133146076187E+03   -0.11371E-03   -0.36531E-02  6500   0.810E-01    0.415E-02
DAV:   2    -0.133146129048E+03   -0.52862E-04   -0.10812E-03  7550   0.140E-01    0.276E-02
DAV:   3    -0.133146110197E+03    0.18851E-04   -0.54879E-05  7520   0.394E-02    0.200E-02
DAV:   4    -0.133146088137E+03    0.22061E-04   -0.40170E-05  7145   0.362E-02    0.904E-03
DAV:   5    -0.133146076273E+03    0.11864E-04   -0.13400E-05  5225   0.360E-02    0.747E-03
DAV:   6    -0.133146071249E+03    0.50242E-05   -0.12895E-05  4760   0.245E-02
  72 F= -.13314607E+03 E0= -.13314472E+03  d E =-.518409E-03
       N       E                     dE             d eps       ncg     rms          rms(c)
DAV:   1    -0.133146340493E+03   -0.26422E-03   -0.14380E-02  6935   0.508E-01    0.186E-02
DAV:   2    -0.133146354623E+03   -0.14129E-04   -0.39893E-04  7685   0.873E-02    0.129E-02
DAV:   3    -0.133146342389E+03    0.12234E-04   -0.22973E-05  5735   0.269E-02    0.105E-02
DAV:   4    -0.133146331151E+03    0.11238E-04   -0.58216E-06  4565   0.195E-02    0.772E-03
DAV:   5    -0.133146299184E+03    0.31967E-04   -0.17849E-05  5670   0.547E-02    0.569E-03
DAV:   6    -0.133146290111E+03    0.90725E-05   -0.17195E-05  5325   0.264E-02
  73 F= -.13314629E+03 E0= -.13314494E+03  d E =-.218862E-03
       N       E                     dE             d eps       ncg     rms          rms(c)
DAV:   1    -0.133146433274E+03   -0.13409E-03   -0.27944E-02  6775   0.706E-01    0.267E-02
DAV:   2    -0.133146461708E+03   -0.28434E-04   -0.79085E-04  7655   0.120E-01    0.187E-02
DAV:   3    -0.133146436921E+03    0.24787E-04   -0.45761E-05  7125   0.396E-02    0.151E-02
DAV:   4    -0.133146417305E+03    0.19616E-04   -0.13370E-05  4640   0.256E-02    0.108E-02
DAV:   5    -0.133146359084E+03    0.58221E-04   -0.26069E-05  6040   0.673E-02    0.715E-03
DAV:   6    -0.133146334887E+03    0.24197E-04   -0.27596E-05  6265   0.405E-02    0.811E-03
DAV:   7    -0.133146305896E+03    0.28991E-04   -0.27397E-05  6175   0.576E-02    0.800E-03
DAV:   8    -0.133146222067E+03    0.83830E-04   -0.41204E-05  7360   0.152E-01    0.110E-02
DAV:   9    -0.133146181119E+03    0.40948E-04   -0.83584E-05  7890   0.106E-01    0.751E-03
DAV:  10    -0.133146166391E+03    0.14728E-04   -0.75657E-05  7335   0.787E-02    0.825E-03
DAV:  11    -0.133146157675E+03    0.87157E-05   -0.29725E-05  6525   0.628E-02
  74 F= -.13314616E+03 E0= -.13314482E+03  d E =-.864268E-04
       N       E                     dE             d eps       ncg     rms          rms(c)
DAV:   1    -0.133146210207E+03   -0.43816E-04   -0.40021E-03  7115   0.265E-01    0.117E-02
DAV:   2    -0.133146217674E+03   -0.74661E-05   -0.11009E-04  7540   0.431E-02    0.754E-03
DAV:   3    -0.133146216598E+03    0.10755E-05   -0.58838E-06  4365   0.136E-02    0.499E-03
DAV:   4    -0.133146216195E+03    0.40316E-06   -0.30704E-06  4405   0.104E-02    0.279E-03
DAV:   5    -0.133146216216E+03   -0.20789E-07   -0.25663E-06  4615   0.108E-02    0.174E-03
DAV:   6    -0.133146216469E+03   -0.25342E-06   -0.14157E-06  4345   0.824E-03
  75 F= -.13314622E+03 E0= -.13314488E+03  d E =-.145221E-03
       N       E                     dE             d eps       ncg     rms          rms(c)
DAV:   1    -0.133146233873E+03   -0.17657E-04   -0.52433E-03  6785   0.305E-01    0.112E-02
DAV:   2    -0.133146243485E+03   -0.96125E-05   -0.14983E-04  7665   0.504E-02    0.810E-03
DAV:   3    -0.133146241135E+03    0.23497E-05   -0.58166E-06  4440   0.135E-02    0.625E-03
DAV:   4    -0.133146238984E+03    0.21518E-05   -0.28761E-06  4335   0.118E-02    0.406E-03
DAV:   5    -0.133146235376E+03    0.36080E-05   -0.43648E-06  4825   0.225E-02    0.253E-03
DAV:   6    -0.133146234821E+03    0.55460E-06   -0.40500E-06  4375   0.106E-02
  76 F= -.13314623E+03 E0= -.13314490E+03  d E =-.163573E-03
       N       E                     dE             d eps       ncg     rms          rms(c)
DAV:   1    -0.133146410192E+03   -0.17482E-03   -0.20541E-02  6440   0.594E-01    0.200E-02
DAV:   2    -0.133146443832E+03   -0.33640E-04   -0.48110E-04  7625   0.909E-02    0.139E-02
DAV:   3    -0.133146438189E+03    0.56427E-05   -0.15757E-05  4930   0.228E-02    0.109E-02
DAV:   4    -0.133146432772E+03    0.54170E-05   -0.92049E-06  4540   0.198E-02    0.578E-03
DAV:   5    -0.133146427854E+03    0.49175E-05   -0.96316E-06  4845   0.272E-02    0.397E-03
DAV:   6    -0.133146427395E+03    0.45929E-06   -0.76433E-06  4255   0.133E-02
  77 F= -.13314643E+03 E0= -.13314509E+03  d E =-.192574E-03
       N       E                     dE             d eps       ncg     rms          rms(c)
DAV:   1    -0.133146479195E+03   -0.51341E-04   -0.41922E-02  6385   0.849E-01    0.307E-02
DAV:   2    -0.133146548958E+03   -0.69763E-04   -0.10300E-03  7680   0.133E-01    0.203E-02
DAV:   3    -0.133146537903E+03    0.11055E-04   -0.38674E-05  7255   0.332E-02    0.164E-02
DAV:   4    -0.133146528570E+03    0.93329E-05   -0.17230E-05  4890   0.237E-02    0.889E-03
DAV:   5    -0.133146518494E+03    0.10076E-04   -0.16695E-05  5330   0.368E-02    0.583E-03
DAV:   6    -0.133146517256E+03    0.12380E-05   -0.14724E-05  4480   0.188E-02
  78 F= -.13314652E+03 E0= -.13314517E+03  d E =-.282435E-03
       N       E                     dE             d eps       ncg     rms          rms(c)
DAV:   1    -0.133146648370E+03   -0.12988E-03   -0.20237E-02  6645   0.586E-01    0.186E-02
DAV:   2    -0.133146679182E+03   -0.30812E-04   -0.43280E-04  7375   0.839E-02    0.117E-02
DAV:   3    -0.133146670775E+03    0.84073E-05   -0.10004E-05  4845   0.242E-02    0.822E-03
DAV:   4    -0.133146660885E+03    0.98891E-05   -0.79106E-06  4755   0.293E-02    0.548E-03
DAV:   5    -0.133146649897E+03    0.10989E-04   -0.11132E-05  5010   0.348E-02    0.309E-03
DAV:   6    -0.133146643502E+03    0.63948E-05   -0.88512E-06  4705   0.278E-02
  79 F= -.13314664E+03 E0= -.13314530E+03  d E =-.126246E-03
       N       E                     dE             d eps       ncg     rms          rms(c)
DAV:   1    -0.133146659311E+03   -0.94143E-05   -0.86646E-02  6800   0.121E+00    0.381E-02
DAV:   2    -0.133146807846E+03   -0.14854E-03   -0.18972E-03  7475   0.173E-01    0.239E-02
DAV:   3    -0.133146780819E+03    0.27028E-04   -0.38645E-05  7295   0.392E-02    0.171E-02
DAV:   4    -0.133146747496E+03    0.33323E-04   -0.21499E-05  5440   0.457E-02    0.987E-03
DAV:   5    -0.133146714533E+03    0.32963E-04   -0.39094E-05  6530   0.578E-02    0.624E-03
DAV:   6    -0.133146708584E+03    0.59492E-05   -0.34148E-05  6545   0.281E-02
  80 F= -.13314671E+03 E0= -.13314537E+03  d E =-.191328E-03
       N       E                     dE             d eps       ncg     rms          rms(c)
DAV:   1    -0.133146839721E+03   -0.12519E-03   -0.10229E-02  6590   0.427E-01    0.195E-02
DAV:   2    -0.133146847922E+03   -0.82011E-05   -0.26735E-04  7435   0.649E-02    0.105E-02
DAV:   3    -0.133146838180E+03    0.97426E-05   -0.64008E-06  5120   0.208E-02    0.778E-03
DAV:   4    -0.133146825205E+03    0.12975E-04   -0.98188E-06  4830   0.298E-02    0.483E-03
DAV:   5    -0.133146809332E+03    0.15874E-04   -0.11892E-05  5095   0.375E-02    0.384E-03
DAV:   6    -0.133146805056E+03    0.42756E-05   -0.10608E-05  4330   0.179E-02
  81 F= -.13314681E+03 E0= -.13314546E+03  d E =-.964722E-04
       N       E                     dE             d eps       ncg     rms          rms(c)
DAV:   1    -0.133146939757E+03   -0.13043E-03   -0.91587E-02  6515   0.128E+00    0.498E-02
DAV:   2    -0.133147102197E+03   -0.16244E-03   -0.22388E-03  7410   0.187E-01    0.290E-02
DAV:   3    -0.133147080347E+03    0.21850E-04   -0.57812E-05  7805   0.349E-02    0.210E-02
DAV:   4    -0.133147063766E+03    0.16581E-04   -0.55802E-05  6945   0.337E-02    0.102E-02
DAV:   5    -0.133147052386E+03    0.11380E-04   -0.35297E-05  5370   0.258E-02    0.657E-03
DAV:   6    -0.133147049978E+03    0.24078E-05   -0.81147E-06  4365   0.124E-02
  82 F= -.13314705E+03 E0= -.13314570E+03  d E =-.341394E-03
       N       E                     dE             d eps       ncg     rms          rms(c)
DAV:   1    -0.133147043225E+03    0.91611E-05   -0.21107E-02  6585   0.615E-01    0.242E-02
DAV:   2    -0.133147078363E+03   -0.35139E-04   -0.52946E-04  7460   0.920E-02    0.147E-02
DAV:   3    -0.133147071904E+03    0.64588E-05   -0.15148E-05  5735   0.195E-02    0.107E-02
DAV:   4    -0.133147066124E+03    0.57809E-05   -0.16344E-05  4955   0.198E-02    0.539E-03
DAV:   5    -0.133147062432E+03    0.36912E-05   -0.13189E-05  5075   0.183E-02    0.400E-03
DAV:   6    -0.133147062056E+03    0.37610E-06   -0.37947E-06  4125   0.869E-03
  83 F= -.13314706E+03 E0= -.13314571E+03  d E =-.353473E-03
       N       E                     dE             d eps       ncg     rms          rms(c)
DAV:   1    -0.133147184423E+03   -0.12199E-03   -0.51113E-03  6585   0.305E-01    0.112E-02
DAV:   2    -0.133147194488E+03   -0.10064E-04   -0.11636E-04  7450   0.445E-02    0.568E-03
DAV:   3    -0.133147194319E+03    0.16896E-06   -0.28639E-06  4395   0.979E-03    0.404E-03
DAV:   4    -0.133147194489E+03   -0.17041E-06   -0.14500E-06  4680   0.913E-03    0.180E-03
DAV:   5    -0.133147195460E+03   -0.97020E-06   -0.13869E-06  4595   0.935E-03    0.149E-03
DAV:   6    -0.133147195763E+03   -0.30376E-06   -0.11180E-06  4130   0.474E-03
  84 F= -.13314720E+03 E0= -.13314583E+03  d E =-.133707E-03
       N       E                     dE             d eps       ncg     rms          rms(c)
DAV:   1    -0.133147439138E+03   -0.24368E-03   -0.45960E-02  6390   0.915E-01    0.323E-02
DAV:   2    -0.133147523190E+03   -0.84052E-04   -0.10227E-03  7435   0.131E-01    0.161E-02
DAV:   3    -0.133147516472E+03    0.67187E-05   -0.27641E-05  6375   0.287E-02    0.115E-02
DAV:   4    -0.133147508830E+03    0.76416E-05   -0.68278E-06  4640   0.209E-02    0.594E-03
DAV:   5    -0.133147501112E+03    0.77183E-05   -0.65969E-06  5040   0.328E-02    0.406E-03
DAV:   6    -0.133147499796E+03    0.13157E-05   -0.90632E-06  4425   0.163E-02
  85 F= -.13314750E+03 E0= -.13314612E+03  d E =-.437740E-03
       N       E                     dE             d eps       ncg     rms          rms(c)
DAV:   1    -0.133147445092E+03    0.56020E-04   -0.18390E-01  6380   0.183E+00    0.652E-02
DAV:   2    -0.133147767374E+03   -0.32228E-03   -0.41289E-03  7440   0.266E-01    0.327E-02
DAV:   3    -0.133147729325E+03    0.38049E-04   -0.13397E-04  8335   0.628E-02    0.244E-02
DAV:   4    -0.133147686487E+03    0.42838E-04   -0.22872E-05  5715   0.399E-02    0.138E-02
DAV:   5    -0.133147622421E+03    0.64066E-04   -0.31052E-05  6475   0.812E-02    0.938E-03
DAV:   6    -0.133147602714E+03    0.19706E-04   -0.39412E-05  6995   0.449E-02    0.913E-03
DAV:   7    -0.133147570565E+03    0.32149E-04   -0.13520E-05  5295   0.601E-02    0.594E-03
DAV:   8    -0.133147507535E+03    0.63030E-04   -0.37208E-05  7575   0.120E-01    0.913E-03
DAV:   9    -0.133147481147E+03    0.26388E-04   -0.53463E-05  6970   0.655E-02    0.756E-03
DAV:  10    -0.133147448976E+03    0.32172E-04   -0.12753E-05  5560   0.787E-02    0.401E-03
DAV:  11    -0.133147417055E+03    0.31920E-04   -0.53740E-05  8070   0.127E-01    0.509E-03
DAV:  12    -0.133147421673E+03   -0.46180E-05   -0.82873E-05  6820   0.362E-02
  86 F= -.13314742E+03 E0= -.13314603E+03  d E =-.359617E-03
       N       E                     dE             d eps       ncg     rms          rms(c)
DAV:   1    -0.133147496847E+03   -0.79791E-04   -0.39495E-02  6605   0.845E-01    0.323E-02
DAV:   2    -0.133147569503E+03   -0.72657E-04   -0.89610E-04  7375   0.124E-01    0.147E-02
DAV:   3    -0.133147565208E+03    0.42956E-05   -0.33664E-05  6830   0.296E-02    0.107E-02
DAV:   4    -0.133147560830E+03    0.43772E-05   -0.53315E-06  4345   0.138E-02    0.607E-03
DAV:   5    -0.133147554759E+03    0.60713E-05   -0.56083E-06  4935   0.291E-02    0.395E-03
DAV:   6    -0.133147552945E+03    0.18141E-05   -0.54480E-06  4455   0.195E-02
  87 F= -.13314755E+03 E0= -.13314618E+03  d E =-.490889E-03
       N       E                     dE             d eps       ncg     rms          rms(c)
DAV:   1    -0.133147661090E+03   -0.10633E-03   -0.84080E-03  6730   0.390E-01    0.120E-02
DAV:   2    -0.133147678469E+03   -0.17378E-04   -0.19551E-04  7585   0.563E-02    0.861E-03
DAV:   3    -0.133147676876E+03    0.15928E-05   -0.28263E-06  4325   0.843E-03    0.585E-03
DAV:   4    -0.133147675272E+03    0.16041E-05   -0.40840E-06  4480   0.133E-02    0.231E-03
DAV:   5    -0.133147675147E+03    0.12443E-06   -0.16630E-06  4215   0.817E-03    0.184E-03
DAV:   6    -0.133147675030E+03    0.11782E-06   -0.54996E-07  4325   0.832E-03
  88 F= -.13314768E+03 E0= -.13314629E+03  d E =-.122085E-03
       N       E                     dE             d eps       ncg     rms          rms(c)
DAV:   1    -0.133147865320E+03   -0.19017E-03   -0.76280E-02  6400   0.117E+00    0.370E-02
DAV:   2    -0.133148013533E+03   -0.14821E-03   -0.16458E-03  7505   0.161E-01    0.200E-02
DAV:   3    -0.133148004232E+03    0.93011E-05   -0.17985E-05  6085   0.227E-02    0.136E-02
DAV:   4    -0.133147996922E+03    0.73103E-05   -0.24802E-05  6190   0.321E-02    0.422E-03
DAV:   5    -0.133147997248E+03   -0.32596E-06   -0.15012E-05  4325   0.176E-02    0.452E-03
DAV:   6    -0.133147997160E+03    0.87997E-07   -0.24361E-06  4105   0.688E-03
  89 F= -.13314800E+03 E0= -.13314660E+03  d E =-.444215E-03
       N       E                     dE             d eps       ncg     rms          rms(c)
DAV:   1    -0.133147860437E+03    0.13681E-03   -0.30552E-01  6375   0.234E+00    0.754E-02
DAV:   2    -0.133148453841E+03   -0.59340E-03   -0.66301E-03  7400   0.323E-01    0.400E-02
DAV:   3    -0.133148416104E+03    0.37737E-04   -0.86167E-05  8425   0.463E-02    0.272E-02
DAV:   4    -0.133148389536E+03    0.26569E-04   -0.90380E-05  7565   0.542E-02    0.107E-02
DAV:   5    -0.133148385397E+03    0.41383E-05   -0.66561E-05  7195   0.347E-02    0.908E-03
DAV:   6    -0.133148383717E+03    0.16801E-05   -0.96150E-06  4365   0.129E-02
  90 F= -.13314838E+03 E0= -.13314696E+03  d E =-.830772E-03
       N       E                     dE             d eps       ncg     rms          rms(c)
DAV:   1    -0.133146043497E+03    0.23419E-02   -0.12219E+00  6370   0.468E+00    0.150E-01
DAV:   2    -0.133148416702E+03   -0.23732E-02   -0.26521E-02  7425   0.645E-01    0.802E-02
DAV:   3    -0.133148263841E+03    0.15286E-03   -0.33864E-04  8580   0.916E-02    0.544E-02
DAV:   4    -0.133148153598E+03    0.11024E-03   -0.36237E-04  7685   0.109E-01    0.210E-02
DAV:   5    -0.133148137983E+03    0.15615E-04   -0.25880E-04  7560   0.667E-02    0.183E-02
DAV:   6    -0.133148130431E+03    0.75524E-05   -0.36409E-05  6365   0.246E-02
  91 F= -.13314813E+03 E0= -.13314665E+03  d E =-.577486E-03
       N       E                     dE             d eps       ncg     rms          rms(c)
DAV:   1    -0.133147536175E+03    0.60181E-03   -0.50581E-01  6375   0.301E+00    0.926E-02
DAV:   2    -0.133148525024E+03   -0.98885E-03   -0.10854E-02  7385   0.413E-01    0.519E-02
DAV:   3    -0.133148471035E+03    0.53989E-04   -0.12848E-04  8655   0.524E-02    0.353E-02
DAV:   4    -0.133148434988E+03    0.36047E-04   -0.12542E-04  7455   0.603E-02    0.112E-02
DAV:   5    -0.133148436666E+03   -0.16780E-05   -0.55832E-05  7260   0.320E-02    0.963E-03
DAV:   6    -0.133148436154E+03    0.51168E-06   -0.10187E-05  4325   0.129E-02
  92 F= -.13314844E+03 E0= -.13314700E+03  d E =-.883209E-03
       N       E                     dE             d eps       ncg     rms          rms(c)
DAV:   1    -0.133148754784E+03   -0.31812E-03   -0.73242E-02  6560   0.114E+00    0.357E-02
DAV:   2    -0.133148901260E+03   -0.14648E-03   -0.16486E-03  7180   0.158E-01    0.213E-02
DAV:   3    -0.133148888497E+03    0.12763E-04   -0.19737E-05  5675   0.229E-02    0.144E-02
DAV:   4    -0.133148877778E+03    0.10719E-04   -0.28559E-05  5005   0.328E-02    0.659E-03
DAV:   5    -0.133148872739E+03    0.50389E-05   -0.29546E-05  4965   0.267E-02    0.349E-03
DAV:   6    -0.133148871587E+03    0.11519E-05   -0.61873E-06  4405   0.132E-02
  93 F= -.13314887E+03 E0= -.13314744E+03  d E =-.435433E-03
       N       E                     dE             d eps       ncg     rms          rms(c)
DAV:   1    -0.133148468273E+03    0.40447E-03   -0.65848E-01  6550   0.341E+00    0.111E-01
DAV:   2    -0.133149765784E+03   -0.12975E-02   -0.14861E-02  7180   0.477E-01    0.626E-02
DAV:   3    -0.133149631587E+03    0.13420E-03   -0.19251E-04  8035   0.809E-02    0.419E-02
DAV:   4    -0.133149486714E+03    0.14487E-03   -0.19814E-04  7855   0.110E-01    0.196E-02
DAV:   5    -0.133149405303E+03    0.81411E-04   -0.24029E-04  7455   0.923E-02    0.116E-02
DAV:   6    -0.133149379365E+03    0.25938E-04   -0.78497E-05  7385   0.478E-02    0.127E-02
DAV:   7    -0.133149357939E+03    0.21426E-04   -0.74839E-06  4695   0.217E-02    0.976E-03
DAV:   8    -0.133149199875E+03    0.15806E-03   -0.73845E-05  7780   0.152E-01    0.142E-02
DAV:   9    -0.133149161781E+03    0.38094E-04   -0.40681E-05  6865   0.570E-02    0.135E-02
DAV:  10    -0.133149087574E+03    0.74207E-04   -0.56360E-05  8485   0.130E-01    0.746E-03
DAV:  11    -0.133149005819E+03    0.81755E-04   -0.97637E-05  9160   0.184E-01    0.747E-03
DAV:  12    -0.133148988891E+03    0.16927E-04   -0.13762E-04  7520   0.116E-01    0.489E-03
DAV:  13    -0.133148997721E+03   -0.88299E-05   -0.91454E-05  7370   0.488E-02
  94 F= -.13314900E+03 E0= -.13314755E+03  d E =-.561567E-03
       N       E                     dE             d eps       ncg     rms          rms(c)
DAV:   1    -0.133149035208E+03   -0.46316E-04   -0.71978E-02  6885   0.112E+00    0.377E-02
DAV:   2    -0.133149180149E+03   -0.14494E-03   -0.16122E-03  7245   0.157E-01    0.209E-02
DAV:   3    -0.133149168157E+03    0.11992E-04   -0.20719E-05  5700   0.274E-02    0.137E-02
DAV:   4    -0.133149159121E+03    0.90360E-05   -0.23357E-05  5355   0.375E-02    0.575E-03
DAV:   5    -0.133149156661E+03    0.24602E-05   -0.29519E-05  5275   0.279E-02    0.417E-03
DAV:   6    -0.133149156344E+03    0.31690E-06   -0.65173E-06  4425   0.132E-02
  95 F= -.13314916E+03 E0= -.13314770E+03  d E =-.720190E-03
       N       E                     dE             d eps       ncg     rms          rms(c)
DAV:   1    -0.133149063709E+03    0.92952E-04   -0.85932E-02  6645   0.123E+00    0.403E-02
DAV:   2    -0.133149225027E+03   -0.16132E-03   -0.19106E-03  7195   0.173E-01    0.227E-02
DAV:   3    -0.133149203524E+03    0.21503E-04   -0.28953E-05  6355   0.346E-02    0.154E-02
DAV:   4    -0.133149179150E+03    0.24374E-04   -0.27950E-05  5460   0.469E-02    0.841E-03
DAV:   5    -0.133149160586E+03    0.18564E-04   -0.40239E-05  6110   0.457E-02    0.471E-03
DAV:   6    -0.133149154241E+03    0.63447E-05   -0.20161E-05  5125   0.272E-02
  96 F= -.13314915E+03 E0= -.13314770E+03  d E =-.718087E-03
       N       E                     dE             d eps       ncg     rms          rms(c)
DAV:   1    -0.133149313279E+03   -0.15269E-03   -0.21668E-02  6560   0.622E-01    0.227E-02
DAV:   2    -0.133149342048E+03   -0.28769E-04   -0.51304E-04  7475   0.962E-02    0.143E-02
DAV:   3    -0.133149331944E+03    0.10104E-04   -0.22770E-05  6005   0.313E-02    0.110E-02
DAV:   4    -0.133149320628E+03    0.11316E-04   -0.62480E-06  4680   0.259E-02    0.653E-03
DAV:   5    -0.133149304142E+03    0.16486E-04   -0.10079E-05  5225   0.459E-02    0.467E-03
DAV:   6    -0.133149299916E+03    0.42265E-05   -0.17079E-05  5175   0.238E-02
  97 F= -.13314930E+03 E0= -.13314785E+03  d E =-.145675E-03
