       N       E                     dE             d eps       ncg     rms          rms(c)
DAV:   1     0.522390063187E+03    0.52239E+03   -0.45419E+04  2780   0.135E+03
DAV:   2    -0.101097108766E+03   -0.62349E+03   -0.59362E+03  3576   0.256E+02
DAV:   3    -0.160705114958E+03   -0.59608E+02   -0.59306E+02  3256   0.860E+01
DAV:   4    -0.161473529311E+03   -0.76841E+00   -0.76740E+00  3192   0.106E+01
DAV:   5    -0.161485579212E+03   -0.12050E-01   -0.12044E-01  3360   0.130E+00    0.231E+01
DAV:   6    -0.145434394262E+03    0.16051E+02   -0.93597E+01  3120   0.301E+01    0.784E+00
DAV:   7    -0.145309934389E+03    0.12446E+00   -0.19880E+00  3074   0.525E+00    0.478E+00
DAV:   8    -0.145202248804E+03    0.10769E+00   -0.60387E-01  3162   0.403E+00    0.842E-01
DAV:   9    -0.145181796658E+03    0.20452E-01   -0.13924E-01  3058   0.123E+00    0.510E-01
DAV:  10    -0.145180603600E+03    0.11931E-02   -0.35980E-02  3126   0.758E-01    0.258E-01
DAV:  11    -0.145181707558E+03   -0.11040E-02   -0.43134E-03  3146   0.270E-01    0.175E-01
DAV:  12    -0.145181732514E+03   -0.24955E-04   -0.12851E-03  3808   0.219E-01    0.906E-02
DAV:  13    -0.145181656433E+03    0.76081E-04   -0.16577E-03  3122   0.172E-01    0.324E-02
DAV:  14    -0.145181649301E+03    0.71317E-05   -0.11392E-04  3110   0.466E-02    0.292E-02
DAV:  15    -0.145181640999E+03    0.83025E-05   -0.18429E-05  1822   0.178E-02
   1 F= -.14518164E+03 E0= -.14518029E+03  d E =-.145182E+03
       N       E                     dE             d eps       ncg     rms          rms(c)
DAV:   1    -0.145183026667E+03   -0.13774E-02   -0.20001E-02  2836   0.607E-01    0.353E-02
DAV:   2    -0.145182987485E+03    0.39182E-04   -0.87609E-04  3236   0.150E-01    0.237E-02
DAV:   3    -0.145182957282E+03    0.30203E-04   -0.15168E-04  3156   0.612E-02    0.203E-02
DAV:   4    -0.145182932182E+03    0.25100E-04   -0.24246E-05  2260   0.282E-02    0.125E-02
DAV:   5    -0.145182882820E+03    0.49362E-04   -0.73548E-05  3042   0.713E-02    0.951E-03
DAV:   6    -0.145182870730E+03    0.12090E-04   -0.45706E-05  2966   0.492E-02    0.977E-03
DAV:   7    -0.145182867864E+03    0.28661E-05   -0.47056E-05  2800   0.397E-02
   2 F= -.14518287E+03 E0= -.14518154E+03  d E =-.122686E-02
       N       E                     dE             d eps       ncg     rms          rms(c)
DAV:   1    -0.145183296435E+03   -0.42571E-03   -0.14920E-02  2812   0.527E-01    0.242E-02
DAV:   2    -0.145183286364E+03    0.10072E-04   -0.69763E-04  3224   0.120E-01    0.236E-02
DAV:   3    -0.145183261833E+03    0.24530E-04   -0.64946E-05  3078   0.423E-02    0.186E-02
DAV:   4    -0.145183230570E+03    0.31263E-04   -0.43525E-05  2856   0.400E-02    0.884E-03
DAV:   5    -0.145183202487E+03    0.28083E-04   -0.45045E-05  2890   0.593E-02    0.106E-02
DAV:   6    -0.145183193913E+03    0.85734E-05   -0.37651E-05  2752   0.450E-02
   3 F= -.14518319E+03 E0= -.14518187E+03  d E =-.155291E-02
       N       E                     dE             d eps       ncg     rms          rms(c)
DAV:   1    -0.145183858638E+03   -0.65615E-03   -0.22097E-01  2788   0.200E+00    0.609E-02
DAV:   2    -0.145184317751E+03   -0.45911E-03   -0.51470E-03  3104   0.274E-01    0.382E-02
DAV:   3    -0.145184282217E+03    0.35533E-04   -0.55056E-05  3174   0.469E-02    0.248E-02
DAV:   4    -0.145184252846E+03    0.29371E-04   -0.52167E-05  2932   0.568E-02    0.819E-03
DAV:   5    -0.145184248661E+03    0.41851E-05   -0.42870E-05  2792   0.392E-02    0.572E-03
DAV:   6    -0.145184244507E+03    0.41537E-05   -0.77106E-06  1778   0.212E-02
   4 F= -.14518424E+03 E0= -.14518294E+03  d E =-.105059E-02
       N       E                     dE             d eps       ncg     rms          rms(c)
DAV:   1    -0.145183192891E+03    0.10558E-02   -0.11304E+00  2844   0.452E+00    0.136E-01
DAV:   2    -0.145185488844E+03   -0.22960E-02   -0.26107E-02  3110   0.618E-01    0.825E-02
DAV:   3    -0.145185288664E+03    0.20018E-03   -0.26878E-04  3272   0.113E-01    0.552E-02
DAV:   4    -0.145185073624E+03    0.21504E-03   -0.29293E-04  3474   0.163E-01    0.183E-02
DAV:   5    -0.145185021745E+03    0.51879E-04   -0.26844E-04  3234   0.109E-01    0.141E-02
DAV:   6    -0.145184966852E+03    0.54893E-04   -0.47736E-05  2670   0.822E-02    0.874E-03
DAV:   7    -0.145184912022E+03    0.54830E-04   -0.12864E-05  2046   0.864E-02    0.749E-03
DAV:   8    -0.145184849126E+03    0.62896E-04   -0.41748E-05  2902   0.112E-01    0.608E-03
DAV:   9    -0.145184764456E+03    0.84670E-04   -0.83487E-05  3278   0.193E-01    0.569E-03
DAV:  10    -0.145184724297E+03    0.40159E-04   -0.15087E-04  3800   0.178E-01    0.650E-03
DAV:  11    -0.145184735799E+03   -0.11501E-04   -0.22193E-04  2900   0.625E-02    0.110E-02
DAV:  12    -0.145184730075E+03    0.57237E-05   -0.14787E-05  1970   0.176E-02
   5 F= -.14518473E+03 E0= -.14518343E+03  d E =-.153616E-02
       N       E                     dE             d eps       ncg     rms          rms(c)
DAV:   1    -0.145184707610E+03    0.28188E-04   -0.81807E-02  2800   0.122E+00    0.384E-02
DAV:   2    -0.145184881159E+03   -0.17355E-03   -0.20705E-03  3104   0.175E-01    0.255E-02
DAV:   3    -0.145184861923E+03    0.19236E-04   -0.18990E-05  2252   0.334E-02    0.183E-02
DAV:   4    -0.145184839235E+03    0.22688E-04   -0.51759E-05  2814   0.622E-02    0.639E-03
DAV:   5    -0.145184839689E+03   -0.45371E-06   -0.43344E-05  2716   0.286E-02    0.923E-03
DAV:   6    -0.145184840605E+03   -0.91606E-06   -0.32358E-06  1488   0.655E-03
   6 F= -.14518484E+03 E0= -.14518354E+03  d E =-.164669E-02
       N       E                     dE             d eps       ncg     rms          rms(c)
DAV:   1    -0.145185196020E+03   -0.35633E-03   -0.10722E-01  2856   0.138E+00    0.415E-02
DAV:   2    -0.145185415141E+03   -0.21912E-03   -0.24323E-03  3060   0.189E-01    0.232E-02
DAV:   3    -0.145185400821E+03    0.14320E-04   -0.23315E-05  2494   0.253E-02    0.162E-02
DAV:   4    -0.145185386405E+03    0.14415E-04   -0.26674E-05  2522   0.369E-02    0.529E-03
DAV:   5    -0.145185384148E+03    0.22574E-05   -0.15249E-05  1910   0.225E-02    0.550E-03
DAV:   6    -0.145185381477E+03    0.26708E-05   -0.48365E-06  1718   0.172E-02
   7 F= -.14518538E+03 E0= -.14518408E+03  d E =-.540872E-03
       N       E                     dE             d eps       ncg     rms          rms(c)
DAV:   1    -0.145184714113E+03    0.67004E-03   -0.96529E-01  2852   0.416E+00    0.123E-01
DAV:   2    -0.145186746834E+03   -0.20327E-02   -0.22083E-02  3020   0.571E-01    0.717E-02
DAV:   3    -0.145186629660E+03    0.11717E-03   -0.19105E-04  3246   0.671E-02    0.496E-02
DAV:   4    -0.145186534030E+03    0.95630E-04   -0.30221E-04  3206   0.926E-02    0.170E-02
DAV:   5    -0.145186529470E+03    0.45598E-05   -0.10240E-04  3026   0.475E-02    0.151E-02
DAV:   6    -0.145186518201E+03    0.11270E-04   -0.24313E-05  2294   0.308E-02    0.719E-03
DAV:   7    -0.145186503221E+03    0.14979E-04   -0.11303E-05  1924   0.437E-02    0.626E-03
DAV:   8    -0.145186488181E+03    0.15040E-04   -0.15104E-05  2054   0.477E-02    0.870E-03
DAV:   9    -0.145186473421E+03    0.14760E-04   -0.18599E-05  2182   0.472E-02    0.578E-03
DAV:  10    -0.145186445854E+03    0.27566E-04   -0.32861E-05  2692   0.962E-02    0.107E-02
DAV:  11    -0.145186429052E+03    0.16803E-04   -0.33798E-05  2630   0.908E-02    0.123E-02
DAV:  12    -0.145186423935E+03    0.51162E-05   -0.50294E-05  2728   0.625E-02
   8 F= -.14518642E+03 E0= -.14518514E+03  d E =-.158333E-02
       N       E                     dE             d eps       ncg     rms          rms(c)
DAV:   1    -0.145178818608E+03    0.76104E-02   -0.38594E+00  2844   0.836E+00    0.247E-01
DAV:   2    -0.145187058431E+03   -0.82398E-02   -0.89219E-02  3012   0.114E+00    0.146E-01
DAV:   3    -0.145186592937E+03    0.46549E-03   -0.76150E-04  3246   0.133E-01    0.996E-02
DAV:   4    -0.145186256759E+03    0.33618E-03   -0.10732E-03  3228   0.168E-01    0.327E-02
DAV:   5    -0.145186247821E+03    0.89388E-05   -0.34912E-04  3094   0.850E-02    0.252E-02
DAV:   6    -0.145186219217E+03    0.28603E-04   -0.90462E-05  3046   0.575E-02    0.122E-02
DAV:   7    -0.145186191787E+03    0.27430E-04   -0.24159E-05  2246   0.566E-02    0.978E-03
DAV:   8    -0.145186151940E+03    0.39847E-04   -0.25215E-05  2394   0.756E-02    0.684E-03
DAV:   9    -0.145186128679E+03    0.23261E-04   -0.44895E-05  2848   0.549E-02    0.114E-02
DAV:  10    -0.145186069387E+03    0.59292E-04   -0.66957E-05  3040   0.110E-01    0.146E-02
DAV:  11    -0.145186036610E+03    0.32777E-04   -0.63552E-05  3220   0.115E-01    0.218E-02
DAV:  12    -0.145186025253E+03    0.11357E-04   -0.83761E-05  2750   0.689E-02    0.162E-02
DAV:  13    -0.145186011488E+03    0.13765E-04   -0.61937E-05  3432   0.114E-01    0.433E-03
DAV:  14    -0.145186018162E+03   -0.66743E-05   -0.88637E-05  2762   0.462E-02
   9 F= -.14518602E+03 E0= -.14518472E+03  d E =-.117756E-02
       N       E                     dE             d eps       ncg     rms          rms(c)
DAV:   1    -0.145183874149E+03    0.21373E-02   -0.14739E+00  2820   0.509E+00    0.159E-01
DAV:   2    -0.145187053512E+03   -0.31794E-02   -0.34733E-02  3010   0.694E-01    0.874E-02
DAV:   3    -0.145186884788E+03    0.16872E-03   -0.31645E-04  3230   0.844E-02    0.623E-02
DAV:   4    -0.145186761927E+03    0.12286E-03   -0.46872E-04  3196   0.114E-01    0.221E-02
DAV:   5    -0.145186759296E+03    0.26319E-05   -0.15714E-04  3068   0.539E-02    0.220E-02
DAV:   6    -0.145186745169E+03    0.14127E-04   -0.67054E-05  2932   0.424E-02    0.867E-03
DAV:   7    -0.145186736761E+03    0.84077E-05   -0.17683E-05  1946   0.348E-02
  10 F= -.14518674E+03 E0= -.14518545E+03  d E =-.189616E-02
       N       E                     dE             d eps       ncg     rms          rms(c)
DAV:   1    -0.145187177581E+03   -0.43241E-03   -0.15698E-01  2780   0.169E+00    0.563E-02
DAV:   2    -0.145187502100E+03   -0.32452E-03   -0.37652E-03  3116   0.242E-01    0.304E-02
DAV:   3    -0.145187480302E+03    0.21797E-04   -0.61665E-05  3046   0.383E-02    0.229E-02
DAV:   4    -0.145187456473E+03    0.23830E-04   -0.10545E-04  3116   0.536E-02    0.138E-02
DAV:   5    -0.145187447852E+03    0.86203E-05   -0.22792E-05  2240   0.320E-02    0.168E-02
DAV:   6    -0.145187437592E+03    0.10260E-04   -0.14246E-05  2000   0.265E-02    0.106E-02
DAV:   7    -0.145187422302E+03    0.15290E-04   -0.14634E-05  2020   0.426E-02    0.458E-03
DAV:   8    -0.145187414542E+03    0.77599E-05   -0.35095E-05  2554   0.405E-02
  11 F= -.14518741E+03 E0= -.14518613E+03  d E =-.677781E-03
       N       E                     dE             d eps       ncg     rms          rms(c)
DAV:   1    -0.145185868639E+03    0.15537E-02   -0.14122E+00  2788   0.509E+00    0.154E-01
DAV:   2    -0.145188774829E+03   -0.29062E-02   -0.31928E-02  3038   0.700E-01    0.870E-02
DAV:   3    -0.145188626059E+03    0.14877E-03   -0.39038E-04  3230   0.946E-02    0.638E-02
DAV:   4    -0.145188512358E+03    0.11370E-03   -0.72771E-04  3274   0.134E-01    0.330E-02
DAV:   5    -0.145188495618E+03    0.16740E-04   -0.14479E-04  3084   0.631E-02    0.372E-02
DAV:   6    -0.145188460750E+03    0.34867E-04   -0.10709E-04  3136   0.583E-02    0.164E-02
DAV:   7    -0.145188440582E+03    0.20168E-04   -0.38039E-05  2738   0.447E-02    0.940E-03
DAV:   8    -0.145188414053E+03    0.26529E-04   -0.86058E-06  1904   0.483E-02    0.647E-03
DAV:   9    -0.145188376164E+03    0.37889E-04   -0.21749E-05  2304   0.725E-02    0.447E-03
DAV:  10    -0.145188331280E+03    0.44884E-04   -0.48952E-05  3048   0.111E-01    0.740E-03
DAV:  11    -0.145188293584E+03    0.37697E-04   -0.66190E-05  3040   0.152E-01    0.911E-03
DAV:  12    -0.145188295431E+03   -0.18472E-05   -0.11108E-04  2880   0.720E-02    0.682E-03
DAV:  13    -0.145188299186E+03   -0.37553E-05   -0.52706E-05  2558   0.294E-02
  12 F= -.14518830E+03 E0= -.14518702E+03  d E =-.156243E-02
       N       E                     dE             d eps       ncg     rms          rms(c)
DAV:   1    -0.145188360771E+03   -0.65340E-04   -0.57298E-01  2836   0.322E+00    0.915E-02
DAV:   2    -0.145189471066E+03   -0.11103E-02   -0.12077E-02  3086   0.432E-01    0.536E-02
DAV:   3    -0.145189397030E+03    0.74036E-04   -0.98607E-05  3246   0.548E-02    0.365E-02
DAV:   4    -0.145189334295E+03    0.62735E-04   -0.25167E-04  3318   0.103E-01    0.103E-02
DAV:   5    -0.145189340827E+03   -0.65321E-05   -0.10380E-04  2832   0.405E-02    0.141E-02
DAV:   6    -0.145189339627E+03    0.12005E-05   -0.25174E-06  1496   0.666E-03
  13 F= -.14518934E+03 E0= -.14518806E+03  d E =-.104044E-02
       N       E                     dE             d eps       ncg     rms          rms(c)
DAV:   1    -0.145184816293E+03    0.45245E-02   -0.31240E+00  2804   0.752E+00    0.214E-01
DAV:   2    -0.145190909720E+03   -0.60934E-02   -0.66307E-02  3082   0.101E+00    0.126E-01
DAV:   3    -0.145190496881E+03    0.41284E-03   -0.54628E-04  3294   0.132E-01    0.854E-02
DAV:   4    -0.145190125157E+03    0.37172E-03   -0.12814E-03  3290   0.243E-01    0.232E-02
DAV:   5    -0.145190152755E+03   -0.27598E-04   -0.58503E-04  3090   0.969E-02    0.317E-02
DAV:   6    -0.145190142183E+03    0.10572E-04   -0.17755E-05  1994   0.174E-02    0.257E-02
DAV:   7    -0.145190094185E+03    0.47998E-04   -0.88476E-05  3026   0.408E-02    0.122E-02
DAV:   8    -0.145190057653E+03    0.36532E-04   -0.40581E-05  2906   0.485E-02    0.218E-02
DAV:   9    -0.145190018294E+03    0.39359E-04   -0.47275E-05  2838   0.664E-02    0.158E-02
DAV:  10    -0.145189983399E+03    0.34895E-04   -0.86511E-05  3400   0.827E-02    0.128E-02
DAV:  11    -0.145189948417E+03    0.34982E-04   -0.79176E-05  3388   0.954E-02    0.181E-02
DAV:  12    -0.145189911841E+03    0.36576E-04   -0.46097E-05  2950   0.935E-02    0.205E-02
DAV:  13    -0.145189873657E+03    0.38184E-04   -0.57106E-05  3088   0.119E-01    0.130E-02
DAV:  14    -0.145189868592E+03    0.50657E-05   -0.10499E-04  3122   0.884E-02    0.123E-02
DAV:  15    -0.145189873291E+03   -0.46995E-05   -0.11305E-04  2778   0.411E-02    0.112E-02
DAV:  16    -0.145189873162E+03    0.12926E-06   -0.56360E-06  1628   0.960E-03
  14 F= -.14518987E+03 E0= -.14518860E+03  d E =-.157398E-02
       N       E                     dE             d eps       ncg     rms          rms(c)
DAV:   1    -0.145189638447E+03    0.23484E-03   -0.19788E-01  2824   0.188E+00    0.539E-02
DAV:   2    -0.145190019516E+03   -0.38107E-03   -0.41637E-03  3080   0.252E-01    0.313E-02
DAV:   3    -0.145189994053E+03    0.25463E-04   -0.35989E-05  2900   0.336E-02    0.212E-02
DAV:   4    -0.145189972457E+03    0.21596E-04   -0.79583E-05  2950   0.564E-02    0.606E-03
DAV:   5    -0.145189974292E+03   -0.18358E-05   -0.34203E-05  2552   0.236E-02    0.793E-03
DAV:   6    -0.145189974043E+03    0.24978E-06   -0.12535E-06  1458   0.451E-03
  15 F= -.14518997E+03 E0= -.14518870E+03  d E =-.167486E-02
       N       E                     dE             d eps       ncg     rms          rms(c)
DAV:   1    -0.145189910682E+03    0.63611E-04   -0.56178E-01  2796   0.322E+00    0.931E-02
DAV:   2    -0.145191049117E+03   -0.11384E-02   -0.12356E-02  3016   0.441E-01    0.520E-02
DAV:   3    -0.145191001895E+03    0.47222E-04   -0.16366E-04  3270   0.553E-02    0.378E-02
DAV:   4    -0.145190966041E+03    0.35854E-04   -0.15275E-04  3160   0.605E-02    0.158E-02
DAV:   5    -0.145190963584E+03    0.24564E-05   -0.41946E-05  2728   0.308E-02    0.165E-02
DAV:   6    -0.145190957549E+03    0.60353E-05   -0.33004E-05  2428   0.352E-02
  16 F= -.14519096E+03 E0= -.14518969E+03  d E =-.983506E-03
       N       E                     dE             d eps       ncg     rms          rms(c)
DAV:   1    -0.145182879401E+03    0.80842E-02   -0.47910E+00  2796   0.939E+00    0.281E-01
DAV:   2    -0.145192738890E+03   -0.98595E-02   -0.10702E-01  3000   0.129E+00    0.153E-01
DAV:   3    -0.145192334420E+03    0.40447E-03   -0.13966E-03  3254   0.162E-01    0.111E-01
DAV:   4    -0.145192050503E+03    0.28392E-03   -0.13559E-03  3282   0.182E-01    0.454E-02
DAV:   5    -0.145192047660E+03    0.28429E-05   -0.35928E-04  3204   0.850E-02    0.478E-02
DAV:   6    -0.145192009946E+03    0.37715E-04   -0.26274E-04  3276   0.921E-02    0.192E-02
DAV:   7    -0.145192009342E+03    0.60379E-06   -0.83451E-05  2752   0.389E-02
  17 F= -.14519201E+03 E0= -.14519073E+03  d E =-.203530E-02
       N       E                     dE             d eps       ncg     rms          rms(c)
DAV:   1    -0.145190831944E+03    0.11780E-02   -0.12148E+00  2812   0.473E+00    0.148E-01
DAV:   2    -0.145193372610E+03   -0.25407E-02   -0.28129E-02  3106   0.670E-01    0.801E-02
DAV:   3    -0.145193245400E+03    0.12721E-03   -0.42218E-04  3270   0.937E-02    0.590E-02
DAV:   4    -0.145193148133E+03    0.97267E-04   -0.41900E-04  3214   0.945E-02    0.252E-02
DAV:   5    -0.145193133665E+03    0.14468E-04   -0.98075E-05  3192   0.549E-02    0.271E-02
DAV:   6    -0.145193118846E+03    0.14819E-04   -0.93501E-05  2972   0.566E-02    0.117E-02
DAV:   7    -0.145193117943E+03    0.90241E-06   -0.38842E-05  2460   0.286E-02
  18 F= -.14519312E+03 E0= -.14519180E+03  d E =-.110860E-02
       N       E                     dE             d eps       ncg     rms          rms(c)
DAV:   1    -0.145192977140E+03    0.14171E-03   -0.94451E-02  2808   0.132E+00    0.418E-02
DAV:   2    -0.145193175993E+03   -0.19885E-03   -0.22265E-03  3116   0.189E-01    0.228E-02
DAV:   3    -0.145193164055E+03    0.11938E-04   -0.35128E-05  2722   0.275E-02    0.167E-02
DAV:   4    -0.145193153062E+03    0.10993E-04   -0.39529E-05  2742   0.278E-02    0.760E-03
DAV:   5    -0.145193149839E+03    0.32227E-05   -0.75527E-06  1780   0.196E-02    0.841E-03
DAV:   6    -0.145193147286E+03    0.25538E-05   -0.73168E-06  1728   0.190E-02
  19 F= -.14519315E+03 E0= -.14519181E+03  d E =-.113794E-02
       N       E                     dE             d eps       ncg     rms          rms(c)
DAV:   1    -0.145190873255E+03    0.22766E-02   -0.18822E+00  2828   0.589E+00    0.172E-01
DAV:   2    -0.145194779308E+03   -0.39061E-02   -0.42181E-02  3052   0.808E-01    0.101E-01
DAV:   3    -0.145194553460E+03    0.22585E-03   -0.41351E-04  3258   0.104E-01    0.694E-02
DAV:   4    -0.145194387354E+03    0.16611E-03   -0.68004E-04  3178   0.158E-01    0.217E-02
DAV:   5    -0.145194401245E+03   -0.13892E-04   -0.27495E-04  3096   0.659E-02    0.252E-02
DAV:   6    -0.145194394791E+03    0.64538E-05   -0.12737E-05  1678   0.157E-02
  20 F= -.14519439E+03 E0= -.14519299E+03  d E =-.124751E-02
       N       E                     dE             d eps       ncg     rms          rms(c)
DAV:   1    -0.145193505536E+03    0.89571E-03   -0.56178E-01  2828   0.322E+00    0.936E-02
DAV:   2    -0.145194662866E+03   -0.11573E-02   -0.12528E-02  3058   0.440E-01    0.562E-02
DAV:   3    -0.145194587025E+03    0.75841E-04   -0.11797E-04  3228   0.621E-02    0.384E-02
DAV:   4    -0.145194520082E+03    0.66943E-04   -0.20985E-04  3178   0.103E-01    0.115E-02
DAV:   5    -0.145194522089E+03   -0.20076E-05   -0.12092E-04  2964   0.467E-02    0.141E-02
DAV:   6    -0.145194521470E+03    0.61933E-06   -0.56395E-06  1650   0.951E-03
  21 F= -.14519452E+03 E0= -.14519308E+03  d E =-.137418E-02
       N       E                     dE             d eps       ncg     rms          rms(c)
DAV:   1    -0.145194431193E+03    0.90897E-04   -0.22036E-01  2824   0.198E+00    0.706E-02
DAV:   2    -0.145194888497E+03   -0.45730E-03   -0.56806E-03  3126   0.300E-01    0.448E-02
DAV:   3    -0.145194846331E+03    0.42167E-04   -0.10652E-04  3144   0.566E-02    0.337E-02
DAV:   4    -0.145194813906E+03    0.32424E-04   -0.14961E-04  2984   0.734E-02    0.134E-02
DAV:   5    -0.145194807226E+03    0.66802E-05   -0.69096E-05  2982   0.501E-02    0.163E-02
DAV:   6    -0.145194802091E+03    0.51350E-05   -0.21727E-05  2018   0.228E-02
  22 F= -.14519480E+03 E0= -.14519333E+03  d E =-.280621E-03
       N       E                     dE             d eps       ncg     rms          rms(c)
DAV:   1    -0.145194792507E+03    0.14719E-04   -0.15233E-03  2902   0.166E-01    0.103E-02
DAV:   2    -0.145194790534E+03    0.19726E-05   -0.50547E-05  2882   0.358E-02    0.493E-03
DAV:   3    -0.145194787895E+03    0.26393E-05   -0.64548E-06  1728   0.185E-02    0.444E-03
DAV:   4    -0.145194785331E+03    0.25639E-05   -0.23279E-06  1760   0.131E-02    0.295E-03
DAV:   5    -0.145194777101E+03    0.82300E-05   -0.30173E-06  1784   0.368E-02    0.245E-03
DAV:   6    -0.145194772994E+03    0.41065E-05   -0.62167E-06  1920   0.252E-02
  23 F= -.14519477E+03 E0= -.14519329E+03  d E =-.251524E-03
       N       E                     dE             d eps       ncg     rms          rms(c)
DAV:   1    -0.145194822055E+03   -0.44954E-04   -0.95681E-02  2960   0.131E+00    0.424E-02
DAV:   2    -0.145194946947E+03   -0.12489E-03   -0.21208E-03  3136   0.191E-01    0.271E-02
DAV:   3    -0.145194924524E+03    0.22423E-04   -0.88134E-05  3182   0.446E-02    0.191E-02
DAV:   4    -0.145194912047E+03    0.12477E-04   -0.22666E-05  2008   0.259E-02    0.117E-02
DAV:   5    -0.145194900181E+03    0.11866E-04   -0.15966E-05  2036   0.322E-02    0.626E-03
DAV:   6    -0.145194895593E+03    0.45872E-05   -0.14774E-05  2008   0.308E-02
  24 F= -.14519490E+03 E0= -.14519339E+03  d E =-.122599E-03
       N       E                     dE             d eps       ncg     rms          rms(c)
DAV:   1    -0.145194904062E+03   -0.38812E-05   -0.42896E-03  2880   0.278E-01    0.892E-03
DAV:   2    -0.145194908836E+03   -0.47745E-05   -0.93118E-05  3050   0.398E-02    0.722E-03
DAV:   3    -0.145194907420E+03    0.14159E-05   -0.35040E-06  1690   0.861E-03    0.453E-03
DAV:   4    -0.145194906494E+03    0.92646E-06   -0.19420E-06  1512   0.772E-03    0.214E-03
DAV:   5    -0.145194906055E+03    0.43935E-06   -0.94047E-07  1564   0.676E-03    0.108E-03
DAV:   6    -0.145194905654E+03    0.40079E-06   -0.33846E-07  1536   0.688E-03
  25 F= -.14519491E+03 E0= -.14519341E+03  d E =-.132659E-03
       N       E                     dE             d eps       ncg     rms          rms(c)
DAV:   1    -0.145194982328E+03   -0.76274E-04   -0.17260E-02  2996   0.553E-01    0.214E-02
DAV:   2    -0.145195008567E+03   -0.26239E-04   -0.50157E-04  3122   0.908E-02    0.146E-02
DAV:   3    -0.145195003753E+03    0.48143E-05   -0.19588E-05  1984   0.194E-02    0.108E-02
DAV:   4    -0.145195001028E+03    0.27248E-05   -0.86775E-06  1632   0.141E-02    0.565E-03
DAV:   5    -0.145194998754E+03    0.22733E-05   -0.61820E-06  1752   0.156E-02    0.371E-03
DAV:   6    -0.145194997636E+03    0.11181E-05   -0.21239E-06  1600   0.124E-02
  26 F= -.14519500E+03 E0= -.14519348E+03  d E =-.919826E-04
