 vasp.5.3.5 31Mar14 (build Apr 08 2024 10:12:10) complex                        
  
 executed on             LinuxIFC date 2024.07.29  18:49:00
 running on    8 total cores
 distrk:  each k-point on    8 cores,    1 groups
 distr:  one band on NCORES_PER_BAND=   4 cores,    2 groups


--------------------------------------------------------------------------------------------------------


 INCAR:
 POTCAR:    PAW_PBE O 08Apr2002                   
 POTCAR:    PAW_PBE Mg 13Apr2007                  
 POTCAR:    PAW_PBE Al 04Jan2001                  
 POTCAR:    PAW_PBE O 08Apr2002                   
   VRHFIN =O: s2p4                                                              
   LEXCH  = PE                                                                  
   EATOM  =   432.3788 eV,   31.7789 Ry                                         
                                                                                
   TITEL  = PAW_PBE O 08Apr2002                                                 
   LULTRA =        F    use ultrasoft PP ?                                      
   IUNSCR =        1    unscreen: 0-lin 1-nonlin 2-no                           
   RPACOR =    1.200    partial core radius                                     
   POMASS =   16.000; ZVAL   =    6.000    mass and valenz                      
   RCORE  =    1.520    outmost cutoff radius                                   
   RWIGS  =    1.550; RWIGS  =    0.820    wigner-seitz radius (au A)           
   ENMAX  =  400.000; ENMIN  =  300.000 eV                                      
   ICORE  =        2    local potential                                         
   LCOR   =        T    correct aug charges                                     
   LPAW   =        T    paw PP                                                  
   EAUG   =  605.392                                                            
   DEXC   =    0.000                                                            
   RMAX   =    1.553    core radius for proj-oper                               
   RAUG   =    1.300    factor for augmentation sphere                          
   RDEP   =    1.550    radius for radial grids                                 
   RDEPT  =    1.329    core radius for aug-charge                              
                                                                                
   Atomic configuration                                                         
    4 entries                                                                   
     n  l   j            E        occ.                                          
     1  0  0.50      -514.6923   2.0000                                         
     2  0  0.50       -23.9615   2.0000                                         
     2  1  0.50        -9.0305   4.0000                                         
     3  2  1.50        -9.5241   0.0000                                         
   Description                                                                  
     l       E           TYP  RCUT    TYP  RCUT                                 
     0    -23.9615318     23  1.200                                             
     0     -9.5240782     23  1.200                                             
     1     -9.0304911     23  1.520                                             
     1      8.1634956     23  1.520                                             
     2     -9.5240782      7  1.500                                             
  local pseudopotential read in
  partial core-charges read in
  partial kinetic energy density read in
  kinetic energy density of atom read in
  atomic valenz-charges read in
  non local Contribution for L=           0  read in
    real space projection operators read in
  non local Contribution for L=           0  read in
    real space projection operators read in
  non local Contribution for L=           1  read in
    real space projection operators read in
  non local Contribution for L=           1  read in
    real space projection operators read in
    PAW grid and wavefunctions read in
 
   number of l-projection  operators is LMAX  =           4
   number of lm-projection operators is LMMAX =           8
 
 POTCAR:    PAW_PBE Mg 13Apr2007                  
   VRHFIN =Mg: s2p0                                                             
   LEXCH  = PE                                                                  
   EATOM  =    23.0369 eV,    1.6932 Ry                                         
                                                                                
   TITEL  = PAW_PBE Mg 13Apr2007                                                
   LULTRA =        F    use ultrasoft PP ?                                      
   IUNSCR =        1    unscreen: 0-lin 1-nonlin 2-no                           
   RPACOR =    1.500    partial core radius                                     
   POMASS =   24.305; ZVAL   =    2.000    mass and valenz                      
   RCORE  =    2.000    outmost cutoff radius                                   
   RWIGS  =    2.880; RWIGS  =    1.524    wigner-seitz radius (au A)           
   ENMAX  =  200.000; ENMIN  =  100.000 eV                                      
   RCLOC  =    1.506    cutoff for local pot                                    
   LCOR   =        T    correct aug charges                                     
   LPAW   =        T    paw PP                                                  
   EAUG   =  454.734                                                            
   DEXC   =    0.000                                                            
   RMAX   =    2.045    core radius for proj-oper                               
   RAUG   =    1.300    factor for augmentation sphere                          
   RDEP   =    2.025    radius for radial grids                                 
   RDEPT  =    1.942    core radius for aug-charge                              
                                                                                
   Atomic configuration                                                         
    6 entries                                                                   
     n  l   j            E        occ.                                          
     1  0  0.50     -1259.6230   2.0000                                         
     2  0  0.50       -79.8442   2.0000                                         
     2  1  1.50       -46.6121   6.0000                                         
     3  0  0.50        -4.7055   2.0000                                         
     3  1  0.50        -1.3660   0.0000                                         
     3  2  1.50        -1.3606   0.0000                                         
   Description                                                                  
     l       E           TYP  RCUT    TYP  RCUT                                 
     0     -4.7054661     23  2.000                                             
     0     27.2116520     23  2.000                                             
     1      1.3605826     23  2.000                                             
     1     27.2116520     23  2.000                                             
     2     -1.3605826     23  2.000                                             
  local pseudopotential read in
  partial core-charges read in
  partial kinetic energy density read in
  atomic valenz-charges read in
  non local Contribution for L=           0  read in
    real space projection operators read in
  non local Contribution for L=           0  read in
    real space projection operators read in
  non local Contribution for L=           1  read in
    real space projection operators read in
  non local Contribution for L=           1  read in
    real space projection operators read in
  non local Contribution for L=           2  read in
    real space projection operators read in
    PAW grid and wavefunctions read in
 
   number of l-projection  operators is LMAX  =           5
   number of lm-projection operators is LMMAX =          13
 
 POTCAR:    PAW_PBE Al 04Jan2001                  
   VRHFIN =Al: s2p1                                                             
   LEXCH  = PE                                                                  
   EATOM  =    53.5387 eV,    3.9350 Ry                                         
                                                                                
   TITEL  = PAW_PBE Al 04Jan2001                                                
   LULTRA =        F    use ultrasoft PP ?                                      
   IUNSCR =        1    unscreen: 0-lin 1-nonlin 2-no                           
   RPACOR =    1.500    partial core radius                                     
   POMASS =   26.981; ZVAL   =    3.000    mass and valenz                      
   RCORE  =    1.900    outmost cutoff radius                                   
   RWIGS  =    2.650; RWIGS  =    1.402    wigner-seitz radius (au A)           
   ENMAX  =  240.300; ENMIN  =  180.225 eV                                      
   ICORE  =        2    local potential                                         
   LCOR   =        T    correct aug charges                                     
   LPAW   =        T    paw PP                                                  
   EAUG   =  291.052                                                            
   DEXC   =    0.000                                                            
   RMAX   =    1.939    core radius for proj-oper                               
   RAUG   =    1.300    factor for augmentation sphere                          
   RDEP   =    1.966    radius for radial grids                                 
   RDEPT  =    1.856    core radius for aug-charge                              
                                                                                
   Atomic configuration                                                         
    6 entries                                                                   
     n  l   j            E        occ.                                          
     1  0  0.50     -1511.1048   2.0000                                         
     2  0  0.50      -108.1629   2.0000                                         
     2  1  1.50       -69.6402   6.0000                                         
     3  0  0.50        -7.7528   2.0000                                         
     3  1  1.50        -2.7121   1.0000                                         
     3  2  2.50        -2.7212   0.0000                                         
   Description                                                                  
     l       E           TYP  RCUT    TYP  RCUT                                 
     0     -7.7528455     23  1.900                                             
     0     -3.3096929     23  1.900                                             
     1     -2.7120682     23  1.900                                             
     1     13.6058260     23  1.900                                             
     2     -2.7211652      7  1.900                                             
  local pseudopotential read in
  partial core-charges read in
  partial kinetic energy density read in
  atomic valenz-charges read in
  non local Contribution for L=           0  read in
    real space projection operators read in
  non local Contribution for L=           0  read in
    real space projection operators read in
  non local Contribution for L=           1  read in
    real space projection operators read in
  non local Contribution for L=           1  read in
    real space projection operators read in
    PAW grid and wavefunctions read in
 
   number of l-projection  operators is LMAX  =           4
   number of lm-projection operators is LMMAX =           8
 

 ----------------------------------------------------------------------------- 
|                                                                             |
|  ADVICE TO THIS USER RUNNING 'VASP/VAMP'   (HEAR YOUR MASTER'S VOICE ...):  |
|                                                                             |
|      You have a (more or less) 'large supercell' and for larger cells       |
|      it might be more efficient to use real space projection opertators     |
|      So try LREAL= Auto  in the INCAR   file.                               |
|      Mind: At the moment your POTCAR file does not contain real space       |
|       projectors, and has to be modified,  BUT if you                       |
|      want to do an extremely  accurate calculation you might also keep the  |
|      reciprocal projection scheme          (i.e. LREAL=.FALSE.)             |
|                                                                             |
 ----------------------------------------------------------------------------- 

  PAW_PBE O 08Apr2002                   :
 energy of atom  1       EATOM= -432.3788
 kinetic energy error for atom=    0.0208 (will be added to EATOM!!)
  PAW_PBE Mg 13Apr2007                  :
 energy of atom  2       EATOM=  -23.0369
 kinetic energy error for atom=    0.0000 (will be added to EATOM!!)
  PAW_PBE Al 04Jan2001                  :
 energy of atom  3       EATOM=  -53.5387
 kinetic energy error for atom=    0.0002 (will be added to EATOM!!)
 
 
 POSCAR: Layer                                   
  positions in direct lattice
  velocities in cartesian coordinates
 exchange correlation table for  LEXCH =        8
   RHO(1)=    0.500       N(1)  =     2000
   RHO(2)=  100.500       N(2)  =     4000
 


--------------------------------------------------------------------------------------------------------


 ion  position               nearest neighbor table
   1  0.000  0.000  0.273-  14 2.14  14 2.14  14 2.14  18 2.17  18 2.17  18 2.17
   2  0.333  0.667  0.329-  14 2.14  14 2.14  14 2.14  11 2.14  11 2.14  11 2.14
   3  0.000  0.000  0.441-  19 2.14  19 2.14  19 2.14  15 2.14  15 2.14  15 2.14
   4  0.333  0.667  0.496-  12 2.14  12 2.14  12 2.14  15 2.14  15 2.14  15 2.14
   5  0.000  0.000  0.608-  16 2.14  16 2.14  16 2.14  20 2.14  20 2.14  20 2.14
   6  0.333  0.667  0.664-  13 2.14  13 2.14  13 2.14  16 2.14  16 2.14  16 2.14
   7  0.000  0.000  0.776-  21 2.14  21 2.14  21 2.14  17 2.17  17 2.17  17 2.17
   8  0.667  0.333  0.385-  11 2.14  11 2.14  11 2.14  19 2.14  19 2.14  19 2.14
   9  0.667  0.333  0.552-  12 2.14  12 2.14  12 2.14  20 2.14  20 2.14  20 2.14
  10  0.667  0.333  0.720-  21 2.14  21 2.14  21 2.14  13 2.14  13 2.14  13 2.14
  11  0.000  0.000  0.357-   8 2.14   8 2.14   8 2.14   2 2.14   2 2.14   2 2.14  14 3.07  14 3.07
                            14 3.07  19 3.07  19 3.07  19 3.07
  12  0.000  0.000  0.524-   4 2.14   4 2.14   4 2.14   9 2.14   9 2.14   9 2.14  15 3.07  15 3.07
                            15 3.07  20 3.07  20 3.07  20 3.07
  13  0.000  0.000  0.692-   6 2.14   6 2.14   6 2.14  10 2.14  10 2.14  10 2.14  21 3.07  21 3.07
                            21 3.07  16 3.07  16 3.07  16 3.07
  14  0.667  0.333  0.301-   2 2.14   2 2.14   2 2.14   1 2.14   1 2.14   1 2.14  11 3.07  11 3.07
                            11 3.07  18 3.10  18 3.10  18 3.10
  15  0.667  0.333  0.468-   4 2.14   4 2.14   4 2.14   3 2.14   3 2.14   3 2.14  12 3.07  12 3.07
                            12 3.07  19 3.07  19 3.07  19 3.07
  16  0.667  0.333  0.636-   5 2.14   5 2.14   5 2.14   6 2.14   6 2.14   6 2.14  13 3.07  13 3.07
                            13 3.07  20 3.07  20 3.07  20 3.07
  17  0.667  0.333  0.805-   7 2.17   7 2.17   7 2.17  21 3.10  21 3.10  21 3.10  26 3.15  26 3.15
                            26 3.15
  18  0.333  0.667  0.244-   1 2.17   1 2.17   1 2.17  14 3.10  14 3.10  14 3.10  23 3.15  23 3.15
                            23 3.15
  19  0.333  0.667  0.413-   3 2.14   3 2.14   3 2.14   8 2.14   8 2.14   8 2.14  11 3.07  11 3.07
                            11 3.07  15 3.07  15 3.07  15 3.07
  20  0.333  0.667  0.580-   9 2.14   9 2.14   9 2.14   5 2.14   5 2.14   5 2.14  12 3.07  12 3.07
                            12 3.07  16 3.07  16 3.07  16 3.07
  21  0.333  0.667  0.748-  10 2.14  10 2.14  10 2.14   7 2.14   7 2.14   7 2.14  13 3.07  13 3.07
                            13 3.07  17 3.10  17 3.10  17 3.10
  22  0.000  0.000  0.024-  25 2.96  25 2.96  25 2.96  27 2.96  27 2.96  27 2.96
  23  0.000  0.000  0.186-  24 3.04  24 3.04  24 3.04  18 3.15  18 3.15  18 3.15
  24  0.667  0.333  0.131-  25 2.98  25 2.98  25 2.98  23 3.04  23 3.04  23 3.04
  25  0.333  0.667  0.077-  22 2.96  22 2.96  22 2.96  24 2.98  24 2.98  24 2.98
  26  0.000  0.000  0.863-  28 3.04  28 3.04  28 3.04  17 3.15  17 3.15  17 3.15
  27  0.667  0.333  0.971-  22 2.96  22 2.96  22 2.96  28 2.98  28 2.98  28 2.98
  28  0.333  0.667  0.918-  27 2.98  27 2.98  27 2.98  26 3.04  26 3.04  26 3.04
 
  LATTYP: Found a hexagonal cell.
 ALAT       =     2.9932160299
 C/A-ratio  =    15.1724616894
  
  Lattice vectors:
  
 A1 = (   2.5922013181,  -1.4966076735,   0.0000000000)
 A2 = (   0.0000000000,   2.9932153469,   0.0000000000)
 A3 = (  -0.0000000000,   0.0000000000,  45.4144555426)


Analysis of symmetry for initial positions (statically):
=====================================================================
 Subroutine PRICEL returns:
 Original cell was already a primitive cell.
 

 Routine SETGRP: Setting up the symmetry group for a 
 hexagonal supercell.


 Subroutine GETGRP returns: Found  6 space group operations
 (whereof  6 operations were pure point group operations)
 out of a pool of 24 trial point group operations.


The static configuration has the point symmetry C_3v.


Analysis of symmetry for dynamics (positions and initial velocities):
=====================================================================
 Subroutine PRICEL returns:
 Original cell was already a primitive cell.
 

 Routine SETGRP: Setting up the symmetry group for a 
 hexagonal supercell.


 Subroutine GETGRP returns: Found  6 space group operations
 (whereof  6 operations were pure point group operations)
 out of a pool of 24 trial point group operations.


The dynamic configuration has the point symmetry C_3v.


Analysis of constrained symmetry for selective dynamics:
=====================================================================
 Subroutine PRICEL returns:
 Original cell was already a primitive cell.
 

 Routine SETGRP: Setting up the symmetry group for a 
 hexagonal supercell.


 Subroutine GETGRP returns: Found  6 space group operations
 (whereof  6 operations were pure point group operations)
 out of a pool of 24 trial point group operations.


The constrained configuration has the point symmetry C_3v.
 
 
 KPOINTS: K-Spacing Value to Generate K-Mesh: 0.02

Automatic generation of k-mesh.
Space group operators:
 irot       det(A)        alpha          n_x          n_y          n_z        tau_x        tau_y        tau_z
    1     1.000000     0.000000     1.000000     0.000000     0.000000     0.000000     0.000000     0.000000
    2     1.000000   120.000000     0.000000     0.000000    -1.000000     0.000000     0.000000     0.000000
    3     1.000000   120.000000    -0.000000     0.000000     1.000000     0.000000     0.000000     0.000000
    4    -1.000000   180.000000    -0.866025     0.500000    -0.000000     0.000000     0.000000     0.000000
    5    -1.000000   180.000000     0.000000     1.000000     0.000000     0.000000     0.000000     0.000000
    6    -1.000000   180.000000    -0.866025    -0.500000    -0.000000     0.000000     0.000000     0.000000
 
 Subroutine IBZKPT returns following result:
 ===========================================
 
 Found     21 irreducible k-points:
 
 Following reciprocal coordinates:
            Coordinates               Weight
  0.000000  0.000000  0.000000      1.000000
  0.076923  0.000000 -0.000000      6.000000
  0.153846  0.000000 -0.000000      6.000000
  0.230769  0.000000  0.000000      6.000000
  0.307692  0.000000 -0.000000      6.000000
  0.384615  0.000000  0.000000      6.000000
  0.461538  0.000000  0.000000      6.000000
  0.076923  0.076923 -0.000000      6.000000
  0.153846  0.076923  0.000000     12.000000
  0.230769  0.076923 -0.000000     12.000000
  0.307692  0.076923 -0.000000     12.000000
  0.384615  0.076923 -0.000000     12.000000
  0.461538  0.076923 -0.000000      6.000000
  0.153846  0.153846 -0.000000      6.000000
  0.230769  0.153846 -0.000000     12.000000
  0.307692  0.153846 -0.000000     12.000000
  0.384615  0.153846  0.000000     12.000000
  0.230769  0.230769  0.000000      6.000000
  0.307692  0.230769 -0.000000     12.000000
  0.384615  0.230769 -0.000000      6.000000
  0.307692  0.307692 -0.000000      6.000000
 
 Following cartesian coordinates:
            Coordinates               Weight
  0.000000  0.000000  0.000000      1.000000
  0.029675  0.000000  0.000000      6.000000
  0.059350  0.000000  0.000000      6.000000
  0.089024  0.000000  0.000000      6.000000
  0.118699  0.000000  0.000000      6.000000
  0.148374  0.000000  0.000000      6.000000
  0.178049  0.000000  0.000000      6.000000
  0.044512  0.025699  0.000000      6.000000
  0.074187  0.025699  0.000000     12.000000
  0.103862  0.025699  0.000000     12.000000
  0.133537  0.025699  0.000000     12.000000
  0.163211  0.025699  0.000000     12.000000
  0.192886  0.025699  0.000000      6.000000
  0.089024  0.051398  0.000000      6.000000
  0.118699  0.051398  0.000000     12.000000
  0.148374  0.051398  0.000000     12.000000
  0.178049  0.051398  0.000000     12.000000
  0.133537  0.077097  0.000000      6.000000
  0.163211  0.077097  0.000000     12.000000
  0.192886  0.077097  0.000000      6.000000
  0.178049  0.102797  0.000000      6.000000
 


--------------------------------------------------------------------------------------------------------




 Dimension of arrays:
   k-points           NKPTS =     21   k-points in BZ     NKDIM =     21   number of bands    NBANDS=     66
   number of dos      NEDOS =    301   number of ions     NIONS =     28
   non local maximal  LDIM  =      5   non local SUM 2l+1 LMDIM =     13
   total plane-waves  NPLWV = 201600
   max r-space proj   IRMAX =      1   max aug-charges    IRDMAX= 194607
   dimension x,y,z NGX =    24 NGY =   24 NGZ =  350
   dimension x,y,z NGXF=    48 NGYF=   48 NGZF=  700
   support grid    NGXF=    96 NGYF=   96 NGZF= 1400
   ions per type =              10  11   7
 NGX,Y,Z   is equivalent  to a cutoff of  13.33, 13.33, 12.81 a.u.
 NGXF,Y,Z  is equivalent  to a cutoff of  26.66, 26.66, 25.62 a.u.


 I would recommend the setting:
   dimension x,y,z NGX =    22 NGY =   22 NGZ =  338
 SYSTEM =  unknown system                          
 POSCAR =  Layer                                   

 Startparameter for this run:
   NWRITE =      2    write-flag & timer
   PREC   = accura    normal or accurate (medium, high low for compatibility)
   ISTART =      0    job   : 0-new  1-cont  2-samecut
   ICHARG =      2    charge: 1-file 2-atom 10-const
   ISPIN  =      1    spin polarized calculation?
   LNONCOLLINEAR =      F non collinear calculations
   LSORBIT =      F    spin-orbit coupling
   INIWAV =      1    electr: 0-lowe 1-rand  2-diag
   LASPH  =      F    aspherical Exc in radial PAW
   METAGGA=      F    non-selfconsistent MetaGGA calc.

 Electronic Relaxation 1
   ENCUT  =  520.0 eV  38.22 Ry    6.18 a.u.   5.57  5.57 84.44*2*pi/ulx,y,z
   ENINI  =  520.0     initial cutoff
   ENAUG  =  605.4 eV  augmentation charge cutoff
   NELM   =    100;   NELMIN=  6; NELMDL=  0     # of ELM steps 
   EDIFF  = 0.1E-04   stopping-criterion for ELM
   LREAL  =      F    real-space projection
   NLSPLINE    = F    spline interpolate recip. space projectors
   LCOMPAT=      F    compatible to vasp.4.4
   GGA_COMPAT  = T    GGA compatible to vasp.4.4-vasp.4.6
   LMAXPAW     = -100 max onsite density
   LMAXMIX     =    2 max onsite mixed and CHGCAR
   VOSKOWN=      0    Vosko Wilk Nusair interpolation
   ROPT   =    0.00000   0.00000   0.00000
 Ionic relaxation
   EDIFFG = -.2E-01   stopping-criterion for IOM
   NSW    =    500    number of steps for IOM
   NBLOCK =      1;   KBLOCK =    500    inner block; outer block 
   IBRION =      2    ionic relax: 0-MD 1-quasi-New 2-CG
   NFREE  =      1    steps in history (QN), initial steepest desc. (CG)
   ISIF   =      2    stress and relaxation
   IWAVPR =     11    prediction:  0-non 1-charg 2-wave 3-comb
   ISYM   =      2    0-nonsym 1-usesym 2-fastsym
   LCORR  =      T    Harris-Foulkes like correction to forces

   POTIM  = 0.5000    time-step for ionic-motion
   TEIN   =    0.0    initial temperature
   TEBEG  =    0.0;   TEEND  =   0.0 temperature during run
   SMASS  =  -3.00    Nose mass-parameter (am)
   estimated Nose-frequenzy (Omega)   =  0.10E-29 period in steps =****** mass=  -0.205E-27a.u.
   SCALEE = 1.0000    scale energy and forces
   NPACO  =    256;   APACO  = 16.0  distance and # of slots for P.C.
   PSTRESS=    0.0 pullay stress

  Mass of Ions in am
   POMASS =  16.00 24.30 26.98
  Ionic Valenz
   ZVAL   =   6.00  2.00  3.00
  Atomic Wigner-Seitz radii
   RWIGS  =  -1.00 -1.00 -1.00
  virtual crystal weights 
   VCA    =   1.00  1.00  1.00
   NELECT =     103.0000    total number of electrons
   NUPDOWN=      -1.0000    fix difference up-down

 DOS related values:
   EMIN   =  10.00;   EMAX   =-10.00  energy-range for DOS
   EFERMI =   0.00
   ISMEAR =     0;   SIGMA  =   0.05  broadening in eV -4-tet -1-fermi 0-gaus

 Electronic relaxation 2 (details)
   IALGO  =     38    algorithm
   LDIAG  =      T    sub-space diagonalisation (order eigenvalues)
   LSUBROT=      F    optimize rotation matrix (better conditioning)
   TURBO    =      0    0=normal 1=particle mesh
   IRESTART =      0    0=no restart 2=restart with 2 vectors
   NREBOOT  =      0    no. of reboots
   NMIN     =      0    reboot dimension
   EREF     =   0.00    reference energy to select bands
   IMIX   =      4    mixing-type and parameters
     AMIX     =   0.40;   BMIX     =  1.00
     AMIX_MAG =   1.60;   BMIX_MAG =  1.00
     AMIN     =   0.01
     WC   =   100.;   INIMIX=   1;  MIXPRE=   1;  MAXMIX= -45

 Intra band minimization:
   WEIMIN = 0.0010     energy-eigenvalue tresh-hold
   EBREAK =  0.38E-07  absolut break condition
   DEPER  =   0.30     relativ break condition  

   TIME   =   0.40     timestep for ELM

  volume/ion in A,a.u.               =      12.58        84.93
  Fermi-wavevector in a.u.,A,eV,Ry     =   1.086476  2.053143 16.060739  1.180431
  Thomas-Fermi vector in A             =   2.222614
 
 Write flags
   LWAVE  =      F    write WAVECAR
   LCHARG =      T    write CHGCAR
   LVTOT  =      F    write LOCPOT, total local potential
   LVHAR  =      F    write LOCPOT, Hartree potential only
   LELF   =      F    write electronic localiz. function (ELF)
   LORBIT =      0    0 simple, 1 ext, 2 COOP (PROOUT)


 Dipole corrections
   LMONO  =      F    monopole corrections only (constant potential shift)
   LDIPOL =      F    correct potential (dipole corrections)
   IDIPOL =      0    1-x, 2-y, 3-z, 4-all directions 
   EPSILON=  1.0000000 bulk dielectric constant

 Exchange correlation treatment:
   GGA     =    --    GGA type
   LEXCH   =     8    internal setting for exchange type
   VOSKOWN=      0    Vosko Wilk Nusair interpolation
   LHFCALC =     F    Hartree Fock is set to
   LHFONE  =     F    Hartree Fock one center treatment
   AEXX    =    0.0000 exact exchange contribution

 Linear response parameters
   LEPSILON=     F    determine dielectric tensor
   LRPA    =     F    only Hartree local field effects (RPA)
   LNABLA  =     F    use nabla operator in PAW spheres
   LVEL    =     F    velocity operator in full k-point grid
   LINTERFAST=   F  fast interpolation
   KINTER  =     0    interpolate to denser k-point grid
   CSHIFT  =0.1000    complex shift for real part using Kramers Kronig
   OMEGAMAX=  -1.0    maximum frequency
   DEG_THRESHOLD= 0.2000000E-02 threshold for treating states as degnerate
   RTIME   =    0.100 relaxation time in fs

 Orbital magnetization related:
   ORBITALMAG=     F  switch on orbital magnetization
   LCHIMAG   =     F  perturbation theory with respect to B field
   DQ        =  0.001000  dq finite difference perturbation B field



--------------------------------------------------------------------------------------------------------


 conjugate gradient relaxation of ions
   using selective dynamics as specified on POSCAR
 charge density and potential will be updated during run
 non-spin polarized calculation
 Variant of blocked Davidson
 Davidson routine will perform the subspace rotation
 perform sub-space diagonalisation
    after iterative eigenvector-optimisation
 modified Broyden-mixing scheme, WC =      100.0
 initial mixing is a Kerker type mixing with AMIX =  0.4000 and BMIX =      1.0000
 Hartree-type preconditioning will be used
 using additional bands           14
 reciprocal scheme for non local part
 use partial core corrections
 calculate Harris-corrections to forces 
   (improved forces if not selfconsistent)
 use gradient corrections 
 use of overlap-Matrix (Vanderbilt PP)
 Gauss-broadening in eV      SIGMA  =   0.05


--------------------------------------------------------------------------------------------------------


  energy-cutoff  :      520.00
  volume of cell :      352.37
      direct lattice vectors                 reciprocal lattice vectors
     2.592201318 -1.496607673  0.000000000     0.385772507  0.000000000  0.000000000
     0.000000000  2.993215347  0.000000000     0.192886253  0.334088892  0.000000000
    -0.000000000  0.000000000 45.414455543     0.000000000  0.000000000  0.022019421

  length of vectors
     2.993216030  2.993215347 45.414455543     0.385772507  0.385772595  0.022019421


 
 k-points in units of 2pi/SCALE and weight: K-Spacing Value to Generate K-Mesh: 0.02
   0.00000000  0.00000000  0.00000000       0.006
   0.02967481  0.00000000  0.00000000       0.036
   0.05934962  0.00000000  0.00000000       0.036
   0.08902442  0.00000000  0.00000000       0.036
   0.11869923  0.00000000  0.00000000       0.036
   0.14837404  0.00000000  0.00000000       0.036
   0.17804885  0.00000000  0.00000000       0.036
   0.04451221  0.02569915  0.00000000       0.036
   0.07418702  0.02569915  0.00000000       0.071
   0.10386183  0.02569915  0.00000000       0.071
   0.13353664  0.02569915  0.00000000       0.071
   0.16321145  0.02569915  0.00000000       0.071
   0.19288625  0.02569915  0.00000000       0.036
   0.08902442  0.05139829  0.00000000       0.036
   0.11869923  0.05139829  0.00000000       0.071
   0.14837404  0.05139829  0.00000000       0.071
   0.17804885  0.05139829  0.00000000       0.071
   0.13353664  0.07709744  0.00000000       0.036
   0.16321145  0.07709744  0.00000000       0.071
   0.19288625  0.07709744  0.00000000       0.036
   0.17804885  0.10279658  0.00000000       0.036
 
 k-points in reciprocal lattice and weights: K-Spacing Value to Generate K-Mesh: 0.02
   0.00000000  0.00000000  0.00000000       0.006
   0.07692308  0.00000000 -0.00000000       0.036
   0.15384615  0.00000000 -0.00000000       0.036
   0.23076923  0.00000000  0.00000000       0.036
   0.30769231  0.00000000 -0.00000000       0.036
   0.38461538  0.00000000  0.00000000       0.036
   0.46153846  0.00000000  0.00000000       0.036
   0.07692308  0.07692308 -0.00000000       0.036
   0.15384615  0.07692308  0.00000000       0.071
   0.23076923  0.07692308 -0.00000000       0.071
   0.30769231  0.07692308 -0.00000000       0.071
   0.38461538  0.07692308 -0.00000000       0.071
   0.46153846  0.07692308 -0.00000000       0.036
   0.15384615  0.15384615 -0.00000000       0.036
   0.23076923  0.15384615 -0.00000000       0.071
   0.30769231  0.15384615 -0.00000000       0.071
   0.38461538  0.15384615  0.00000000       0.071
   0.23076923  0.23076923  0.00000000       0.036
   0.30769231  0.23076923 -0.00000000       0.071
   0.38461538  0.23076923 -0.00000000       0.036
   0.30769231  0.30769231 -0.00000000       0.036
 
 position of ions in fractional coordinates (direct lattice) 
   0.00000000  0.00000000  0.27294801
   0.33333300  0.66666700  0.32877804
   0.00000000  0.00000000  0.44051825
   0.33333300  0.66666700  0.49641210
   0.00000000  0.00000000  0.60812924
   0.33333300  0.66666700  0.66399134
   0.00000000  0.00000000  0.77568561
   0.66666700  0.33333300  0.38465116
   0.66666700  0.33333300  0.55224002
   0.66666700  0.33333300  0.71985742
   0.00000000  0.00000000  0.35673075
   0.00000000  0.00000000  0.52432523
   0.00000000  0.00000000  0.69190860
   0.66666700  0.33333300  0.30087059
   0.66666700  0.33333300  0.46847204
   0.66666700  0.33333300  0.63605043
   0.66666700  0.33333300  0.80456306
   0.33333300  0.66666700  0.24406895
   0.33333300  0.66666700  0.41259696
   0.33333300  0.66666700  0.58017885
   0.33333300  0.66666700  0.74776448
   0.00000000  0.00000000  0.02431955
   0.00000000  0.00000000  0.18597829
   0.66666700  0.33333300  0.13085146
   0.33333300  0.66666700  0.07726183
   0.00000000  0.00000000  0.86265579
   0.66666700  0.33333300  0.97137707
   0.33333300  0.66666700  0.91778586
 
 position of ions in cartesian coordinates  (Angst):
  -0.00000000  0.00000000 12.39578528
   0.86406624  1.49660917 14.93127554
  -0.00000000  0.00000000 20.00589671
   0.86406624  1.49660917 22.54428534
  -0.00000000  0.00000000 27.61785847
   0.86406624  1.49660917 30.15480517
  -0.00000000  0.00000000 35.22733985
   1.72813508 -0.00000150 17.46872314
   1.72813508 -0.00000150 25.07968005
   1.72813508 -0.00000150 32.69193295
  -0.00000000  0.00000000 16.20073288
  -0.00000000  0.00000000 23.81194490
  -0.00000000  0.00000000 31.42265249
   1.72813508 -0.00000150 13.66387393
   1.72813508 -0.00000150 21.27540265
   1.72813508 -0.00000150 28.88588392
   1.72813508 -0.00000150 36.53879326
   0.86406624  1.49660917 11.08425857
   0.86406624  1.49660917 18.73786629
   0.86406624  1.49660917 26.34850654
   0.86406624  1.49660917 33.95931667
  -0.00000000  0.00000000  1.10445920
  -0.00000000  0.00000000  8.44610267
   1.72813508 -0.00000150  5.94254780
   0.86406624  1.49660917  3.50880381
  -0.00000000  0.00000000 39.17704301
   1.72813508 -0.00000150 44.11456068
   0.86406624  1.49660917 41.68074526
 


--------------------------------------------------------------------------------------------------------


 k-point  1 :   0.0000 0.0000 0.0000  plane waves:    9649
 k-point  2 :   0.0769 0.0000-0.0000  plane waves:    9613
 k-point  3 :   0.1538 0.0000-0.0000  plane waves:    9573
 k-point  4 :   0.2308 0.0000 0.0000  plane waves:    9536
 k-point  5 :   0.3077 0.0000-0.0000  plane waves:    9480
 k-point  6 :   0.3846 0.0000 0.0000  plane waves:    9430
 k-point  7 :   0.4615 0.0000 0.0000  plane waves:    9446
 k-point  8 :   0.0769 0.0769-0.0000  plane waves:    9595
 k-point  9 :   0.1538 0.0769 0.0000  plane waves:    9564
 k-point 10 :   0.2308 0.0769-0.0000  plane waves:    9519
 k-point 11 :   0.3077 0.0769-0.0000  plane waves:    9482
 k-point 12 :   0.3846 0.0769-0.0000  plane waves:    9438
 k-point 13 :   0.4615 0.0769-0.0000  plane waves:    9398
 k-point 14 :   0.1538 0.1538-0.0000  plane waves:    9517
 k-point 15 :   0.2308 0.1538-0.0000  plane waves:    9488
 k-point 16 :   0.3077 0.1538-0.0000  plane waves:    9472
 k-point 17 :   0.3846 0.1538 0.0000  plane waves:    9432
 k-point 18 :   0.2308 0.2308 0.0000  plane waves:    9482
 k-point 19 :   0.3077 0.2308-0.0000  plane waves:    9437
 k-point 20 :   0.3846 0.2308-0.0000  plane waves:    9470
 k-point 21 :   0.3077 0.3077-0.0000  plane waves:    9474

 maximum and minimum number of plane-waves per node :      2419     2346

 maximum number of plane-waves:      9649
 maximum index in each direction: 
   IXMAX=    5   IYMAX=    5   IZMAX=   84
   IXMIN=   -6   IYMIN=   -5   IZMIN=  -84

 NGX is ok and might be reduce to  24
 NGY is ok and might be reduce to  22
 NGZ is ok and might be reduce to 338

 parallel 3D FFT for wavefunctions:
    minimum data exchange during FFTs selected (reduces bandwidth)
 parallel 3D FFT for charge:
    minimum data exchange during FFTs selected (reduces bandwidth)


 total amount of memory used by VASP on root node   158949. kBytes
========================================================================

   base      :      30000. kBytes
   nonl-proj :      16856. kBytes
   fftplans  :      60347. kBytes
   grid      :      24192. kBytes
   one-center:         56. kBytes
   wavefun   :      27498. kBytes
 
     INWAV:  cpu time    0.00: real time    0.00
 Broyden mixing: mesh for mixing (old mesh)
   NGX = 11   NGY = 11   NGZ =169
  (NGX  = 48   NGY  = 48   NGZ  =700)
  gives a total of  20449 points

 initial charge density was supplied:
 charge density of overlapping atoms calculated
 number of electron     103.0000000 magnetization 
 keeping initial charge density in first step


--------------------------------------------------------------------------------------------------------


 Maximum index for augmentation-charges        23434 (set IRDMAX)


--------------------------------------------------------------------------------------------------------


 First call to EWALD:  gamma=   0.251
 Maximum number of real-space cells 7x 7x 1
 Maximum number of reciprocal cells 1x 1x15

 FEWALD executed in parallel
    FEWALD:  cpu time    0.00: real time    0.00


----------------------------------------- Iteration    1(   1)  ---------------------------------------


    POTLOK:  cpu time    0.12: real time    0.12
    SETDIJ:  cpu time    0.12: real time    0.12
     EDDAV:  cpu time    5.11: real time    5.14
       DOS:  cpu time    0.00: real time    0.00
    --------------------------------------------
      LOOP:  cpu time    5.36: real time    5.38

 eigenvalue-minimisations  :  2780
 total energy-change (2. order) : 0.5223901E+03  (-0.4541929E+04)
 number of electron     103.0000000 magnetization 
 augmentation part      103.0000000 magnetization 

 Free energy of the ion-electron system (eV)
  ---------------------------------------------------
  alpha Z        PSCENC =       137.75900145
  Ewald energy   TEWEN  =     17410.40716221
  -Hartree energ DENC   =    -22631.71164736
  -exchange      EXHF   =         0.00000000
  -V(xc)+E(xc)   XCENC  =      -440.40083814
  PAW double counting   =      4647.26951674    -3871.08436696
  entropy T*S    EENTRO =        -0.00476705
  eigenvalues    EBANDS =       318.40143618
  atomic energy  EATOM  =      4951.75456612
  ---------------------------------------------------
  free energy    TOTEN  =       522.39006319 eV

  energy without entropy =      522.39483023  energy(sigma->0) =      522.39244671


--------------------------------------------------------------------------------------------------------




----------------------------------------- Iteration    1(   2)  ---------------------------------------


     EDDAV:  cpu time    6.11: real time    6.12
       DOS:  cpu time    0.00: real time    0.00
    --------------------------------------------
      LOOP:  cpu time    6.12: real time    6.12

 eigenvalue-minimisations  :  3576
 total energy-change (2. order) :-0.6234872E+03  (-0.5936199E+03)
 number of electron     103.0000000 magnetization 
 augmentation part      103.0000000 magnetization 

 Free energy of the ion-electron system (eV)
  ---------------------------------------------------
  alpha Z        PSCENC =       137.75900145
  Ewald energy   TEWEN  =     17410.40716221
  -Hartree energ DENC   =    -22631.71164736
  -exchange      EXHF   =         0.00000000
  -V(xc)+E(xc)   XCENC  =      -440.40083814
  PAW double counting   =      4647.26951674    -3871.08436696
  entropy T*S    EENTRO =        -0.00873171
  eigenvalues    EBANDS =      -305.08177111
  atomic energy  EATOM  =      4951.75456612
  ---------------------------------------------------
  free energy    TOTEN  =      -101.09710877 eV

  energy without entropy =     -101.08837706  energy(sigma->0) =     -101.09274291


--------------------------------------------------------------------------------------------------------




----------------------------------------- Iteration    1(   3)  ---------------------------------------


     EDDAV:  cpu time    5.66: real time    5.67
       DOS:  cpu time    0.00: real time    0.00
    --------------------------------------------
      LOOP:  cpu time    5.67: real time    5.67

 eigenvalue-minimisations  :  3256
 total energy-change (2. order) :-0.5960801E+02  (-0.5930634E+02)
 number of electron     103.0000000 magnetization 
 augmentation part      103.0000000 magnetization 

 Free energy of the ion-electron system (eV)
  ---------------------------------------------------
  alpha Z        PSCENC =       137.75900145
  Ewald energy   TEWEN  =     17410.40716221
  -Hartree energ DENC   =    -22631.71164736
  -exchange      EXHF   =         0.00000000
  -V(xc)+E(xc)   XCENC  =      -440.40083814
  PAW double counting   =      4647.26951674    -3871.08436696
  entropy T*S    EENTRO =        -0.00323629
  eigenvalues    EBANDS =      -364.69527272
  atomic energy  EATOM  =      4951.75456612
  ---------------------------------------------------
  free energy    TOTEN  =      -160.70511496 eV

  energy without entropy =     -160.70187867  energy(sigma->0) =     -160.70349681


--------------------------------------------------------------------------------------------------------




----------------------------------------- Iteration    1(   4)  ---------------------------------------


     EDDAV:  cpu time    5.59: real time    5.59
       DOS:  cpu time    0.00: real time    0.00
    --------------------------------------------
      LOOP:  cpu time    5.59: real time    5.60

 eigenvalue-minimisations  :  3192
 total energy-change (2. order) :-0.7684144E+00  (-0.7673992E+00)
 number of electron     103.0000000 magnetization 
 augmentation part      103.0000000 magnetization 

 Free energy of the ion-electron system (eV)
  ---------------------------------------------------
  alpha Z        PSCENC =       137.75900145
  Ewald energy   TEWEN  =     17410.40716221
  -Hartree energ DENC   =    -22631.71164736
  -exchange      EXHF   =         0.00000000
  -V(xc)+E(xc)   XCENC  =      -440.40083814
  PAW double counting   =      4647.26951674    -3871.08436696
  entropy T*S    EENTRO =        -0.00303542
  eigenvalues    EBANDS =      -365.46388794
  atomic energy  EATOM  =      4951.75456612
  ---------------------------------------------------
  free energy    TOTEN  =      -161.47352931 eV

  energy without entropy =     -161.47049389  energy(sigma->0) =     -161.47201160


--------------------------------------------------------------------------------------------------------




----------------------------------------- Iteration    1(   5)  ---------------------------------------


     EDDAV:  cpu time    5.83: real time    5.84
       DOS:  cpu time    0.00: real time    0.00
    CHARGE:  cpu time    0.45: real time    0.45
    MIXING:  cpu time    0.01: real time    0.01
    --------------------------------------------
      LOOP:  cpu time    6.29: real time    6.29

 eigenvalue-minimisations  :  3360
 total energy-change (2. order) :-0.1204990E-01  (-0.1204389E-01)
 number of electron     103.0000001 magnetization 
 augmentation part        7.7158179 magnetization 

 Broyden mixing:
  rms(total) = 0.23059E+01    rms(broyden)= 0.23054E+01
  rms(prec ) = 0.23573E+01
  weight for this iteration     100.00

 Free energy of the ion-electron system (eV)
  ---------------------------------------------------
  alpha Z        PSCENC =       137.75900145
  Ewald energy   TEWEN  =     17410.40716221
  -Hartree energ DENC   =    -22631.71164736
  -exchange      EXHF   =         0.00000000
  -V(xc)+E(xc)   XCENC  =      -440.40083814
  PAW double counting   =      4647.26951674    -3871.08436696
  entropy T*S    EENTRO =        -0.00304076
  eigenvalues    EBANDS =      -365.47593250
  atomic energy  EATOM  =      4951.75456612
  ---------------------------------------------------
  free energy    TOTEN  =      -161.48557921 eV

  energy without entropy =     -161.48253845  energy(sigma->0) =     -161.48405883


--------------------------------------------------------------------------------------------------------




----------------------------------------- Iteration    1(   6)  ---------------------------------------


    POTLOK:  cpu time    0.11: real time    0.11
    SETDIJ:  cpu time    0.11: real time    0.11
     EDDAV:  cpu time    5.53: real time    5.53
       DOS:  cpu time    0.00: real time    0.00
    CHARGE:  cpu time    0.44: real time    0.44
    MIXING:  cpu time    0.01: real time    0.01
    --------------------------------------------
      LOOP:  cpu time    6.21: real time    6.21

 eigenvalue-minimisations  :  3120
 total energy-change (2. order) : 0.1605118E+02  (-0.9359702E+01)
 number of electron     103.0000001 magnetization 
 augmentation part        6.2312216 magnetization 

 Broyden mixing:
  rms(total) = 0.78421E+00    rms(broyden)= 0.78329E+00
  rms(prec ) = 0.79043E+00
  weight for this iteration     100.00

 eigenvalues of (default mixing * dielectric matrix)
  average eigenvalue GAMMA=   0.8374
  0.8374

 Free energy of the ion-electron system (eV)
  ---------------------------------------------------
  alpha Z        PSCENC =       137.75900145
  Ewald energy   TEWEN  =     17410.40716221
  -Hartree energ DENC   =    -22823.17438426
  -exchange      EXHF   =         0.00000000
  -V(xc)+E(xc)   XCENC  =      -426.90752622
  PAW double counting   =      5485.84562565    -4713.10908835
  entropy T*S    EENTRO =        -0.00493889
  eigenvalues    EBANDS =      -168.00481196
  atomic energy  EATOM  =      4951.75456612
  ---------------------------------------------------
  free energy    TOTEN  =      -145.43439426 eV

  energy without entropy =     -145.42945537  energy(sigma->0) =     -145.43192482


--------------------------------------------------------------------------------------------------------




----------------------------------------- Iteration    1(   7)  ---------------------------------------


    POTLOK:  cpu time    0.11: real time    0.11
    SETDIJ:  cpu time    0.11: real time    0.11
     EDDAV:  cpu time    5.43: real time    5.43
       DOS:  cpu time    0.00: real time    0.00
    CHARGE:  cpu time    0.44: real time    0.44
    MIXING:  cpu time    0.01: real time    0.01
    --------------------------------------------
      LOOP:  cpu time    6.10: real time    6.11

 eigenvalue-minimisations  :  3074
 total energy-change (2. order) : 0.1244599E+00  (-0.1987961E+00)
 number of electron     103.0000001 magnetization 
 augmentation part        6.2765711 magnetization 

 Broyden mixing:
  rms(total) = 0.47763E+00    rms(broyden)= 0.47762E+00
  rms(prec ) = 0.48219E+00
  weight for this iteration     100.00

 eigenvalues of (default mixing * dielectric matrix)
  average eigenvalue GAMMA=   1.6383
  0.9738  2.3028

 Free energy of the ion-electron system (eV)
  ---------------------------------------------------
  alpha Z        PSCENC =       137.75900145
  Ewald energy   TEWEN  =     17410.40716221
  -Hartree energ DENC   =    -22820.67721467
  -exchange      EXHF   =         0.00000000
  -V(xc)+E(xc)   XCENC  =      -426.56952822
  PAW double counting   =      5769.97636854    -4996.74825698
  entropy T*S    EENTRO =        -0.00259852
  eigenvalues    EBANDS =      -171.20943430
  atomic energy  EATOM  =      4951.75456612
  ---------------------------------------------------
  free energy    TOTEN  =      -145.30993439 eV

  energy without entropy =     -145.30733587  energy(sigma->0) =     -145.30863513


--------------------------------------------------------------------------------------------------------




----------------------------------------- Iteration    1(   8)  ---------------------------------------


    POTLOK:  cpu time    0.11: real time    0.11
    SETDIJ:  cpu time    0.12: real time    0.12
     EDDAV:  cpu time    5.56: real time    5.56
       DOS:  cpu time    0.00: real time    0.00
    CHARGE:  cpu time    0.45: real time    0.45
    MIXING:  cpu time    0.01: real time    0.01
    --------------------------------------------
      LOOP:  cpu time    6.24: real time    6.25

 eigenvalue-minimisations  :  3162
 total energy-change (2. order) : 0.1076856E+00  (-0.6038662E-01)
 number of electron     103.0000001 magnetization 
 augmentation part        6.3327705 magnetization 

 Broyden mixing:
  rms(total) = 0.84242E-01    rms(broyden)= 0.84191E-01
  rms(prec ) = 0.96239E-01
  weight for this iteration     100.00

 eigenvalues of (default mixing * dielectric matrix)
  average eigenvalue GAMMA=   1.3829
  2.4342  0.8932  0.8213

 Free energy of the ion-electron system (eV)
  ---------------------------------------------------
  alpha Z        PSCENC =       137.75900145
  Ewald energy   TEWEN  =     17410.40716221
  -Hartree energ DENC   =    -22826.11012292
  -exchange      EXHF   =         0.00000000
  -V(xc)+E(xc)   XCENC  =      -425.05827651
  PAW double counting   =      6261.24426007    -5487.64469729
  entropy T*S    EENTRO =        -0.00289763
  eigenvalues    EBANDS =      -167.55124429
  atomic energy  EATOM  =      4951.75456612
  ---------------------------------------------------
  free energy    TOTEN  =      -145.20224880 eV

  energy without entropy =     -145.19935117  energy(sigma->0) =     -145.20079999


--------------------------------------------------------------------------------------------------------




----------------------------------------- Iteration    1(   9)  ---------------------------------------


    POTLOK:  cpu time    0.12: real time    0.12
    SETDIJ:  cpu time    0.14: real time    0.14
     EDDAV:  cpu time    5.43: real time    5.43
       DOS:  cpu time    0.00: real time    0.00
    CHARGE:  cpu time    0.44: real time    0.44
    MIXING:  cpu time    0.01: real time    0.01
    --------------------------------------------
      LOOP:  cpu time    6.13: real time    6.14

 eigenvalue-minimisations  :  3058
 total energy-change (2. order) : 0.2045215E-01  (-0.1392394E-01)
 number of electron     103.0000001 magnetization 
 augmentation part        6.3105333 magnetization 

 Broyden mixing:
  rms(total) = 0.50986E-01    rms(broyden)= 0.50984E-01
  rms(prec ) = 0.51943E-01
  weight for this iteration     100.00

 eigenvalues of (default mixing * dielectric matrix)
  average eigenvalue GAMMA=   1.3746
  2.4532  1.0148  1.0148  1.0155

 Free energy of the ion-electron system (eV)
  ---------------------------------------------------
  alpha Z        PSCENC =       137.75900145
  Ewald energy   TEWEN  =     17410.40716221
  -Hartree energ DENC   =    -22830.39353645
  -exchange      EXHF   =         0.00000000
  -V(xc)+E(xc)   XCENC  =      -424.66545356
  PAW double counting   =      6283.98671957    -5510.43631320
  entropy T*S    EENTRO =        -0.00279836
  eigenvalues    EBANDS =      -163.59114442
  atomic energy  EATOM  =      4951.75456612
  ---------------------------------------------------
  free energy    TOTEN  =      -145.18179666 eV

  energy without entropy =     -145.17899829  energy(sigma->0) =     -145.18039748


--------------------------------------------------------------------------------------------------------




----------------------------------------- Iteration    1(  10)  ---------------------------------------


    POTLOK:  cpu time    0.11: real time    0.11
    SETDIJ:  cpu time    0.11: real time    0.11
     EDDAV:  cpu time    5.42: real time    5.42
       DOS:  cpu time    0.00: real time    0.00
    CHARGE:  cpu time    0.45: real time    0.45
    MIXING:  cpu time    0.01: real time    0.01
    --------------------------------------------
      LOOP:  cpu time    6.10: real time    6.10

 eigenvalue-minimisations  :  3126
 total energy-change (2. order) : 0.1193057E-02  (-0.3598012E-02)
 number of electron     103.0000001 magnetization 
 augmentation part        6.2922055 magnetization 

 Broyden mixing:
  rms(total) = 0.25760E-01    rms(broyden)= 0.25742E-01
  rms(prec ) = 0.26075E-01
  weight for this iteration     100.00

 eigenvalues of (default mixing * dielectric matrix)
  average eigenvalue GAMMA=   1.3059
  2.5110  1.7837  0.9072  0.9072  0.4204

 Free energy of the ion-electron system (eV)
  ---------------------------------------------------
  alpha Z        PSCENC =       137.75900145
  Ewald energy   TEWEN  =     17410.40716221
  -Hartree energ DENC   =    -22832.16632611
  -exchange      EXHF   =         0.00000000
  -V(xc)+E(xc)   XCENC  =      -424.49703520
  PAW double counting   =      6272.80373302    -5499.28413478
  entropy T*S    EENTRO =        -0.00281289
  eigenvalues    EBANDS =      -161.95475740
  atomic energy  EATOM  =      4951.75456612
  ---------------------------------------------------
  free energy    TOTEN  =      -145.18060360 eV

  energy without entropy =     -145.17779071  energy(sigma->0) =     -145.17919715


--------------------------------------------------------------------------------------------------------




----------------------------------------- Iteration    1(  11)  ---------------------------------------


    POTLOK:  cpu time    0.11: real time    0.11
    SETDIJ:  cpu time    0.12: real time    0.12
     EDDAV:  cpu time    5.62: real time    5.63
       DOS:  cpu time    0.00: real time    0.00
    CHARGE:  cpu time    0.43: real time    0.43
    MIXING:  cpu time    0.01: real time    0.01
    --------------------------------------------
      LOOP:  cpu time    6.30: real time    6.30

 eigenvalue-minimisations  :  3146
 total energy-change (2. order) :-0.1103958E-02  (-0.4313366E-03)
 number of electron     103.0000001 magnetization 
 augmentation part        6.2919763 magnetization 

 Broyden mixing:
  rms(total) = 0.17505E-01    rms(broyden)= 0.17504E-01
  rms(prec ) = 0.17737E-01
  weight for this iteration     100.00

 eigenvalues of (default mixing * dielectric matrix)
  average eigenvalue GAMMA=   1.3897
  2.7668  2.1989  0.9837  0.8490  0.8490  0.6909

 Free energy of the ion-electron system (eV)
  ---------------------------------------------------
  alpha Z        PSCENC =       137.75900145
  Ewald energy   TEWEN  =     17410.40716221
  -Hartree energ DENC   =    -22832.49905967
  -exchange      EXHF   =         0.00000000
  -V(xc)+E(xc)   XCENC  =      -424.42640930
  PAW double counting   =      6249.21482184    -5475.70325485
  entropy T*S    EENTRO =        -0.00275694
  eigenvalues    EBANDS =      -161.68577840
  atomic energy  EATOM  =      4951.75456612
  ---------------------------------------------------
  free energy    TOTEN  =      -145.18170756 eV

  energy without entropy =     -145.17895062  energy(sigma->0) =     -145.18032909


--------------------------------------------------------------------------------------------------------




----------------------------------------- Iteration    1(  12)  ---------------------------------------


    POTLOK:  cpu time    0.11: real time    0.11
    SETDIJ:  cpu time    0.12: real time    0.12
     EDDAV:  cpu time    6.37: real time    6.38
       DOS:  cpu time    0.00: real time    0.00
    CHARGE:  cpu time    0.44: real time    0.44
    MIXING:  cpu time    0.01: real time    0.01
    --------------------------------------------
      LOOP:  cpu time    7.05: real time    7.06

 eigenvalue-minimisations  :  3808
 total energy-change (2. order) :-0.2495525E-04  (-0.1285058E-03)
 number of electron     103.0000001 magnetization 
 augmentation part        6.2894204 magnetization 

 Broyden mixing:
  rms(total) = 0.90605E-02    rms(broyden)= 0.90598E-02
  rms(prec ) = 0.92369E-02
  weight for this iteration     100.00

 eigenvalues of (default mixing * dielectric matrix)
  average eigenvalue GAMMA=   1.3954
  2.8570  2.4823  1.0063  1.0063  0.8779  0.8779  0.6604

 Free energy of the ion-electron system (eV)
  ---------------------------------------------------
  alpha Z        PSCENC =       137.75900145
  Ewald energy   TEWEN  =     17410.40716221
  -Hartree energ DENC   =    -22832.79613636
  -exchange      EXHF   =         0.00000000
  -V(xc)+E(xc)   XCENC  =      -424.36912678
  PAW double counting   =      6229.39787800    -5455.90266036
  entropy T*S    EENTRO =        -0.00271500
  eigenvalues    EBANDS =      -161.42970179
  atomic energy  EATOM  =      4951.75456612
  ---------------------------------------------------
  free energy    TOTEN  =      -145.18173251 eV

  energy without entropy =     -145.17901752  energy(sigma->0) =     -145.18037501


--------------------------------------------------------------------------------------------------------




----------------------------------------- Iteration    1(  13)  ---------------------------------------


    POTLOK:  cpu time    0.11: real time    0.11
    SETDIJ:  cpu time    0.11: real time    0.11
     EDDAV:  cpu time    5.52: real time    5.53
       DOS:  cpu time    0.00: real time    0.00
    CHARGE:  cpu time    0.44: real time    0.44
    MIXING:  cpu time    0.01: real time    0.01
    --------------------------------------------
      LOOP:  cpu time    6.20: real time    6.20

 eigenvalue-minimisations  :  3122
 total energy-change (2. order) : 0.7608051E-04  (-0.1657719E-03)
 number of electron     103.0000001 magnetization 
 augmentation part        6.2939471 magnetization 

 Broyden mixing:
  rms(total) = 0.32368E-02    rms(broyden)= 0.32298E-02
  rms(prec ) = 0.33246E-02
  weight for this iteration     100.00

 eigenvalues of (default mixing * dielectric matrix)
  average eigenvalue GAMMA=   1.2664
  2.8926  2.4872  0.9573  0.9573  0.8962  0.8962  0.6491  0.3952

 Free energy of the ion-electron system (eV)
  ---------------------------------------------------
  alpha Z        PSCENC =       137.75900145
  Ewald energy   TEWEN  =     17410.40716221
  -Hartree energ DENC   =    -22832.25048059
  -exchange      EXHF   =         0.00000000
  -V(xc)+E(xc)   XCENC  =      -424.40094044
  PAW double counting   =      6219.87332384    -5446.37236764
  entropy T*S    EENTRO =        -0.00270864
  eigenvalues    EBANDS =      -161.94921273
  atomic energy  EATOM  =      4951.75456612
  ---------------------------------------------------
  free energy    TOTEN  =      -145.18165643 eV

  energy without entropy =     -145.17894780  energy(sigma->0) =     -145.18030211


--------------------------------------------------------------------------------------------------------




----------------------------------------- Iteration    1(  14)  ---------------------------------------


    POTLOK:  cpu time    0.12: real time    0.12
    SETDIJ:  cpu time    0.11: real time    0.11
     EDDAV:  cpu time    5.47: real time    5.48
       DOS:  cpu time    0.00: real time    0.00
    CHARGE:  cpu time    0.44: real time    0.44
    MIXING:  cpu time    0.01: real time    0.01
    --------------------------------------------
      LOOP:  cpu time    6.15: real time    6.16

 eigenvalue-minimisations  :  3110
 total energy-change (2. order) : 0.7131655E-05  (-0.1139249E-04)
 number of electron     103.0000001 magnetization 
 augmentation part        6.2939671 magnetization 

 Broyden mixing:
  rms(total) = 0.29242E-02    rms(broyden)= 0.29241E-02
  rms(prec ) = 0.30030E-02
  weight for this iteration     100.00

 eigenvalues of (default mixing * dielectric matrix)
  average eigenvalue GAMMA=   1.2893
  2.8693  2.5490  1.0676  1.0676  0.8533  0.8533  0.6553  0.8443  0.8443

 Free energy of the ion-electron system (eV)
  ---------------------------------------------------
  alpha Z        PSCENC =       137.75900145
  Ewald energy   TEWEN  =     17410.40716221
  -Hartree energ DENC   =    -22832.23196496
  -exchange      EXHF   =         0.00000000
  -V(xc)+E(xc)   XCENC  =      -424.40159751
  PAW double counting   =      6219.14643273    -5445.64555783
  entropy T*S    EENTRO =        -0.00270964
  eigenvalues    EBANDS =      -161.96698187
  atomic energy  EATOM  =      4951.75456612
  ---------------------------------------------------
  free energy    TOTEN  =      -145.18164930 eV

  energy without entropy =     -145.17893966  energy(sigma->0) =     -145.18029448


--------------------------------------------------------------------------------------------------------




----------------------------------------- Iteration    1(  15)  ---------------------------------------


    POTLOK:  cpu time    0.11: real time    0.11
    SETDIJ:  cpu time    0.11: real time    0.11
     EDDAV:  cpu time    3.86: real time    3.86
       DOS:  cpu time    0.00: real time    0.00
    --------------------------------------------
      LOOP:  cpu time    4.08: real time    4.09

 eigenvalue-minimisations  :  1822
 total energy-change (2. order) : 0.8302538E-05  (-0.1842897E-05)
 number of electron     103.0000001 magnetization 
 augmentation part        6.2939671 magnetization 

 Free energy of the ion-electron system (eV)
  ---------------------------------------------------
  alpha Z        PSCENC =       137.75900145
  Ewald energy   TEWEN  =     17410.40716221
  -Hartree energ DENC   =    -22832.17882389
  -exchange      EXHF   =         0.00000000
  -V(xc)+E(xc)   XCENC  =      -424.40507732
  PAW double counting   =      6218.37154968    -5444.86929318
  entropy T*S    EENTRO =        -0.00271135
  eigenvalues    EBANDS =      -162.01801472
  atomic energy  EATOM  =      4951.75456612
  ---------------------------------------------------
  free energy    TOTEN  =      -145.18164100 eV

  energy without entropy =     -145.17892964  energy(sigma->0) =     -145.18028532


--------------------------------------------------------------------------------------------------------




 average (electrostatic) potential at core
  the test charge radii are     0.7215  1.0714  1.0406
  (the norm of the test charge is              1.0000)
       1 -70.1634       2 -70.0476       3 -70.0675       4 -70.0780       5 -70.0672
       6 -70.0513       7 -70.1642       8 -70.0503       9 -70.0774      10 -70.0486
      11 -35.7075      12 -35.7350      13 -35.7077      14 -35.7219      15 -35.7368
      16 -35.7194      17 -35.9889      18 -35.9890      19 -35.7194      20 -35.7360
      21 -35.7225      22 -74.5709      23 -74.5239      24 -74.5879      25 -74.4898
      26 -74.5233      27 -74.4894      28 -74.5872
 
 
 
 E-fermi :   6.2202     XC(G=0): -10.2637     alpha+bet :-12.3389


 k-point     1 :       0.0000    0.0000    0.0000
  band No.  band energies     occupation 
      1     -14.3030      2.00000
      2     -14.2401      2.00000
      3     -14.1600      2.00000
      4     -14.0465      2.00000
      5     -13.9086      2.00000
      6     -13.7556      2.00000
      7     -13.6018      2.00000
      8     -13.4584      2.00000
      9     -13.3378      2.00000
     10     -13.2719      2.00000
     11      -3.8815      2.00000
     12      -3.5043      2.00000
     13      -3.0301      2.00000
     14      -2.4046      2.00000
     15      -1.8438      2.00000
     16      -1.6814      2.00000
     17      -1.6323      2.00000
     18      -1.2444      2.00000
     19      -1.0994      2.00000
     20      -0.5154      2.00000
     21      -0.4922      2.00000
     22       0.1594      2.00000
     23       0.4334      2.00000
     24       1.0594      2.00000
     25       1.2181      2.00000
     26       1.8977      2.00000
     27       2.1515      2.00000
     28       2.2518      2.00000
     29       2.2518      2.00000
     30       2.2904      2.00000
     31       2.2904      2.00000
     32       2.3303      2.00000
     33       2.3303      2.00000
     34       2.3879      2.00000
     35       2.3879      2.00000
     36       2.4520      2.00000
     37       2.4584      2.00000
     38       2.4584      2.00000
     39       2.5356      2.00000
     40       2.5356      2.00000
     41       2.6119      2.00000
     42       2.6119      2.00000
     43       2.6813      2.00000
     44       2.6813      2.00000
     45       2.7425      2.00000
     46       2.7425      2.00000
     47       2.7686      2.00000
     48       2.7686      2.00000
     49       3.4479      2.00000
     50       4.6701      2.00000
     51       5.9830      2.00000
     52       7.0791      0.00000
     53       7.0881      0.00000
     54       7.7837      0.00000
     55       7.9742      0.00000
     56       8.8033      0.00000
     57       8.8458      0.00000
     58       9.6616      0.00000
     59       9.7050      0.00000
     60      10.2153      0.00000
     61      10.3092      0.00000
     62      10.4648      0.00000
     63      10.8080      0.00000
     64      12.0318      0.00000
     65      13.5994      0.00000
     66      14.2511      0.00000

 k-point     2 :       0.0769    0.0000   -0.0000
  band No.  band energies     occupation 
      1     -14.2504      2.00000
      2     -14.1888      2.00000
      3     -14.1108      2.00000
      4     -14.0001      2.00000
      5     -13.8656      2.00000
      6     -13.7165      2.00000
      7     -13.5668      2.00000
      8     -13.4276      2.00000
      9     -13.3103      2.00000
     10     -13.2468      2.00000
     11      -3.7513      2.00000
     12      -3.3744      2.00000
     13      -2.9009      2.00000
     14      -2.2777      2.00000
     15      -1.7518      2.00000
     16      -1.5809      2.00000
     17      -1.5528      2.00000
     18      -1.1659      2.00000
     19      -1.0297      2.00000
     20      -0.4727      2.00000
     21      -0.4111      2.00000
     22       0.1863      2.00000
     23       0.4505      2.00000
     24       1.1035      2.00000
     25       1.1625      2.00000
     26       1.7897      2.00000
     27       2.0199      2.00000
     28       2.0517      2.00000
     29       2.0700      2.00000
     30       2.1135      2.00000
     31       2.1825      2.00000
     32       2.2079      2.00000
     33       2.2467      2.00000
     34       2.2602      2.00000
     35       2.2870      2.00000
     36       2.3451      2.00000
     37       2.3475      2.00000
     38       2.3973      2.00000
     39       2.4162      2.00000
     40       2.4606      2.00000
     41       2.4906      2.00000
     42       2.4942      2.00000
     43       2.5088      2.00000
     44       2.5523      2.00000
     45       2.5711      2.00000
     46       2.6412      2.00000
     47       2.7029      2.00000
     48       2.7294      2.00000
     49       3.5755      2.00000
     50       4.8082      2.00000
     51       6.1477      1.95975
     52       7.3274      0.00000
     53       7.4089      0.00000
     54       8.0102      0.00000
     55       8.2171      0.00000
     56       9.0030      0.00000
     57       9.0516      0.00000
     58       9.8694      0.00000
     59       9.9205      0.00000
     60      10.4630      0.00000
     61      10.5632      0.00000
     62      10.7458      0.00000
     63      11.0008      0.00000
     64      12.1256      0.00000
     65      13.5856      0.00000
     66      13.8670      0.00000

 k-point     3 :       0.1538    0.0000   -0.0000
  band No.  band energies     occupation 
      1     -14.0997      2.00000
      2     -14.0419      2.00000
      3     -13.9701      2.00000
      4     -13.8679      2.00000
      5     -13.7438      2.00000
      6     -13.6065      2.00000
      7     -13.4691      2.00000
      8     -13.3416      2.00000
      9     -13.2342      2.00000
     10     -13.1773      2.00000
     11      -3.3614      2.00000
     12      -2.9854      2.00000
     13      -2.5142      2.00000
     14      -1.9000      2.00000
     15      -1.4980      2.00000
     16      -1.3275      2.00000
     17      -1.2897      2.00000
     18      -0.9335      2.00000
     19      -0.8493      2.00000
     20      -0.3719      2.00000
     21      -0.2243      2.00000
     22       0.2662      2.00000
     23       0.3942      2.00000
     24       0.9000      2.00000
     25       1.0924      2.00000
     26       1.4098      2.00000
     27       1.4347      2.00000
     28       1.4894      2.00000
     29       1.5316      2.00000
     30       1.5586      2.00000
     31       1.6766      2.00000
     32       1.7245      2.00000
     33       1.8974      2.00000
     34       2.0220      2.00000
     35       2.0894      2.00000
     36       2.1288      2.00000
     37       2.1570      2.00000
     38       2.1700      2.00000
     39       2.2294      2.00000
     40       2.2662      2.00000
     41       2.3020      2.00000
     42       2.3517      2.00000
     43       2.3816      2.00000
     44       2.4602      2.00000
     45       2.5319      2.00000
     46       2.5948      2.00000
     47       2.6221      2.00000
     48       2.7350      2.00000
     49       3.9121      2.00000
     50       5.1711      2.00000
     51       6.5509      0.00000
     52       7.8582      0.00000
     53       8.1801      0.00000
     54       8.5968      0.00000
     55       8.8214      0.00000
     56       9.4739      0.00000
     57       9.5718      0.00000
     58      10.3516      0.00000
     59      10.4397      0.00000
     60      11.0292      0.00000
     61      11.1529      0.00000
     62      11.3153      0.00000
     63      11.4347      0.00000
     64      11.4842      0.00000
     65      11.7215      0.00000
     66      11.9833      0.00000

 k-point     4 :       0.2308    0.0000    0.0000
  band No.  band energies     occupation 
      1     -13.8727      2.00000
      2     -13.8212      2.00000
      3     -13.7596      2.00000
      4     -13.6715      2.00000
      5     -13.5642      2.00000
      6     -13.4459      2.00000
      7     -13.3282      2.00000
      8     -13.2196      2.00000
      9     -13.1276      2.00000
     10     -13.0811      2.00000
     11      -2.7136      2.00000
     12      -2.3394      2.00000
     13      -1.8736      2.00000
     14      -1.2892      2.00000
     15      -1.1302      2.00000
     16      -1.0069      2.00000
     17      -0.9085      2.00000
     18      -0.6675      2.00000
     19      -0.5990      2.00000
     20      -0.2905      2.00000
     21      -0.2210      2.00000
     22       0.0610      2.00000
     23       0.2461      2.00000
     24       0.4124      2.00000
     25       0.6072      2.00000
     26       0.6772      2.00000
     27       0.7196      2.00000
     28       0.7823      2.00000
     29       0.9448      2.00000
     30       1.0485      2.00000
     31       1.3187      2.00000
     32       1.5234      2.00000
     33       1.7400      2.00000
     34       1.9299      2.00000
     35       1.9457      2.00000
     36       1.9699      2.00000
     37       2.0120      2.00000
     38       2.0268      2.00000
     39       2.0728      2.00000
     40       2.1323      2.00000
     41       2.1470      2.00000
     42       2.2284      2.00000
     43       2.2369      2.00000
     44       2.3089      2.00000
     45       2.3823      2.00000
     46       2.4467      2.00000
     47       2.4749      2.00000
     48       3.2417      2.00000
     49       4.4588      2.00000
     50       5.7239      2.00000
     51       7.1006      0.00000
     52       8.3330      0.00000
     53       8.8664      0.00000
     54       9.0736      0.00000
     55       9.0839      0.00000
     56       9.3158      0.00000
     57       9.5197      0.00000
     58       9.6724      0.00000
     59       9.9902      0.00000
     60      10.1391      0.00000
     61      10.3110      0.00000
     62      10.7966      0.00000
     63      10.9204      0.00000
     64      11.1532      0.00000
     65      11.5636      0.00000
     66      11.8237      0.00000

 k-point     5 :       0.3077    0.0000   -0.0000
  band No.  band energies     occupation 
      1     -13.6055      2.00000
      2     -13.5627      2.00000
      3     -13.5152      2.00000
      4     -13.4461      2.00000
      5     -13.3614      2.00000
      6     -13.2686      2.00000
      7     -13.1766      2.00000
      8     -13.0924      2.00000
      9     -13.0199      2.00000
     10     -12.9864      2.00000
     11      -1.8114      2.00000
     12      -1.4414      2.00000
     13      -0.9981      2.00000
     14      -0.8666      2.00000
     15      -0.8019      2.00000
     16      -0.7766      2.00000
     17      -0.7203      2.00000
     18      -0.6529      2.00000
     19      -0.5963      2.00000
     20      -0.5400      2.00000
     21      -0.3875      2.00000
     22      -0.3109      2.00000
     23      -0.1716      2.00000
     24      -0.0951      2.00000
     25      -0.0311      2.00000
     26       0.1231      2.00000
     27       0.4591      2.00000
     28       0.5536      2.00000
     29       0.8634      2.00000
     30       1.1088      2.00000
     31       1.3821      2.00000
     32       1.6282      2.00000
     33       1.6607      2.00000
     34       1.7690      2.00000
     35       1.7794      2.00000
     36       1.8095      2.00000
     37       1.8524      2.00000
     38       1.9142      2.00000
     39       1.9535      2.00000
     40       1.9896      2.00000
     41       2.0724      2.00000
     42       2.0807      2.00000
     43       2.1543      2.00000
     44       2.2291      2.00000
     45       2.2946      2.00000
     46       2.3235      2.00000
     47       2.8170      2.00000
     48       3.9960      2.00000
     49       5.2033      2.00000
     50       6.1841      1.69324
     51       6.4955      0.00000
     52       6.8736      0.00000
     53       7.2469      0.00000
     54       7.7886      0.00000
     55       8.0483      0.00000
     56       8.5847      0.00000
     57       9.3121      0.00000
     58       9.5154      0.00000
     59       9.7877      0.00000
     60      10.0251      0.00000
     61      10.3071      0.00000
     62      10.4952      0.00000
     63      10.5838      0.00000
     64      11.0385      0.00000
     65      11.1678      0.00000
     66      11.4909      0.00000

 k-point     6 :       0.3846    0.0000    0.0000
  band No.  band energies     occupation 
      1     -13.3477      2.00000
      2     -13.3156      2.00000
      3     -13.2855      2.00000
      4     -13.2395      2.00000
      5     -13.1812      2.00000
      6     -13.1175      2.00000
      7     -13.0546      2.00000
      8     -12.9975      2.00000
      9     -12.9464      2.00000
     10     -12.9265      2.00000
     11      -1.2880      2.00000
     12      -1.1918      2.00000
     13      -1.0628      2.00000
     14      -0.9972      2.00000
     15      -0.9188      2.00000
     16      -0.8823      2.00000
     17      -0.7955      2.00000
     18      -0.7202      2.00000
     19      -0.6673      2.00000
     20      -0.6473      2.00000
     21      -0.6158      2.00000
     22      -0.2891      2.00000
     23      -0.0025      2.00000
     24       0.1100      2.00000
     25       0.3098      2.00000
     26       0.5027      2.00000
     27       0.8204      2.00000
     28       0.9507      2.00000
     29       1.1673      2.00000
     30       1.3743      2.00000
     31       1.4258      2.00000
     32       1.5475      2.00000
     33       1.6415      2.00000
     34       1.6822      2.00000
     35       1.7016      2.00000
     36       1.7256      2.00000
     37       1.7880      2.00000
     38       1.8256      2.00000
     39       1.8642      2.00000
     40       1.9478      2.00000
     41       1.9513      2.00000
     42       2.0305      2.00000
     43       2.1062      2.00000
     44       2.1723      2.00000
     45       2.2017      2.00000
     46       2.6941      2.00000
     47       3.8329      2.00000
     48       4.2275      2.00000
     49       4.5589      2.00000
     50       4.9143      2.00000
     51       5.2281      2.00000
     52       5.7856      2.00000
     53       6.3096      0.01148
     54       6.5454      0.00000
     55       7.4668      0.00000
     56       7.5315      0.00000
     57       8.5605      0.00000
     58       8.8461      0.00000
     59       9.5525      0.00000
     60      10.0337      0.00000
     61      10.2012      0.00000
     62      10.4832      0.00000
     63      10.6661      0.00000
     64      10.8370      0.00000
     65      11.2687      0.00000
     66      11.4023      0.00000

 k-point     7 :       0.4615    0.0000    0.0000
  band No.  band energies     occupation 
      1     -13.1636      2.00000
      2     -13.1430      2.00000
      3     -13.1301      2.00000
      4     -13.1060      2.00000
      5     -13.0719      2.00000
      6     -13.0344      2.00000
      7     -12.9970      2.00000
      8     -12.9635      2.00000
      9     -12.9292      2.00000
     10     -12.9199      2.00000
     11      -1.5926      2.00000
     12      -1.4944      2.00000
     13      -1.3629      2.00000
     14      -1.1972      2.00000
     15      -1.1431      2.00000
     16      -1.0760      2.00000
     17      -1.0171      2.00000
     18      -0.9810      2.00000
     19      -0.9052      2.00000
     20      -0.8965      2.00000
     21       0.5058      2.00000
     22       0.6136      2.00000
     23       0.7414      2.00000
     24       0.7988      2.00000
     25       0.9845      2.00000
     26       1.0833      2.00000
     27       1.1321      2.00000
     28       1.1541      2.00000
     29       1.2336      2.00000
     30       1.4038      2.00000
     31       1.5717      2.00000
     32       1.6115      2.00000
     33       1.6125      2.00000
     34       1.6560      2.00000
     35       1.6872      2.00000
     36       1.7187      2.00000
     37       1.7952      2.00000
     38       1.8775      2.00000
     39       1.8792      2.00000
     40       1.9623      2.00000
     41       2.0383      2.00000
     42       2.1047      2.00000
     43       2.1343      2.00000
     44       2.2508      2.00000
     45       2.3867      2.00000
     46       2.7495      2.00000
     47       3.0359      2.00000
     48       3.2122      2.00000
     49       3.7861      2.00000
     50       4.0852      2.00000
     51       4.6677      2.00000
     52       5.2315      2.00000
     53       5.6713      2.00000
     54       6.2942      0.03630
     55       6.8211      0.00000
     56       7.4269      0.00000
     57       7.9513      0.00000
     58       8.5629      0.00000
     59       9.0694      0.00000
     60       9.7631      0.00000
     61      10.2468      0.00000
     62      10.2701      0.00000
     63      10.6225      0.00000
     64      10.8257      0.00000
     65      11.3281      0.00000
     66      11.3348      0.00000

 k-point     8 :       0.0769    0.0769   -0.0000
  band No.  band energies     occupation 
      1     -14.1488      2.00000
      2     -14.0897      2.00000
      3     -14.0157      2.00000
      4     -13.9107      2.00000
      5     -13.7832      2.00000
      6     -13.6420      2.00000
      7     -13.5006      2.00000
      8     -13.3692      2.00000
      9     -13.2585      2.00000
     10     -13.1994      2.00000
     11      -3.4912      2.00000
     12      -3.1149      2.00000
     13      -2.6429      2.00000
     14      -2.0253      2.00000
     15      -1.5793      2.00000
     16      -1.3997      2.00000
     17      -1.3841      2.00000
     18      -1.0100      2.00000
     19      -0.9046      2.00000
[...]
     17      -0.7598      2.00000
     18      -0.6747      2.00000
     19      -0.5392      2.00000
     20      -0.4047      2.00000
     21      -0.0070      2.00000
     22       0.1312      2.00000
     23       0.2691      2.00000
     24       0.4149      2.00000
     25       0.5879      2.00000
     26       0.5909      2.00000
     27       0.6761      2.00000
     28       0.7369      2.00000
     29       0.8013      2.00000
     30       0.9252      2.00000
     31       0.9560      2.00000
     32       0.9972      2.00000
     33       1.0513      2.00000
     34       1.1592      2.00000
     35       1.3025      2.00000
     36       1.3644      2.00000
     37       1.4358      2.00000
     38       1.4861      2.00000
     39       1.5814      2.00000
     40       1.6548      2.00000
     41       1.7466      2.00000
     42       1.8311      2.00000
     43       1.8447      2.00000
     44       2.4621      2.00000
     45       3.2176      2.00000
     46       4.1362      2.00000
     47       4.2104      2.00000
     48       4.5760      2.00000
     49       4.9825      2.00000
     50       5.2945      2.00000
     51       5.7034      2.00000
     52       5.7950      2.00000
     53       6.1102      1.99999
     54       6.3756      0.00169
     55       6.5391      0.00000
     56       6.7366      0.00000
     57       7.1401      0.00000
     58       7.5024      0.00000
     59       7.7590      0.00000
     60       8.0262      0.00000
     61       8.4647      0.00000
     62       8.9146      0.00000
     63       9.0493      0.00000
     64       9.4903      0.00000
     65      10.1150      0.00000
     66      10.2024      0.00000

 k-point    20 :       0.3846    0.2308   -0.0000
  band No.  band energies     occupation 
      1     -13.0783      2.00000
      2     -13.0770      2.00000
      3     -13.0687      2.00000
      4     -13.0539      2.00000
      5     -13.0361      2.00000
      6     -13.0172      2.00000
      7     -12.9977      2.00000
      8     -12.9785      2.00000
      9     -12.9627      2.00000
     10     -12.9544      2.00000
     11      -1.1893      2.00000
     12      -1.1021      2.00000
     13      -0.9720      2.00000
     14      -0.8148      2.00000
     15      -0.7546      2.00000
     16      -0.7309      2.00000
     17      -0.6913      2.00000
     18      -0.6770      2.00000
     19      -0.6414      2.00000
     20      -0.6185      2.00000
     21       0.1864      2.00000
     22       0.2181      2.00000
     23       0.2590      2.00000
     24       0.2786      2.00000
     25       0.3295      2.00000
     26       0.3537      2.00000
     27       0.4016      2.00000
     28       0.5501      2.00000
     29       0.7047      2.00000
     30       0.8574      2.00000
     31       1.0937      2.00000
     32       1.1003      2.00000
     33       1.2843      2.00000
     34       1.2851      2.00000
     35       1.3855      2.00000
     36       1.4209      2.00000
     37       1.5604      2.00000
     38       1.6562      2.00000
     39       1.7052      2.00000
     40       1.7126      2.00000
     41       2.4702      2.00000
     42       2.4709      2.00000
     43       2.8350      2.00000
     44       2.8638      2.00000
     45       3.2978      2.00000
     46       3.3358      2.00000
     47       3.9068      2.00000
     48       3.9367      2.00000
     49       4.5489      2.00000
     50       4.8123      2.00000
     51       5.4898      2.00000
     52       5.6818      2.00000
     53       5.7895      2.00000
     54       6.0299      2.00000
     55       6.4438      0.00000
     56       6.7319      0.00000
     57       6.7888      0.00000
     58       7.2925      0.00000
     59       7.8129      0.00000
     60       7.9398      0.00000
     61       8.1550      0.00000
     62       8.6832      0.00000
     63       9.0999      0.00000
     64       9.2002      0.00000
     65       9.7194      0.00000
     66      10.3411      0.00000

 k-point    21 :       0.3077    0.3077   -0.0000
  band No.  band energies     occupation 
      1     -13.0498      2.00000
      2     -13.0494      2.00000
      3     -13.0378      2.00000
      4     -13.0263      2.00000
      5     -13.0132      2.00000
      6     -12.9998      2.00000
      7     -12.9863      2.00000
      8     -12.9731      2.00000
      9     -12.9625      2.00000
     10     -12.9577      2.00000
     11      -0.8379      2.00000
     12      -0.8351      2.00000
     13      -0.7632      2.00000
     14      -0.7538      2.00000
     15      -0.6557      2.00000
     16      -0.6537      2.00000
     17      -0.5378      2.00000
     18      -0.4426      2.00000
     19      -0.3989      2.00000
     20      -0.3355      2.00000
     21      -0.2307      2.00000
     22      -0.1799      2.00000
     23      -0.0435      2.00000
     24      -0.0331      2.00000
     25       0.1031      2.00000
     26       0.1452      2.00000
     27       0.2412      2.00000
     28       0.3138      2.00000
     29       0.3957      2.00000
     30       0.4297      2.00000
     31       1.0898      2.00000
     32       1.1077      2.00000
     33       1.2815      2.00000
     34       1.4073      2.00000
     35       1.4684      2.00000
     36       1.4926      2.00000
     37       1.5300      2.00000
     38       1.5360      2.00000
     39       1.5825      2.00000
     40       1.6740      2.00000
     41       2.3463      2.00000
     42       2.7280      2.00000
     43       3.1910      2.00000
     44       3.7980      2.00000
     45       3.9634      2.00000
     46       3.9717      2.00000
     47       4.3255      2.00000
     48       4.3443      2.00000
     49       4.5321      2.00000
     50       4.7770      2.00000
     51       4.7784      2.00000
     52       5.2526      2.00000
     53       5.4047      2.00000
     54       5.5662      2.00000
     55       6.1130      1.99998
     56       6.2124      1.85982
     57       6.8379      0.00000
     58       7.0338      0.00000
     59       7.3598      0.00000
     60       7.7553      0.00000
     61       8.1999      0.00000
     62       8.4525      0.00000
     63       8.7622      0.00000
     64       9.2783      0.00000
     65       9.6581      0.00000
     66       9.8800      0.00000


--------------------------------------------------------------------------------------------------------


 soft charge-density along one line, spin component           1
         0         1         2         3         4         5         6         7         8         9
 total charge-density along one line
 
 pseudopotential strength for first ion, spin component:           1
 12.189   0.000 -14.832   0.000   0.000   0.000  -0.003   0.000  -0.000   0.000  -0.000   0.000   0.004   0.000   0.000   0.000
-14.832   0.000  18.067   0.000  -0.000   0.000   0.004   0.000   0.000   0.000   0.000   0.000  -0.005   0.000  -0.000   0.000
  0.000   0.000  -0.000   0.000  -8.334   0.000  -0.000   0.000   0.000   0.000   9.982   0.000   0.000   0.000  -0.000   0.000
 -0.003   0.000   0.004   0.000  -0.000   0.000  -8.342   0.000   0.000   0.000   0.000   0.000   9.994   0.000  -0.000   0.000
 -0.000   0.000   0.000   0.000   0.000   0.000   0.000   0.000  -8.334   0.000  -0.000   0.000  -0.000   0.000   9.982   0.000
 -0.000   0.000   0.000   0.000   9.982   0.000   0.000   0.000  -0.000   0.000 -11.796   0.000  -0.000   0.000   0.000   0.000
  0.004   0.000  -0.005   0.000   0.000   0.000   9.994   0.000  -0.000   0.000  -0.000   0.000 -11.811   0.000   0.000   0.000
  0.000   0.000  -0.000   0.000  -0.000   0.000  -0.000   0.000   9.982   0.000   0.000   0.000   0.000   0.000 -11.796   0.000
 total augmentation occupancy for first ion, spin component:           1
  2.575   0.350   0.000   0.011  -0.000   0.000   0.001  -0.000
  0.350   0.075  -0.000   0.008  -0.000  -0.000  -0.003   0.000
  0.000  -0.000   2.132   0.000  -0.000   0.250   0.000  -0.000
  0.011   0.008   0.000   2.114  -0.000  -0.000   0.254  -0.000
 -0.000  -0.000  -0.000  -0.000   2.132  -0.000  -0.000   0.250
  0.000  -0.000   0.250  -0.000  -0.000   0.032   0.000  -0.000
  0.001  -0.003  -0.000   0.254  -0.000   0.000   0.034  -0.000
 -0.000   0.000  -0.000  -0.000   0.250  -0.000  -0.000   0.032


------------------------ aborting loop because EDIFF is reached ----------------------------------------


    CHARGE:  cpu time    0.44: real time    0.44
    FORLOC:  cpu time    0.04: real time    0.04
    FORNL :  cpu time    3.59: real time    3.59
    STRESS:  cpu time    4.66: real time    4.67
    FORCOR:  cpu time    0.15: real time    0.15
    FORHAR:  cpu time    0.06: real time    0.06
    MIXING:  cpu time    0.00: real time    0.00
    OFIELD:  cpu time    0.00: real time    0.00

  FORCE on cell =-STRESS in cart. coord.  units (eV):
  Direction    XX          YY          ZZ          XY          YZ          ZX
  --------------------------------------------------------------------------------------
  Alpha Z   137.75900   137.75900   137.75900
  Ewald   20885.50548 20885.50588-23579.00319    -0.00009     0.00006    -0.00021
  Hartree 22657.56885 22657.56877-21706.48385    -0.00000     0.00000     0.00004
  E(xc)    -423.94358  -423.94359  -423.90352    -0.00000     0.00000     0.00000
  Local  -44788.26286-44788.26239 44038.88660    -0.00013    -0.00005     0.00010
  n-local   -44.61451   -59.04872   -50.23325     3.03188    -1.64791     5.31438
  augment    60.25963    60.25939    59.48601     0.00018    -0.00000     0.00000
  Kinetic  1537.83699  1497.57134  1504.18380     0.30056    -0.49048     1.65918
  Fock        0.00000     0.00000     0.00000     0.00000     0.00000     0.00000
  -------------------------------------------------------------------------------------
  Total      -5.24067    -5.24066   -19.30840     0.00000     0.00000     0.00000
  in kB     -23.82848   -23.82846   -87.79223     0.00000     0.00000     0.00000
  external pressure =      -45.15 kB  Pullay stress =        0.00 kB


 VOLUME and BASIS-vectors are now :
 -----------------------------------------------------------------------------
  energy-cutoff  :      520.00
  volume of cell :      352.37
      direct lattice vectors                 reciprocal lattice vectors
     2.592201318 -1.496607673  0.000000000     0.385772507  0.000000000  0.000000000
     0.000000000  2.993215347  0.000000000     0.192886253  0.334088892  0.000000000
    -0.000000000  0.000000000 45.414455543     0.000000000  0.000000000  0.022019421

  length of vectors
     2.993216030  2.993215347 45.414455543     0.385772507  0.385772595  0.022019421


 FORCES acting on ions
    electron-ion (+dipol)            ewald-force                    non-local-force                 convergence-correction
 -----------------------------------------------------------------------------------------------
   0.258E-05 -.455E-06 0.143E+04   -.352E-05 0.277E-05 -.144E+04   -.540E-17 -.867E-18 0.116E+01   -.599E-10 0.214E-09 0.435E-01
   0.106E-02 -.184E-02 0.112E+04   0.548E-04 -.950E-04 -.112E+04   -.350E-18 0.867E-18 0.338E-01   -.163E-08 0.307E-08 0.523E-01
   0.824E-08 -.169E-08 0.480E+03   -.331E-07 0.342E-07 -.480E+03   0.322E-19 0.136E-19 -.810E-02   0.748E-09 -.107E-08 0.336E-01
   0.106E-02 -.184E-02 0.160E+03   0.550E-04 -.952E-04 -.160E+03   0.109E-19 0.271E-19 -.148E-01   -.107E-07 0.181E-07 0.641E-02
   -.850E-08 0.173E-08 -.480E+03   0.294E-07 -.299E-07 0.480E+03   -.433E-19 0.136E-19 0.825E-02   -.727E-09 0.107E-08 -.317E-01
   0.106E-02 -.184E-02 -.800E+03   0.548E-04 -.949E-04 0.800E+03   0.102E-18 0.136E-19 -.188E-01   0.664E-10 -.360E-09 -.499E-01
   -.258E-05 0.455E-06 -.143E+04   0.353E-05 -.277E-05 0.144E+04   0.540E-17 -.152E-17 -.116E+01   0.552E-10 -.228E-09 -.496E-01
   -.106E-02 0.184E-02 0.800E+03   -.548E-04 0.949E-04 -.800E+03   -.511E-19 0.136E-19 0.189E-01   0.805E-09 -.115E-08 0.482E-01
   -.106E-02 0.184E-02 -.160E+03   -.550E-04 0.952E-04 0.160E+03   -.172E-19 -.271E-19 0.142E-01   0.110E-07 -.185E-07 -.177E-02
   -.106E-02 0.184E-02 -.112E+04   -.548E-04 0.950E-04 0.112E+04   0.250E-19 0.000E+00 -.341E-01   0.122E-08 -.239E-08 -.571E-01
   -.399E-07 0.828E-08 0.320E+03   0.107E-06 -.119E-06 -.320E+03   -.177E-19 0.217E-18 -.129E-01   0.229E-09 -.412E-09 0.173E-01
   -.318E-08 0.451E-08 -.120E-01   0.199E-08 -.221E-08 0.115E-01   0.105E-20 0.339E-20 -.273E-03   0.189E-10 -.317E-10 0.822E-03
   0.462E-07 -.183E-07 -.320E+03   -.109E-06 0.122E-06 0.320E+03   0.234E-18 -.108E-18 0.131E-01   -.264E-09 0.475E-09 -.184E-01
   0.422E-04 -.732E-04 0.427E+03   -.473E-04 0.818E-04 -.427E+03   0.265E-18 0.000E+00 -.654E-01   0.504E-10 -.117E-09 0.163E-01
   0.422E-04 -.731E-04 0.107E+03   -.473E-04 0.819E-04 -.107E+03   0.900E-20 -.271E-19 -.303E-02   -.122E-08 0.230E-08 0.618E-02
   0.422E-04 -.731E-04 -.213E+03   -.472E-04 0.818E-04 0.213E+03   0.201E-19 0.000E+00 0.951E-02   -.496E-09 0.968E-09 -.142E-01
   0.308E-04 -.391E-04 -.514E+03   -.244E-04 0.262E-04 0.513E+03   -.180E-17 -.139E-16 0.940E-01   0.202E-09 -.387E-09 -.145E-01
   -.308E-04 0.391E-04 0.514E+03   0.244E-04 -.262E-04 -.514E+03   0.690E-19 0.694E-17 -.939E-01   -.209E-09 0.398E-09 0.126E-01
   -.422E-04 0.731E-04 0.213E+03   0.472E-04 -.818E-04 -.213E+03   -.199E-19 -.217E-18 -.986E-02   0.545E-09 -.106E-08 0.142E-01
   -.422E-04 0.731E-04 -.107E+03   0.473E-04 -.819E-04 0.107E+03   -.121E-19 0.271E-19 0.260E-02   0.121E-08 -.227E-08 -.500E-02
   -.422E-04 0.732E-04 -.427E+03   0.472E-04 -.818E-04 0.427E+03   0.168E-18 -.173E-17 0.659E-01   -.577E-10 0.132E-09 -.182E-01
   0.773E-10 -.634E-10 -.703E-02   -.153E-09 0.149E-09 0.538E-02   0.667E-21 0.339E-20 -.188E-03   -.534E-12 0.860E-13 0.182E-02
   -.166E-06 -.196E-07 0.549E+03   0.613E-06 -.561E-06 -.548E+03   0.537E-18 0.278E-16 -.731E+00   -.511E-13 -.923E-12 0.169E-01
   0.148E-04 -.257E-04 0.354E+03   -.220E-05 0.402E-05 -.354E+03   -.882E-19 0.278E-16 0.194E+00   0.337E-11 -.198E-10 0.155E-01
   -.147E-04 0.254E-04 0.174E+03   0.260E-05 -.441E-05 -.174E+03   -.345E-17 0.694E-17 -.219E-01   -.168E-10 0.240E-10 0.112E-01
   0.166E-06 0.196E-07 -.549E+03   -.614E-06 0.561E-06 0.548E+03   0.203E-16 0.000E+00 0.731E+00   -.719E-12 0.887E-12 -.182E-01
   0.147E-04 -.254E-04 -.174E+03   -.260E-05 0.441E-05 0.174E+03   0.345E-17 -.347E-17 0.227E-01   0.228E-10 -.307E-10 -.805E-02
   -.148E-04 0.257E-04 -.354E+03   0.221E-05 -.402E-05 0.354E+03   0.318E-17 -.278E-16 -.194E+00   -.104E-10 0.316E-10 -.145E-01
 -----------------------------------------------------------------------------------------------
   0.710E-08 -.133E-07 0.464E-02   0.163E-13 0.495E-13 -.222E-11   0.225E-16 0.210E-16 -.561E-03   0.747E-09 -.127E-08 -.418E-02
 
 
 POSITION                                       TOTAL-FORCE (eV/Angst)
 -----------------------------------------------------------------------------------
     -0.00000      0.00000     12.47442        -0.000000     -0.000000      0.002995
      0.86407      1.49661     14.99376         0.000000     -0.000000      0.002165
     -0.00000      0.00000     20.03401         0.000000     -0.000000     -0.001818
      0.86407      1.49661     22.55311         0.000000     -0.000000     -0.008462
     -0.00000      0.00000     27.58928        -0.000000     -0.000000      0.002092
      0.86407      1.49661     30.10997         0.000000      0.000000     -0.011506
     -0.00000      0.00000     35.14923         0.000000     -0.000000     -0.003047
      1.72814     -0.00000     17.51346        -0.000000      0.000000      0.011542
      1.72814     -0.00000     25.07010         0.000000     -0.000000      0.008631
      1.72814     -0.00000     32.62980        -0.000000      0.000000     -0.002506
     -0.00000      0.00000     16.25476         0.000000     -0.000000     -0.003631
     -0.00000      0.00000     23.81163        -0.000000     -0.000000      0.000083
     -0.00000      0.00000     31.36872        -0.000000     -0.000000      0.003806
      1.72814     -0.00000     13.73478         0.000000     -0.000000     -0.002901
      1.72814     -0.00000     21.29373         0.000000     -0.000000     -0.002410
      1.72814     -0.00000     28.84876        -0.000000     -0.000000      0.008339
      1.72814     -0.00000     36.45199         0.000000     -0.000000     -0.001780
      0.86407      1.49661     11.17167        -0.000000     -0.000000      0.001395
      0.86407      1.49661     18.77463         0.000000     -0.000000     -0.008638
      0.86407      1.49661     26.32956        -0.000000     -0.000000      0.002563
      0.86407      1.49661     33.88878        -0.000000     -0.000000      0.003174
     -0.00000      0.00000      1.10446        -0.000000     -0.000000     -0.000013
     -0.00000      0.00000      8.52343         0.000000     -0.000000     -0.002180
      1.72814     -0.00000      5.98212        -0.000000     -0.000000      0.004848
      0.86407      1.49661      3.52575        -0.000000     -0.000000      0.009011
     -0.00000      0.00000     39.10027        -0.000000     -0.000000      0.002012
      1.72814     -0.00000     44.09759         0.000000     -0.000000     -0.008991
      0.86407      1.49661     41.64133         0.000000     -0.000000     -0.004774
 -----------------------------------------------------------------------------------
    total drift:                                0.000000     -0.000000     -0.000107


--------------------------------------------------------------------------------------------------------



  FREE ENERGIE OF THE ION-ELECTRON SYSTEM (eV)
  ---------------------------------------------------
  free  energy   TOTEN  =      -145.19499764 eV

  energy  without entropy=     -145.19196126  energy(sigma->0) =     -145.19347945
 
 d Force = 0.9916157E-04[ 0.489E-04, 0.149E-03]  d Energy = 0.9198256E-04 0.718E-05
 d Force =-0.3953253E+01[-0.395E+01,-0.395E+01]  d Ewald  =-0.3953253E+01-0.442E-08


--------------------------------------------------------------------------------------------------------


    POTLOK:  cpu time    0.23: real time    0.23


--------------------------------------------------------------------------------------------------------


 Conjugate gradient step on ions:
 trial-energy change:   -0.000092  1 .order   -0.000099   -0.000149   -0.000049
  (g-gl).g = 0.628E-04      g.g   = 0.916E-04  gl.gl    = 0.220E-03
 g(Force)  = 0.916E-04   g(Stress)= 0.000E+00 ortho     =-0.140E-04
 gamma     =   0.28507
 trial     =   1.70677
 opt step  =   2.53602  (harmonic =   2.53602) maximal distance =0.00303268
 next E    =  -145.195017   (d E  =  -0.00011)


--------------------------------------------------------------------------------------------------------


  
 reached required accuracy - stopping structural energy minimisation
     LOOP+:  cpu time   37.72: real time   37.76
    4ORBIT:  cpu time    0.00: real time    0.00

 total amount of memory used by VASP on root node   158949. kBytes
========================================================================

   base      :      30000. kBytes
   nonl-proj :      16856. kBytes
   fftplans  :      60347. kBytes
   grid      :      24192. kBytes
   one-center:         56. kBytes
   wavefun   :      27498. kBytes
 
  
  
 General timing and accounting informations for this job:
 ========================================================
  
                  Total CPU time used (sec):     1426.818
                            User time (sec):     1409.057
                          System time (sec):       17.760
                         Elapsed time (sec):     1428.211
  
                   Maximum memory used (kb):      268188.
                   Average memory used (kb):           0.
  
                          Minor page faults:       322571
                          Major page faults:            0
                 Voluntary context switches:          166
