  25  25   0   0
  0.1389482E+02  0.3004406E-09  0.3004406E-09  0.4443704E-08  0.5000000E-15
  1.000000000000000E-004
  CAR 
 Al110                                   
     12.23336021    -18.81592750  301      3.53732251      1.00000000
    -18.816  0.0000E+00  0.0000E+00
    -18.712  0.0000E+00  0.0000E+00
    -18.609  0.0000E+00  0.0000E+00
    -18.505  0.0000E+00  0.0000E+00
    -18.402  0.0000E+00  0.0000E+00
    -18.298  0.0000E+00  0.0000E+00
    -18.195  0.0000E+00  0.0000E+00
    -18.091  0.0000E+00  0.0000E+00
    -17.988  0.0000E+00  0.0000E+00
    -17.884  0.0000E+00  0.0000E+00
    -17.781  0.0000E+00  0.0000E+00
    -17.677  0.7174E-17  0.7425E-18
    -17.574  0.1006E-08  0.1041E-09
    -17.470  0.3783E-04  0.3916E-05
    -17.367  0.1244E-02  0.1327E-03
    -17.263  0.1882E-02  0.3275E-03
    -17.160  0.4912E-02  0.8359E-03
    -17.056  0.6186E-02  0.1476E-02
    -16.953  0.8265E-02  0.2332E-02
    -16.849  0.1149E-01  0.3520E-02
    -16.746  0.1306E-01  0.4872E-02
    -16.642  0.1610E-01  0.6538E-02
    -16.539  0.1969E-01  0.8575E-02
    -16.435  0.2519E-01  0.1118E-01
    -16.332  0.3259E-01  0.1456E-01
    -16.228  0.4245E-01  0.1895E-01
    -16.125  0.5261E-01  0.2439E-01
    -16.021  0.6322E-01  0.3094E-01
    -15.918  0.6751E-01  0.3792E-01
    -15.814  0.5784E-01  0.4391E-01
    -15.711  0.3699E-01  0.4774E-01
    -15.608  0.2526E-02  0.4800E-01
    -15.504  0.6122E-06  0.4800E-01
    -15.401  0.7166E-13  0.4800E-01
    -15.297  0.0000E+00  0.4800E-01
    -15.194  0.0000E+00  0.4800E-01
    -15.090  0.0000E+00  0.4800E-01
    -14.987  0.0000E+00  0.4800E-01
    -14.883  0.0000E+00  0.4800E-01
    -14.780  0.0000E+00  0.4800E-01
    -14.676  0.0000E+00  0.4800E-01
    -14.573  0.0000E+00  0.4800E-01
    -14.469  0.0000E+00  0.4800E-01
    -14.366  0.0000E+00  0.4800E-01
    -14.262  0.0000E+00  0.4800E-01
    -14.159  0.0000E+00  0.4800E-01
    -14.055  0.0000E+00  0.4800E-01
    -13.952  0.0000E+00  0.4800E-01
    -13.848  0.0000E+00  0.4800E-01
    -13.745  0.0000E+00  0.4800E-01
    -13.641  0.0000E+00  0.4800E-01
    -13.538  0.0000E+00  0.4800E-01
    -13.434  0.0000E+00  0.4800E-01
    -13.331  0.0000E+00  0.4800E-01
    -13.227  0.0000E+00  0.4800E-01
    -13.124  0.0000E+00  0.4800E-01
    -13.020  0.0000E+00  0.4800E-01
    -12.917  0.0000E+00  0.4800E-01
    -12.813  0.0000E+00  0.4800E-01
    -12.710  0.0000E+00  0.4800E-01
    -12.606  0.0000E+00  0.4800E-01
    -12.503  0.0000E+00  0.4800E-01
    -12.399  0.0000E+00  0.4800E-01
    -12.296  0.0000E+00  0.4800E-01
    -12.192  0.0000E+00  0.4800E-01
    -12.089  0.0000E+00  0.4800E-01
    -11.985  0.0000E+00  0.4800E-01
    -11.882  0.0000E+00  0.4800E-01
    -11.778  0.0000E+00  0.4800E-01
    -11.675  0.0000E+00  0.4800E-01
    -11.571  0.0000E+00  0.4800E-01
    -11.468  0.0000E+00  0.4800E-01
    -11.364  0.0000E+00  0.4800E-01
    -11.261  0.0000E+00  0.4800E-01
    -11.157  0.0000E+00  0.4800E-01
    -11.054  0.0000E+00  0.4800E-01
    -10.950  0.0000E+00  0.4800E-01
    -10.847  0.0000E+00  0.4800E-01
    -10.743  0.0000E+00  0.4800E-01
    -10.640  0.0000E+00  0.4800E-01
    -10.536  0.0000E+00  0.4800E-01
    -10.433  0.0000E+00  0.4800E-01
    -10.329  0.0000E+00  0.4800E-01
    -10.226  0.0000E+00  0.4800E-01
    -10.122  0.0000E+00  0.4800E-01
    -10.019  0.0000E+00  0.4800E-01
     -9.915  0.0000E+00  0.4800E-01
     -9.812  0.0000E+00  0.4800E-01
     -9.708  0.0000E+00  0.4800E-01
     -9.605  0.0000E+00  0.4800E-01
     -9.501  0.0000E+00  0.4800E-01
     -9.398  0.0000E+00  0.4800E-01
     -9.294  0.0000E+00  0.4800E-01
     -9.191  0.0000E+00  0.4800E-01
     -9.087  0.0000E+00  0.4800E-01
     -8.984  0.0000E+00  0.4800E-01
     -8.880  0.0000E+00  0.4800E-01
     -8.777  0.0000E+00  0.4800E-01
     -8.673  0.0000E+00  0.4800E-01
     -8.570  0.0000E+00  0.4800E-01
     -8.466  0.0000E+00  0.4800E-01
     -8.363  0.0000E+00  0.4800E-01
     -8.259  0.0000E+00  0.4800E-01
     -8.156  0.0000E+00  0.4800E-01
     -8.052  0.0000E+00  0.4800E-01
     -7.949  0.0000E+00  0.4800E-01
     -7.845  0.0000E+00  0.4800E-01
     -7.742  0.0000E+00  0.4800E-01
     -7.638  0.0000E+00  0.4800E-01
     -7.535  0.0000E+00  0.4800E-01
     -7.431  0.0000E+00  0.4800E-01
     -7.328  0.0000E+00  0.4800E-01
     -7.224  0.0000E+00  0.4800E-01
     -7.121  0.0000E+00  0.4800E-01
     -7.017  0.0000E+00  0.4800E-01
     -6.914  0.0000E+00  0.4800E-01
     -6.810  0.0000E+00  0.4800E-01
     -6.707  0.0000E+00  0.4800E-01
     -6.603  0.0000E+00  0.4800E-01
     -6.500  0.0000E+00  0.4800E-01
     -6.396  0.0000E+00  0.4800E-01
     -6.293  0.0000E+00  0.4800E-01
     -6.189  0.0000E+00  0.4800E-01
     -6.086  0.0000E+00  0.4800E-01
     -5.982  0.0000E+00  0.4800E-01
     -5.879  0.0000E+00  0.4800E-01
     -5.775  0.0000E+00  0.4800E-01
     -5.672  0.0000E+00  0.4800E-01
     -5.568  0.0000E+00  0.4800E-01
     -5.465  0.0000E+00  0.4800E-01
     -5.361  0.0000E+00  0.4800E-01
     -5.258  0.0000E+00  0.4800E-01
     -5.154  0.0000E+00  0.4800E-01
     -5.051  0.0000E+00  0.4800E-01
     -4.947  0.4708E-13  0.4800E-01
     -4.844  0.2852E-06  0.4800E-01
     -4.740  0.6465E-03  0.4807E-01
     -4.637  0.4359E-02  0.4852E-01
     -4.533  0.5047E-02  0.4904E-01
     -4.430  0.8489E-02  0.4992E-01
     -4.326  0.1154E-01  0.5111E-01
     -4.223  0.1714E-01  0.5289E-01
     -4.119  0.2208E-01  0.5517E-01
     -4.016  0.2737E-01  0.5801E-01
     -3.912  0.4350E-01  0.6251E-01
     -3.809  0.4592E-01  0.6726E-01
     -3.705  0.5283E-01  0.7273E-01
     -3.602  0.4762E-01  0.7766E-01
     -3.498  0.4079E-01  0.8188E-01
     -3.395  0.2397E-01  0.8436E-01
     -3.291  0.2309E-01  0.8675E-01
     -3.188  0.1973E-01  0.8879E-01
     -3.084  0.1377E-01  0.9022E-01
     -2.981  0.1460E-01  0.9173E-01
     -2.877  0.1741E-01  0.9353E-01
     -2.774  0.2061E-01  0.9566E-01
     -2.670  0.2024E-01  0.9776E-01
     -2.567  0.1987E-01  0.9981E-01
     -2.463  0.2319E-01  0.1022E+00
     -2.360  0.2277E-01  0.1046E+00
     -2.256  0.2624E-01  0.1073E+00
     -2.153  0.2776E-01  0.1102E+00
     -2.049  0.2214E-01  0.1125E+00
     -1.946  0.3011E-01  0.1156E+00
     -1.842  0.3001E-01  0.1187E+00
     -1.739  0.3473E-01  0.1223E+00
     -1.635  0.4532E-01  0.1270E+00
     -1.532  0.5285E-01  0.1324E+00
     -1.428  0.5632E-01  0.1383E+00
     -1.325  0.6072E-01  0.1445E+00
     -1.221  0.5865E-01  0.1506E+00
     -1.118  0.6585E-01  0.1574E+00
     -1.014  0.6355E-01  0.1640E+00
     -0.911  0.6278E-01  0.1705E+00
     -0.807  0.5888E-01  0.1766E+00
     -0.704  0.4753E-01  0.1815E+00
     -0.600  0.3587E-01  0.1852E+00
     -0.497  0.2518E-01  0.1878E+00
     -0.393  0.1986E-01  0.1899E+00
     -0.290  0.1253E-01  0.1912E+00
     -0.186  0.6488E-02  0.1919E+00
     -0.083  0.1360E-02  0.1920E+00
      0.021  0.1705E-04  0.1920E+00
      0.124  0.1811E-09  0.1920E+00
      0.228  0.5364E-18  0.1920E+00
      0.331  0.0000E+00  0.1920E+00
      0.435  0.0000E+00  0.1920E+00
      0.538  0.0000E+00  0.1920E+00
      0.642  0.0000E+00  0.1920E+00
      0.745  0.0000E+00  0.1920E+00
      0.849  0.0000E+00  0.1920E+00
      0.952  0.2948E-14  0.1920E+00
      1.056  0.4136E-07  0.1920E+00
      1.159  0.1822E-03  0.1920E+00
      1.263  0.1764E-02  0.1922E+00
      1.366  0.1478E-02  0.1924E+00
      1.470  0.1382E-02  0.1925E+00
      1.573  0.2076E-03  0.1925E+00
      1.677  0.3817E-02  0.1929E+00
      1.780  0.2414E-02  0.1932E+00
      1.884  0.8322E-03  0.1932E+00
      1.987  0.1043E-02  0.1934E+00
      2.091  0.3698E-02  0.1937E+00
      2.194  0.9065E-04  0.1937E+00
      2.298  0.1659E-04  0.1938E+00
      2.401  0.2815E-02  0.1940E+00
      2.505  0.4151E-02  0.1945E+00
      2.608  0.2667E-02  0.1947E+00
      2.712  0.3325E-03  0.1948E+00
      2.815  0.2029E-02  0.1950E+00
      2.919  0.1734E-02  0.1952E+00
      3.022  0.7535E-03  0.1953E+00
      3.126  0.2231E-02  0.1955E+00
      3.229  0.2583E-02  0.1957E+00
      3.333  0.1109E-04  0.1957E+00
      3.436  0.1010E-04  0.1958E+00
      3.540  0.2529E-02  0.1960E+00
      3.643  0.4640E-02  0.1965E+00
      3.747  0.2477E-02  0.1967E+00
      3.850  0.1851E-02  0.1969E+00
      3.954  0.2965E-02  0.1972E+00
      4.057  0.2159E-04  0.1973E+00
      4.161  0.5474E-03  0.1973E+00
      4.264  0.3165E-02  0.1976E+00
      4.368  0.3486E-02  0.1980E+00
      4.471  0.4989E-04  0.1980E+00
      4.575  0.1825E-02  0.1982E+00
      4.678  0.4139E-02  0.1986E+00
      4.782  0.7787E-04  0.1986E+00
      4.885  0.1012E-02  0.1987E+00
      4.989  0.5010E-02  0.1992E+00
      5.092  0.8219E-02  0.2001E+00
      5.196  0.8355E-03  0.2002E+00
      5.299  0.1749E-02  0.2004E+00
      5.403  0.7623E-04  0.2004E+00
      5.506  0.2350E-03  0.2004E+00
      5.610  0.2972E-02  0.2007E+00
      5.713  0.3914E-02  0.2011E+00
      5.817  0.5523E-03  0.2012E+00
      5.920  0.4194E-02  0.2016E+00
      6.024  0.1456E-02  0.2018E+00
      6.127  0.2908E-02  0.2021E+00
      6.230  0.6061E-02  0.2027E+00
      6.334  0.5358E-02  0.2032E+00
      6.437  0.4669E-02  0.2037E+00
      6.541  0.2485E-02  0.2040E+00
      6.644  0.5682E-02  0.2046E+00
      6.748  0.8518E-02  0.2054E+00
      6.851  0.1862E-02  0.2056E+00
      6.955  0.3089E-02  0.2060E+00
      7.058  0.1171E-01  0.2072E+00
      7.162  0.6271E-02  0.2078E+00
      7.265  0.6734E-02  0.2085E+00
      7.369  0.1308E-01  0.2099E+00
      7.472  0.8685E-02  0.2108E+00
      7.576  0.1513E-01  0.2123E+00
      7.679  0.1190E-01  0.2136E+00
      7.783  0.1472E-01  0.2151E+00
      7.886  0.1052E-01  0.2162E+00
      7.990  0.1461E-01  0.2177E+00
      8.093  0.1060E-01  0.2188E+00
      8.197  0.1299E-01  0.2201E+00
      8.300  0.1637E-01  0.2218E+00
      8.404  0.1320E-01  0.2232E+00
      8.507  0.8196E-02  0.2240E+00
      8.611  0.1815E-01  0.2259E+00
      8.714  0.1661E-01  0.2276E+00
      8.818  0.1105E-01  0.2288E+00
      8.921  0.1750E-01  0.2306E+00
      9.025  0.1924E-01  0.2326E+00
      9.128  0.1303E-01  0.2339E+00
      9.232  0.1635E-01  0.2356E+00
      9.335  0.2029E-01  0.2377E+00
      9.439  0.2963E-01  0.2408E+00
      9.542  0.2502E-01  0.2434E+00
      9.646  0.2347E-01  0.2458E+00
      9.749  0.3140E-01  0.2491E+00
      9.853  0.2124E-01  0.2513E+00
      9.956  0.1793E-01  0.2531E+00
     10.060  0.1769E-01  0.2549E+00
     10.163  0.1223E-01  0.2562E+00
     10.267  0.4783E-02  0.2567E+00
     10.370  0.6751E-02  0.2574E+00
     10.474  0.6775E-02  0.2581E+00
     10.577  0.1060E-01  0.2592E+00
     10.681  0.4040E-02  0.2596E+00
     10.784  0.1356E-02  0.2598E+00
     10.888  0.2222E-02  0.2600E+00
     10.991  0.7555E-04  0.2600E+00
     11.095  0.2012E-08  0.2600E+00
     11.198  0.1448E-16  0.2600E+00
     11.302  0.0000E+00  0.2600E+00
     11.405  0.0000E+00  0.2600E+00
     11.509  0.0000E+00  0.2600E+00
     11.612  0.0000E+00  0.2600E+00
     11.716  0.0000E+00  0.2600E+00
     11.819  0.0000E+00  0.2600E+00
     11.923  0.0000E+00  0.2600E+00
     12.026  0.0000E+00  0.2600E+00
     12.130  0.0000E+00  0.2600E+00
     12.233  0.0000E+00  0.2600E+00
