       N       E                     dE             d eps       ncg     rms          rms(c)
DAV:   1     0.647898635933E+03    0.64790E+03   -0.42365E+04  2620   0.117E+03
DAV:   2    -0.868701422959E+02   -0.73477E+03   -0.70544E+03  3470   0.288E+02
DAV:   3    -0.160829219108E+03   -0.73959E+02   -0.73406E+02  3150   0.975E+01
DAV:   4    -0.162373327568E+03   -0.15441E+01   -0.15404E+01  3225   0.158E+01
DAV:   5    -0.162405309696E+03   -0.31982E-01   -0.31961E-01  3165   0.213E+00
DAV:   6    -0.162406325344E+03   -0.10156E-02   -0.10154E-02  3280   0.368E-01
DAV:   7    -0.162406363909E+03   -0.38565E-04   -0.38557E-04  3170   0.643E-02
DAV:   8    -0.162406365544E+03   -0.16350E-05   -0.16344E-05  2465   0.128E-02    0.253E+01
RMM:   9    -0.143244192610E+03    0.19162E+02   -0.92582E+01  2600   0.302E+01    0.806E+00
RMM:  10    -0.142901957557E+03    0.34224E+00   -0.87112E-01  2606   0.313E+00    0.529E+00
RMM:  11    -0.142994488915E+03   -0.92531E-01   -0.82395E-01  2600   0.460E+00    0.160E+00
RMM:  12    -0.142801273802E+03    0.19322E+00   -0.41025E-02  2600   0.546E-01    0.115E+00
RMM:  13    -0.142740571759E+03    0.60702E-01   -0.76166E-02  2600   0.836E-01    0.405E-01
RMM:  14    -0.142765022349E+03   -0.24451E-01   -0.65319E-02  2600   0.791E-01    0.479E-01
RMM:  15    -0.142742851070E+03    0.22171E-01   -0.11809E-02  2600   0.357E-01    0.226E-01
RMM:  16    -0.142742595186E+03    0.25588E-03   -0.18060E-03  2600   0.118E-01    0.211E-01
RMM:  17    -0.142738341573E+03    0.42536E-02   -0.45879E-04  2539   0.568E-02    0.142E-01
RMM:  18    -0.142736852872E+03    0.14887E-02   -0.10410E-04  2444   0.337E-02    0.593E-03
RMM:  19    -0.142736863825E+03   -0.10954E-04   -0.50043E-06  1599   0.785E-03    0.979E-03
RMM:  20    -0.142736862896E+03    0.92962E-06   -0.21022E-06  1357   0.433E-03
   1 F= -.14273686E+03 E0= -.14273508E+03  d E =-.142737E+03
       N       E                     dE             d eps       ncg     rms          rms(c)
DAV:   1    -0.142749885354E+03   -0.13022E-01   -0.22432E+00  2980   0.614E+00
DAV:   2    -0.142754802460E+03   -0.49171E-02   -0.49169E-02  3075   0.789E-01
DAV:   3    -0.142754828082E+03   -0.25622E-04   -0.25622E-04  3100   0.579E-02
DAV:   4    -0.142754828558E+03   -0.47633E-06   -0.47607E-06  2340   0.731E-03
DAV:   5    -0.142754828611E+03   -0.52309E-07   -0.51895E-07  2005   0.242E-03
DAV:   6    -0.142754828625E+03   -0.14269E-07   -0.14708E-07  1890   0.117E-03
DAV:   7    -0.142754828630E+03   -0.48940E-08   -0.49133E-08  1680   0.656E-04
DAV:   8    -0.142754828632E+03   -0.16335E-08   -0.16922E-08  1620   0.364E-04    0.202E-01
RMM:   9    -0.142846612485E+03   -0.91784E-01   -0.10195E-02  2600   0.222E-01    0.729E-01
RMM:  10    -0.142753031809E+03    0.93581E-01   -0.40093E-03  2600   0.142E-01    0.226E-01
RMM:  11    -0.142767891885E+03   -0.14860E-01   -0.42087E-03  2600   0.141E-01    0.210E-01
RMM:  12    -0.142757263692E+03    0.10628E-01   -0.23360E-04  2365   0.392E-02    0.204E-01
RMM:  13    -0.142749327840E+03    0.79359E-02   -0.46861E-04  2360   0.434E-02    0.105E-01
RMM:  14    -0.142748852470E+03    0.47537E-03   -0.38270E-05  1927   0.157E-02    0.557E-02
RMM:  15    -0.142748644145E+03    0.20833E-03   -0.12682E-05  1620   0.971E-03    0.152E-02
RMM:  16    -0.142748721800E+03   -0.77656E-04   -0.83374E-06  1507   0.648E-03    0.375E-02
RMM:  17    -0.142748639044E+03    0.82756E-04   -0.20209E-06  1304   0.410E-03    0.119E-02
RMM:  18    -0.142748632682E+03    0.63620E-05   -0.12181E-07   640   0.224E-03
   2 F= -.14274863E+03 E0= -.14274685E+03  d E =-.117698E-01
       N       E                     dE             d eps       ncg     rms          rms(c)
DAV:   1    -0.142748816753E+03   -0.17771E-03   -0.61665E-02  2935   0.990E-01
DAV:   2    -0.142748948774E+03   -0.13202E-03   -0.13202E-03  3040   0.121E-01
DAV:   3    -0.142748949392E+03   -0.61867E-06   -0.61847E-06  2305   0.889E-03
DAV:   4    -0.142748949451E+03   -0.58812E-07   -0.58969E-07  1760   0.274E-03
DAV:   5    -0.142748949465E+03   -0.13856E-07   -0.13931E-07  1580   0.122E-03
DAV:   6    -0.142748949469E+03   -0.39427E-08   -0.40114E-08  1535   0.627E-04
DAV:   7    -0.142748949470E+03   -0.99681E-09   -0.12458E-08  1525   0.332E-04
DAV:   8    -0.142748949470E+03   -0.48658E-09   -0.41099E-09  1525   0.184E-04    0.341E-02
RMM:   9    -0.142755171390E+03   -0.62219E-02   -0.29743E-04  2381   0.380E-02    0.225E-01
RMM:  10    -0.142748830241E+03    0.63411E-02   -0.14102E-04  2355   0.271E-02    0.276E-02
RMM:  11    -0.142748826159E+03    0.40819E-05   -0.62718E-05  2116   0.193E-02
   3 F= -.14274883E+03 E0= -.14274707E+03  d E =-.119633E-01
       N       E                     dE             d eps       ncg     rms          rms(c)
DAV:   1    -0.142749413609E+03   -0.58337E-03   -0.19165E-01  2860   0.179E+00
DAV:   2    -0.142749811854E+03   -0.39825E-03   -0.39824E-03  3080   0.230E-01
DAV:   3    -0.142749813782E+03   -0.19277E-05   -0.19282E-05  2430   0.160E-02
DAV:   4    -0.142749813896E+03   -0.11463E-06   -0.11446E-06  1930   0.404E-03
DAV:   5    -0.142749813919E+03   -0.22450E-07   -0.22483E-07  1600   0.161E-03
DAV:   6    -0.142749813925E+03   -0.56179E-08   -0.58311E-08  1525   0.761E-04
DAV:   7    -0.142749813927E+03   -0.22128E-08   -0.16752E-08  1520   0.398E-04
DAV:   8    -0.142749813927E+03   -0.80036E-10   -0.51995E-09  1510   0.211E-04    0.522E-02
RMM:   9    -0.142756247903E+03   -0.64340E-02   -0.47959E-04  2502   0.520E-02    0.208E-01
RMM:  10    -0.142749599319E+03    0.66486E-02   -0.17188E-04  2361   0.296E-02    0.183E-02
RMM:  11    -0.142749571793E+03    0.27526E-04   -0.11395E-04  2276   0.260E-02    0.170E-02
RMM:  12    -0.142749564002E+03    0.77906E-05   -0.16616E-05  1607   0.101E-02
   4 F= -.14274956E+03 E0= -.14274780E+03  d E =-.737843E-03
       N       E                     dE             d eps       ncg     rms          rms(c)
DAV:   1    -0.142749708336E+03   -0.13654E-03   -0.34582E-02  3220   0.760E-01
DAV:   2    -0.142749785459E+03   -0.77123E-04   -0.77122E-04  3035   0.103E-01
DAV:   3    -0.142749785782E+03   -0.32369E-06   -0.32400E-06  2205   0.708E-03
DAV:   4    -0.142749785830E+03   -0.47240E-07   -0.47167E-07  1725   0.226E-03
DAV:   5    -0.142749785842E+03   -0.12123E-07   -0.11925E-07  1540   0.102E-03
DAV:   6    -0.142749785845E+03   -0.33669E-08   -0.33906E-08  1525   0.510E-04
DAV:   7    -0.142749785846E+03   -0.11150E-08   -0.10277E-08  1525   0.265E-04
DAV:   8    -0.142749785846E+03    0.50022E-10   -0.32922E-09  1495   0.146E-04    0.534E-02
RMM:   9    -0.142763452319E+03   -0.13666E-01   -0.81365E-04  2520   0.618E-02    0.216E-01
RMM:  10    -0.142750068110E+03    0.13384E-01   -0.39906E-04  2377   0.445E-02    0.846E-02
RMM:  11    -0.142750524113E+03   -0.45600E-03   -0.93069E-05  2280   0.204E-02    0.117E-01
RMM:  12    -0.142749584043E+03    0.94007E-03   -0.25014E-05  1822   0.133E-02    0.375E-03
RMM:  13    -0.142749664953E+03   -0.80910E-04   -0.61686E-06  1442   0.667E-03    0.347E-02
RMM:  14    -0.142749587269E+03    0.77684E-04   -0.22417E-06  1333   0.410E-03    0.381E-03
RMM:  15    -0.142749601668E+03   -0.14399E-04   -0.87292E-07   928   0.295E-03    0.149E-02
RMM:  16    -0.142749589734E+03    0.11934E-04   -0.28875E-07   810   0.255E-03    0.594E-03
RMM:  17    -0.142749587845E+03    0.18881E-05   -0.68491E-08   564   0.205E-03
   5 F= -.14274959E+03 E0= -.14274781E+03  d E =-.761686E-03
       N       E                     dE             d eps       ncg     rms          rms(c)
DAV:   1    -0.142749594542E+03   -0.48085E-05   -0.21070E-03  3205   0.189E-01
DAV:   2    -0.142749598682E+03   -0.41398E-05   -0.41395E-05  2940   0.237E-02
DAV:   3    -0.142749598717E+03   -0.35213E-07   -0.35568E-07  1685   0.207E-03
DAV:   4    -0.142749598723E+03   -0.60600E-08   -0.61011E-08  1530   0.727E-04
DAV:   5    -0.142749598725E+03   -0.15207E-08   -0.14706E-08  1510   0.337E-04
DAV:   6    -0.142749598725E+03   -0.29831E-09   -0.39879E-09  1485   0.172E-04
DAV:   7    -0.142749598725E+03   -0.36380E-09   -0.11681E-09  1480   0.902E-05
DAV:   8    -0.142749598725E+03   -0.15280E-09   -0.37047E-10  1445   0.497E-05    0.445E-03
RMM:   9    -0.142749604031E+03   -0.53057E-05   -0.22104E-06  1037   0.385E-03
   6 F= -.14274960E+03 E0= -.14274782E+03  d E =-.777872E-03
       N       E                     dE             d eps       ncg     rms          rms(c)
DAV:   1    -0.142749740560E+03   -0.14183E-03   -0.66263E-02  2770   0.107E+00
DAV:   2    -0.142749865743E+03   -0.12518E-03   -0.12518E-03  3090   0.131E-01
DAV:   3    -0.142749866247E+03   -0.50482E-06   -0.50469E-06  2225   0.851E-03
DAV:   4    -0.142749866288E+03   -0.41051E-07   -0.41523E-07  1555   0.239E-03
DAV:   5    -0.142749866298E+03   -0.96552E-08   -0.91824E-08  1495   0.100E-03
DAV:   6    -0.142749866300E+03   -0.21319E-08   -0.25092E-08  1480   0.497E-04
DAV:   7    -0.142749866301E+03   -0.55297E-09   -0.74347E-09  1470   0.260E-04
DAV:   8    -0.142749866301E+03   -0.28376E-09   -0.23447E-09  1435   0.141E-04    0.225E-02
RMM:   9    -0.142749875272E+03   -0.89706E-05   -0.57299E-05  2191   0.191E-02
   7 F= -.14274988E+03 E0= -.14274813E+03  d E =-.271241E-03
       N       E                     dE             d eps       ncg     rms          rms(c)
DAV:   1    -0.142749895273E+03   -0.28972E-04   -0.59710E-03  2965   0.285E-01
DAV:   2    -0.142749910982E+03   -0.15708E-04   -0.15708E-04  3090   0.472E-02
DAV:   3    -0.142749911043E+03   -0.61192E-07   -0.61423E-07  1700   0.315E-03
DAV:   4    -0.142749911052E+03   -0.89676E-08   -0.91831E-08  1510   0.104E-03
DAV:   5    -0.142749911054E+03   -0.24238E-08   -0.21883E-08  1505   0.470E-04
DAV:   6    -0.142749911054E+03   -0.29104E-09   -0.60023E-09  1480   0.231E-04
DAV:   7    -0.142749911055E+03   -0.69758E-09   -0.17818E-09  1420   0.120E-04
DAV:   8    -0.142749911055E+03    0.57389E-09   -0.56218E-10  1410   0.655E-05    0.358E-02
RMM:   9    -0.142757511073E+03   -0.76000E-02   -0.31603E-04  2369   0.384E-02    0.210E-01
RMM:  10    -0.142749858511E+03    0.76526E-02   -0.19328E-04  2362   0.310E-02    0.282E-02
RMM:  11    -0.142750072874E+03   -0.21436E-03   -0.37845E-05  2025   0.148E-02    0.639E-02
RMM:  12    -0.142749890137E+03    0.18274E-03   -0.10541E-05  1626   0.864E-03    0.339E-02
RMM:  13    -0.142749828776E+03    0.61361E-04   -0.17861E-06  1263   0.423E-03    0.144E-02
RMM:  14    -0.142749823733E+03    0.50425E-05   -0.16141E-06  1134   0.332E-03
   8 F= -.14274982E+03 E0= -.14274804E+03  d E =-.219702E-03
       N       E                     dE             d eps       ncg     rms          rms(c)
DAV:   1    -0.142749816276E+03    0.12499E-04   -0.18931E-04  2700   0.536E-02
DAV:   2    -0.142749816727E+03   -0.45109E-06   -0.45074E-06  2005   0.829E-03
DAV:   3    -0.142749816752E+03   -0.24547E-07   -0.24569E-07  1585   0.194E-03
DAV:   4    -0.142749816755E+03   -0.33688E-08   -0.33440E-08  1505   0.674E-04
DAV:   5    -0.142749816756E+03   -0.25466E-09   -0.69316E-09  1490   0.281E-04
DAV:   6    -0.142749816756E+03   -0.14552E-09   -0.17351E-09  1450   0.134E-04
DAV:   7    -0.142749816756E+03   -0.57480E-09   -0.50324E-10  1450   0.684E-05
DAV:   8    -0.142749816756E+03    0.43656E-10   -0.16217E-10  1435   0.367E-05    0.244E-03
RMM:   9    -0.142749864109E+03   -0.47352E-04   -0.86352E-07   903   0.262E-03    0.275E-02
RMM:  10    -0.142749815666E+03    0.48442E-04   -0.10401E-07   478   0.182E-03    0.926E-04
RMM:  11    -0.142749816361E+03   -0.69464E-06   -0.85692E-08   445   0.193E-03
   9 F= -.14274982E+03 E0= -.14274804E+03  d E =-.212330E-03
       N       E                     dE             d eps       ncg     rms          rms(c)
DAV:   1    -0.142749813874E+03    0.17924E-05   -0.54075E-04  2775   0.973E-02
DAV:   2    -0.142749814904E+03   -0.10298E-05   -0.10300E-05  2045   0.121E-02
DAV:   3    -0.142749814935E+03   -0.31315E-07   -0.30721E-07  1395   0.216E-03
DAV:   4    -0.142749814938E+03   -0.35216E-08   -0.36236E-08  1380   0.683E-04
DAV:   5    -0.142749814939E+03   -0.66211E-09   -0.69869E-09  1375   0.278E-04
DAV:   6    -0.142749814939E+03   -0.65484E-10   -0.16536E-09  1370   0.129E-04
DAV:   7    -0.142749814939E+03    0.20373E-09   -0.45443E-10  1360   0.641E-05
DAV:   8    -0.142749814939E+03   -0.21828E-10   -0.13811E-10  1355   0.335E-05    0.206E-03
RMM:   9    -0.142749819262E+03   -0.43234E-05   -0.17652E-08   344   0.186E-03
  10 F= -.14274982E+03 E0= -.14274805E+03  d E =-.215231E-03
       N       E                     dE             d eps       ncg     rms          rms(c)
DAV:   1    -0.142749815322E+03   -0.38290E-06   -0.14092E-04  2515   0.525E-02
DAV:   2    -0.142749815769E+03   -0.44746E-06   -0.44710E-06  1470   0.810E-03
DAV:   3    -0.142749815793E+03   -0.23252E-07   -0.23385E-07  1325   0.188E-03
DAV:   4    -0.142749815795E+03   -0.28158E-08   -0.30251E-08  1315   0.636E-04
DAV:   5    -0.142749815796E+03   -0.77034E-09   -0.58254E-09  1315   0.255E-04
DAV:   6    -0.142749815796E+03   -0.13824E-09   -0.13322E-09  1315   0.117E-04
DAV:   7    -0.142749815796E+03   -0.58208E-10   -0.35461E-10  1315   0.565E-05
DAV:   8    -0.142749815796E+03    0.21100E-09   -0.10224E-10  1315   0.289E-05    0.104E-03
RMM:   9    -0.142749825051E+03   -0.92552E-05   -0.18576E-08   415   0.117E-03
  11 F= -.14274983E+03 E0= -.14274806E+03  d E =-.221020E-03
       N       E                     dE             d eps       ncg     rms          rms(c)
DAV:   1    -0.142749815949E+03   -0.15253E-06   -0.62702E-05  2415   0.406E-02
DAV:   2    -0.142749816298E+03   -0.34972E-06   -0.34990E-06  1410   0.728E-03
DAV:   3    -0.142749816317E+03   -0.19055E-07   -0.18972E-07  1335   0.169E-03
DAV:   4    -0.142749816320E+03   -0.24665E-08   -0.23909E-08  1315   0.560E-04
DAV:   5    -0.142749816320E+03   -0.16644E-09   -0.43826E-09  1315   0.219E-04
DAV:   6    -0.142749816320E+03   -0.20373E-09   -0.94665E-10  1315   0.985E-05
DAV:   7    -0.142749816320E+03   -0.11642E-09   -0.23340E-10  1300   0.463E-05
DAV:   8    -0.142749816320E+03   -0.50932E-10   -0.63286E-11  1300   0.232E-05    0.942E-04
RMM:   9    -0.142749817965E+03   -0.16451E-05   -0.66844E-09   350   0.899E-04
  12 F= -.14274982E+03 E0= -.14274804E+03  d E =-.213934E-03
       N       E                     dE             d eps       ncg     rms          rms(c)
DAV:   1    -0.142749844322E+03   -0.28002E-04   -0.13687E-02  2740   0.465E-01
DAV:   2    -0.142749866642E+03   -0.22320E-04   -0.22319E-04  3100   0.540E-02
DAV:   3    -0.142749866744E+03   -0.10231E-06   -0.10247E-06  1595   0.382E-03
DAV:   4    -0.142749866761E+03   -0.16087E-07   -0.16268E-07  1420   0.123E-03
DAV:   5    -0.142749866765E+03   -0.42855E-08   -0.43645E-08  1350   0.565E-04
DAV:   6    -0.142749866766E+03   -0.16807E-08   -0.12740E-08  1345   0.288E-04
DAV:   7    -0.142749866766E+03    0.23283E-09   -0.39479E-09  1320   0.151E-04
DAV:   8    -0.142749866766E+03   -0.24738E-09   -0.12762E-09  1310   0.836E-05    0.109E-02
RMM:   9    -0.142750027310E+03   -0.16054E-03   -0.14682E-05  1570   0.955E-03    0.527E-02
RMM:  10    -0.142749855319E+03    0.17199E-03   -0.32533E-06  1300   0.516E-03    0.517E-03
RMM:  11    -0.142749854868E+03    0.45120E-06   -0.89800E-06  1437   0.788E-03
  13 F= -.14274985E+03 E0= -.14274807E+03  d E =-.369028E-04
       N       E                     dE             d eps       ncg     rms          rms(c)
DAV:   1    -0.142749854866E+03    0.45331E-06   -0.20499E-03  3185   0.180E-01
DAV:   2    -0.142749858156E+03   -0.32896E-05   -0.32895E-05  2825   0.210E-02
DAV:   3    -0.142749858185E+03   -0.29453E-07   -0.29949E-07  1565   0.189E-03
DAV:   4    -0.142749858191E+03   -0.55734E-08   -0.52565E-08  1490   0.680E-04
DAV:   5    -0.142749858192E+03   -0.15343E-08   -0.13010E-08  1480   0.316E-04
DAV:   6    -0.142749858193E+03   -0.17462E-09   -0.36210E-09  1450   0.162E-04
DAV:   7    -0.142749858193E+03   -0.19008E-09   -0.10920E-09  1405   0.854E-05
DAV:   8    -0.142749858193E+03    0.81855E-11   -0.35220E-10  1385   0.474E-05    0.424E-03
RMM:   9    -0.142749877971E+03   -0.19779E-04   -0.17898E-06  1103   0.352E-03    0.188E-02
RMM:  10    -0.142749856336E+03    0.21635E-04   -0.35987E-08   444   0.198E-03    0.226E-03
RMM:  11    -0.142749856407E+03   -0.71414E-07   -0.23413E-06  1222   0.416E-03
  14 F= -.14274986E+03 E0= -.14274808E+03  d E =-.384418E-04
       N       E                     dE             d eps       ncg     rms          rms(c)
DAV:   1    -0.142749865350E+03   -0.90140E-05   -0.14705E-02  2670   0.483E-01
DAV:   2    -0.142749888491E+03   -0.23142E-04   -0.23142E-04  3130   0.555E-02
DAV:   3    -0.142749888606E+03   -0.11410E-06   -0.11383E-06  1585   0.404E-03
DAV:   4    -0.142749888622E+03   -0.16742E-07   -0.16870E-07  1510   0.128E-03
DAV:   5    -0.142749888627E+03   -0.44456E-08   -0.43809E-08  1485   0.576E-04
DAV:   6    -0.142749888628E+03   -0.11787E-08   -0.12510E-08  1410   0.294E-04
DAV:   7    -0.142749888628E+03   -0.51659E-09   -0.37533E-09  1395   0.151E-04
DAV:   8    -0.142749888628E+03   -0.65484E-10   -0.11810E-09  1390   0.834E-05    0.108E-02
RMM:   9    -0.142749904649E+03   -0.16020E-04   -0.83593E-06  1436   0.779E-03    0.204E-02
RMM:  10    -0.142749883542E+03    0.21107E-04   -0.14866E-06  1092   0.357E-03    0.897E-03
RMM:  11    -0.142749877733E+03    0.58088E-05   -0.94408E-06  1464   0.811E-03
  15 F= -.14274988E+03 E0= -.14274810E+03  d E =-.213257E-04
       N       E                     dE             d eps       ncg     rms          rms(c)
DAV:   1    -0.142749876088E+03    0.74539E-05   -0.52056E-04  3050   0.926E-02
DAV:   2    -0.142749877121E+03   -0.10336E-05   -0.10339E-05  2315   0.120E-02
DAV:   3    -0.142749877150E+03   -0.28798E-07   -0.28439E-07  1570   0.176E-03
DAV:   4    -0.142749877155E+03   -0.49040E-08   -0.50344E-08  1480   0.623E-04
DAV:   5    -0.142749877156E+03   -0.13606E-08   -0.11753E-08  1460   0.286E-04
DAV:   6    -0.142749877157E+03   -0.11642E-09   -0.31003E-09  1420   0.136E-04
DAV:   7    -0.142749877157E+03   -0.48021E-09   -0.88873E-10  1420   0.716E-05
DAV:   8    -0.142749877157E+03    0.31287E-09   -0.27282E-10  1400   0.371E-05    0.212E-03
RMM:   9    -0.142749878966E+03   -0.18089E-05   -0.34367E-08   337   0.156E-03
  16 F= -.14274988E+03 E0= -.14274810E+03  d E =-.225584E-04
       N       E                     dE             d eps       ncg     rms          rms(c)
DAV:   1    -0.142749874664E+03    0.24927E-05   -0.12718E-02  2670   0.466E-01
DAV:   2    -0.142749895871E+03   -0.21207E-04   -0.21207E-04  3125   0.549E-02
DAV:   3    -0.142749895966E+03   -0.94767E-07   -0.94220E-07  1550   0.377E-03
DAV:   4    -0.142749895980E+03   -0.14399E-07   -0.14515E-07  1400   0.122E-03
DAV:   5    -0.142749895984E+03   -0.37035E-08   -0.37856E-08  1390   0.552E-04
DAV:   6    -0.142749895985E+03   -0.96043E-09   -0.10836E-08  1375   0.284E-04
DAV:   7    -0.142749895985E+03   -0.56752E-09   -0.32635E-09  1370   0.145E-04
DAV:   8    -0.142749895985E+03   -0.43656E-10   -0.10335E-09  1345   0.807E-05    0.103E-02
RMM:   9    -0.142749936413E+03   -0.40427E-04   -0.88154E-06  1418   0.801E-03    0.280E-02
RMM:  10    -0.142749890204E+03    0.46209E-04   -0.13826E-06  1176   0.368E-03    0.690E-03
RMM:  11    -0.142749887301E+03    0.29032E-05   -0.72970E-06  1454   0.733E-03
  17 F= -.14274989E+03 E0= -.14274811E+03  d E =-.833495E-05
       N       E                     dE             d eps       ncg     rms          rms(c)
DAV:   1    -0.142749879344E+03    0.10860E-04   -0.73219E-03  2860   0.353E-01
DAV:   2    -0.142749890980E+03   -0.11635E-04   -0.11635E-04  3095   0.409E-02
DAV:   3    -0.142749891030E+03   -0.50785E-07   -0.51014E-07  1750   0.280E-03
DAV:   4    -0.142749891038E+03   -0.80618E-08   -0.79736E-08  1525   0.924E-04
DAV:   5    -0.142749891041E+03   -0.22119E-08   -0.20845E-08  1510   0.424E-04
DAV:   6    -0.142749891041E+03   -0.25466E-09   -0.59828E-09  1490   0.220E-04
DAV:   7    -0.142749891041E+03    0.14552E-09   -0.18126E-09  1450   0.114E-04
DAV:   8    -0.142749891041E+03   -0.56752E-09   -0.57876E-10  1445   0.636E-05    0.733E-03
RMM:   9    -0.142749935829E+03   -0.44788E-04   -0.52292E-06  1373   0.608E-03    0.281E-02
RMM:  10    -0.142749886904E+03    0.48925E-04   -0.91413E-07  1058   0.303E-03    0.410E-03
RMM:  11    -0.142749886296E+03    0.60756E-06   -0.37291E-06  1397   0.530E-03
  18 F= -.14274989E+03 E0= -.14274811E+03  d E =-.733054E-05
       N       E                     dE             d eps       ncg     rms          rms(c)
DAV:   1    -0.142749895966E+03   -0.90627E-05   -0.27145E-03  2770   0.211E-01
DAV:   2    -0.142749900167E+03   -0.42008E-05   -0.42007E-05  3005   0.242E-02
DAV:   3    -0.142749900193E+03   -0.26048E-07   -0.26477E-07  1525   0.181E-03
DAV:   4    -0.142749900198E+03   -0.50122E-08   -0.44826E-08  1505   0.618E-04
DAV:   5    -0.142749900199E+03   -0.89494E-09   -0.11244E-08  1495   0.281E-04
DAV:   6    -0.142749900200E+03   -0.39290E-09   -0.31143E-09  1435   0.144E-04
DAV:   7    -0.142749900200E+03    0.87311E-10   -0.91286E-10  1405   0.746E-05
DAV:   8    -0.142749900200E+03   -0.23283E-09   -0.29526E-10  1395   0.412E-05    0.435E-03
RMM:   9    -0.142749905442E+03   -0.52421E-05   -0.11917E-06   896   0.297E-03
  19 F= -.14274991E+03 E0= -.14274812E+03  d E =-.191457E-04
       N       E                     dE             d eps       ncg     rms          rms(c)
DAV:   1    -0.142749900642E+03   -0.44173E-06   -0.21238E-03  2710   0.186E-01
DAV:   2    -0.142749904357E+03   -0.37153E-05   -0.37150E-05  3045   0.228E-02
DAV:   3    -0.142749904388E+03   -0.30886E-07   -0.31080E-07  1490   0.189E-03
DAV:   4    -0.142749904393E+03   -0.56825E-08   -0.54034E-08  1410   0.651E-04
DAV:   5    -0.142749904395E+03   -0.13752E-08   -0.13167E-08  1380   0.296E-04
DAV:   6    -0.142749904395E+03   -0.50932E-09   -0.35318E-09  1360   0.148E-04
DAV:   7    -0.142749904395E+03    0.29831E-09   -0.10094E-09  1345   0.755E-05
DAV:   8    -0.142749904395E+03   -0.34925E-09   -0.30562E-10  1340   0.407E-05    0.640E-03
RMM:   9    -0.142749942275E+03   -0.37880E-04   -0.30119E-06  1259   0.447E-03    0.261E-02
RMM:  10    -0.142749901209E+03    0.41066E-04   -0.34567E-07   719   0.257E-03    0.381E-03
RMM:  11    -0.142749900964E+03    0.24560E-06   -0.40991E-06  1434   0.566E-03
  20 F= -.14274990E+03 E0= -.14274812E+03  d E =-.146674E-04
