 vasp.5.4.4.18Apr17-6-g9f103f2a35 (build Nov 15 2019 10:10:58) complex          
  
 executed on             LinuxIFC date 2024.06.26  20:39:44
 running on   20 total cores
 distrk:  each k-point on   20 cores,    1 groups
 distr:  one band on NCORES_PER_BAND=   4 cores,    5 groups


--------------------------------------------------------------------------------------------------------


 INCAR:
 POTCAR:    PAW_PBE Mg 13Apr2007                  
 POTCAR:    PAW_PBE O 08Apr2002                   
 POTCAR:    PAW_PBE Mg 13Apr2007                  
   VRHFIN =Mg: s2p0                                                             
   LEXCH  = PE                                                                  
   EATOM  =    23.0369 eV,    1.6932 Ry                                         
                                                                                
   TITEL  = PAW_PBE Mg 13Apr2007                                                
   LULTRA =        F    use ultrasoft PP ?                                      
   IUNSCR =        1    unscreen: 0-lin 1-nonlin 2-no                           
   RPACOR =    1.500    partial core radius                                     
   POMASS =   24.305; ZVAL   =    2.000    mass and valenz                      
   RCORE  =    2.000    outmost cutoff radius                                   
   RWIGS  =    2.880; RWIGS  =    1.524    wigner-seitz radius (au A)           
   ENMAX  =  200.000; ENMIN  =  100.000 eV                                      
   RCLOC  =    1.506    cutoff for local pot                                    
   LCOR   =        T    correct aug charges                                     
   LPAW   =        T    paw PP                                                  
   EAUG   =  454.734                                                            
   DEXC   =    0.000                                                            
   RMAX   =    2.045    core radius for proj-oper                               
   RAUG   =    1.300    factor for augmentation sphere                          
   RDEP   =    2.025    radius for radial grids                                 
   RDEPT  =    1.942    core radius for aug-charge                              
                                                                                
   Atomic configuration                                                         
    6 entries                                                                   
     n  l   j            E        occ.                                          
     1  0  0.50     -1259.6230   2.0000                                         
     2  0  0.50       -79.8442   2.0000                                         
     2  1  1.50       -46.6121   6.0000                                         
     3  0  0.50        -4.7055   2.0000                                         
     3  1  0.50        -1.3660   0.0000                                         
     3  2  1.50        -1.3606   0.0000                                         
   Description                                                                  
     l       E           TYP  RCUT    TYP  RCUT                                 
     0     -4.7054661     23  2.000                                             
     0     27.2116520     23  2.000                                             
     1      1.3605826     23  2.000                                             
     1     27.2116520     23  2.000                                             
     2     -1.3605826     23  2.000                                             
  local pseudopotential read in
  partial core-charges read in
  partial kinetic energy density read in
  atomic valenz-charges read in
  non local Contribution for L=           0  read in
    real space projection operators read in
  non local Contribution for L=           0  read in
    real space projection operators read in
  non local Contribution for L=           1  read in
    real space projection operators read in
  non local Contribution for L=           1  read in
    real space projection operators read in
  non local Contribution for L=           2  read in
    real space projection operators read in
    PAW grid and wavefunctions read in
 
   number of l-projection  operators is LMAX  =           5
   number of lm-projection operators is LMMAX =          13
 
 POTCAR:    PAW_PBE O 08Apr2002                   
   VRHFIN =O: s2p4                                                              
   LEXCH  = PE                                                                  
   EATOM  =   432.3788 eV,   31.7789 Ry                                         
                                                                                
   TITEL  = PAW_PBE O 08Apr2002                                                 
   LULTRA =        F    use ultrasoft PP ?                                      
   IUNSCR =        1    unscreen: 0-lin 1-nonlin 2-no                           
   RPACOR =    1.200    partial core radius                                     
   POMASS =   16.000; ZVAL   =    6.000    mass and valenz                      
   RCORE  =    1.520    outmost cutoff radius                                   
   RWIGS  =    1.550; RWIGS  =    0.820    wigner-seitz radius (au A)           
   ENMAX  =  400.000; ENMIN  =  300.000 eV                                      
   ICORE  =        2    local potential                                         
   LCOR   =        T    correct aug charges                                     
   LPAW   =        T    paw PP                                                  
   EAUG   =  605.392                                                            
   DEXC   =    0.000                                                            
   RMAX   =    1.553    core radius for proj-oper                               
   RAUG   =    1.300    factor for augmentation sphere                          
   RDEP   =    1.550    radius for radial grids                                 
   RDEPT  =    1.329    core radius for aug-charge                              
                                                                                
   Atomic configuration                                                         
    4 entries                                                                   
     n  l   j            E        occ.                                          
     1  0  0.50      -514.6923   2.0000                                         
     2  0  0.50       -23.9615   2.0000                                         
     2  1  0.50        -9.0305   4.0000                                         
     3  2  1.50        -9.5241   0.0000                                         
   Description                                                                  
     l       E           TYP  RCUT    TYP  RCUT                                 
     0    -23.9615318     23  1.200                                             
     0     -9.5240782     23  1.200                                             
     1     -9.0304911     23  1.520                                             
     1      8.1634956     23  1.520                                             
     2     -9.5240782      7  1.500                                             
  local pseudopotential read in
  partial core-charges read in
  partial kinetic energy density read in
  kinetic energy density of atom read in
  atomic valenz-charges read in
  non local Contribution for L=           0  read in
    real space projection operators read in
  non local Contribution for L=           0  read in
    real space projection operators read in
  non local Contribution for L=           1  read in
    real space projection operators read in
  non local Contribution for L=           1  read in
    real space projection operators read in
    PAW grid and wavefunctions read in
 
   number of l-projection  operators is LMAX  =           4
   number of lm-projection operators is LMMAX =           8
 
 Optimization of the real space projectors (new method)

 maximal supplied QI-value         = 18.90
 optimisation between [QCUT,QGAM] = [ 10.77, 27.02] = [ 32.49,204.49] Ry 
 Optimized for a Real-space Cutoff    1.14 Angstroem

   l    n(q)    QCUT    max X(q) W(low)/X(q) W(high)/X(q)  e(spline) 
   0      9    10.771    28.265    0.55E-04    0.11E-03    0.18E-06
   0      9    10.771    10.429    0.35E-04    0.89E-04    0.15E-06
   1      9    10.771    13.073    0.36E-03    0.68E-04    0.34E-06
   1      9    10.771     9.625    0.30E-03    0.60E-04    0.28E-06
   2      8    10.771     4.652    0.10E-03    0.16E-03    0.22E-06
 Optimization of the real space projectors (new method)

 maximal supplied QI-value         = 24.76
 optimisation between [QCUT,QGAM] = [ 10.64, 26.98] = [ 31.73,203.89] Ry 
 Optimized for a Real-space Cutoff    0.98 Angstroem

   l    n(q)    QCUT    max X(q) W(low)/X(q) W(high)/X(q)  e(spline) 
   0      8    10.645    20.381    0.22E-03    0.11E-04    0.15E-06
   0      8    10.645    15.268    0.23E-03    0.14E-04    0.16E-06
   1      7    10.645     5.964    0.39E-03    0.37E-03    0.76E-07
   1      7    10.645     5.382    0.33E-03    0.32E-03    0.66E-07
  PAW_PBE Mg 13Apr2007                  :
 energy of atom  1       EATOM=  -23.0369
 kinetic energy error for atom=    0.0001 (will be added to EATOM!!)
  PAW_PBE O 08Apr2002                   :
 energy of atom  2       EATOM= -432.3788
 kinetic energy error for atom=    0.0389 (will be added to EATOM!!)
 
 
 POSCAR: MgO25                                   
  positions in direct lattice
  No initial velocities read in
 exchange correlation table for  LEXCH =        8
   RHO(1)=    0.500       N(1)  =     2000
   RHO(2)=  100.500       N(2)  =     4000

 VTST: version 3.2, (02/03/18)

 CHAIN: initializing optimizer
 
 OPT: Using VASP Conjugate-Gradient optimizer
 CHAIN: Read ICHAIN            0
 
 POSCAR: MgO25                                   
  positions in direct lattice
  No initial velocities read in
 


--------------------------------------------------------------------------------------------------------


 ion  position               nearest neighbor table
   1  0.000  0.000  0.023-  18 2.12  18 2.12  18 2.12   2 3.00   2 3.00   2 3.00
   2  0.333  0.667  0.078-  18 2.12  18 2.12  18 2.12  14 2.12  14 2.12  14 2.12   1 3.00   1 3.00
                             1 3.00  10 3.00  10 3.00  10 3.00
   3  0.000  0.000  0.188-  19 2.12  22 2.12  19 2.12  22 2.12  19 2.12  22 2.12   4 3.00   4 3.00
                             4 3.00  10 3.00  10 3.00  10 3.00
   4  0.333  0.667  0.243-  19 2.12  19 2.12  19 2.12  15 2.12  15 2.12  15 2.12   3 3.00   3 3.00
                             3 3.00  11 3.00  11 3.00  11 3.00
   5  0.000  0.000  0.354-  20 2.12  20 2.12  20 2.12  23 2.12  23 2.12  23 2.12   6 3.00   6 3.00
                             6 3.00  11 3.00  11 3.00  11 3.00
   6  0.333  0.667  0.409-  16 2.12  20 2.12  20 2.12  16 2.12  16 2.12  20 2.12   5 3.00   5 3.00
                             5 3.00  12 3.00  12 3.00  12 3.00
   7  0.000  0.000  0.519-  21 2.12  21 2.12  21 2.12  24 2.12  24 2.12  24 2.12   8 3.00   8 3.00
                             8 3.00  12 3.00  12 3.00  12 3.00
   8  0.333  0.667  0.575-  17 2.12  21 2.12  21 2.12  17 2.12  17 2.12  21 2.12   7 3.00   7 3.00
                             7 3.00  13 3.00  13 3.00  13 3.00
   9  0.000  0.000  0.685-  25 2.12  25 2.12  25 2.12  13 3.00  13 3.00  13 3.00
  10  0.667  0.333  0.133-  14 2.12  22 2.12  22 2.12  14 2.12  14 2.12  22 2.12   2 3.00   3 3.00
                             2 3.00   3 3.00   3 3.00   2 3.00
  11  0.667  0.333  0.299-  15 2.12  23 2.12  23 2.12  15 2.12  15 2.12  23 2.12   4 3.00   5 3.00
                             4 3.00   5 3.00   5 3.00   4 3.00
  12  0.667  0.333  0.464-  16 2.12  24 2.12  24 2.12  16 2.12  16 2.12  24 2.12   6 3.00   7 3.00
                             6 3.00   7 3.00   7 3.00   6 3.00
  13  0.667  0.333  0.630-  17 2.12  25 2.12  25 2.12  17 2.12  17 2.12  25 2.12   8 3.00   9 3.00
                             8 3.00   9 3.00   9 3.00   8 3.00
  14  0.000  0.000  0.105-   2 2.12  10 2.12   2 2.12  10 2.12  10 2.12   2 2.12
  15  0.000  0.000  0.271-   4 2.12  11 2.12   4 2.12  11 2.12   4 2.12  11 2.12
  16  0.000  0.000  0.437-  12 2.12   6 2.12  12 2.12   6 2.12  12 2.12   6 2.12
  17  0.000  0.000  0.602-   8 2.12  13 2.12   8 2.12  13 2.12  13 2.12   8 2.12
  18  0.667  0.333  0.050-   2 2.12   2 2.12   2 2.12   1 2.12   1 2.12   1 2.12
  19  0.667  0.333  0.216-   4 2.12   4 2.12   4 2.12   3 2.12   3 2.12   3 2.12
  20  0.667  0.333  0.381-   5 2.12   5 2.12   5 2.12   6 2.12   6 2.12   6 2.12
  21  0.667  0.333  0.547-   7 2.12   7 2.12   7 2.12   8 2.12   8 2.12   8 2.12
  22  0.333  0.667  0.161-   3 2.12  10 2.12  10 2.12   3 2.12   3 2.12  10 2.12
  23  0.333  0.667  0.326-   5 2.12  11 2.12  11 2.12   5 2.12   5 2.12  11 2.12
  24  0.333  0.667  0.492-   7 2.12  12 2.12  12 2.12   7 2.12   7 2.12  12 2.12
  25  0.333  0.667  0.657-   9 2.12  13 2.12  13 2.12   9 2.12   9 2.12  13 2.12
 
  LATTYP: Found a hexagonal cell.
 ALAT       =     3.0044062036
 C/A-ratio  =    14.7906237407
  
  Lattice vectors:
  
 A1 = (   2.1244360000,  -2.1244350000,   0.0000000000)
 A2 = (   0.0000000000,   2.1244360000,  -2.1244360000)
 A3 = (  25.6557380000,  25.6557380000,  25.6557380000)


Analysis of symmetry for initial positions (statically):
=====================================================================
 Subroutine PRICEL returns:
 Original cell was already a primitive cell.
 

 Routine SETGRP: Setting up the symmetry group for a 
 hexagonal supercell.


 Subroutine GETGRP returns: Found 12 space group operations
 (whereof  6 operations were pure point group operations)
 out of a pool of 24 trial point group operations.


The static configuration has the point symmetry C_3v.
 The point group associated with its full space group is D_3d.


Analysis of symmetry for dynamics (positions and initial velocities):
=====================================================================
 Subroutine PRICEL returns:
 Original cell was already a primitive cell.
 

 Routine SETGRP: Setting up the symmetry group for a 
 hexagonal supercell.


 Subroutine GETGRP returns: Found 12 space group operations
 (whereof  6 operations were pure point group operations)
 out of a pool of 24 trial point group operations.


The dynamic configuration has the point symmetry C_3v.
 The point group associated with its full space group is D_3d.


Analysis of constrained symmetry for selective dynamics:
=====================================================================
 Subroutine PRICEL returns:
 Original cell was already a primitive cell.
 

 Routine SETGRP: Setting up the symmetry group for a 
 hexagonal supercell.


 Subroutine GETGRP returns: Found  6 space group operations
 (whereof  6 operations were pure point group operations)
 out of a pool of 24 trial point group operations.


The constrained configuration has the point symmetry C_3v.


 Subroutine INISYM returns: Found  6 space group operations
 (whereof  6 operations are pure point group operations),
 and found     1 'primitive' translations

 
 
 KPOINTS: K-Spacing Value to Generate K-Mesh: 0.02

Automatic generation of k-mesh.
Space group operators:
 irot       det(A)        alpha          n_x          n_y          n_z        tau_x        tau_y        tau_z
    1     1.000000     0.000000     1.000000     0.000000     0.000000     0.000000     0.000000     0.000000
    2     1.000000   120.000000    -0.577350    -0.577350    -0.577350     0.000000     0.000000     0.000000
    3     1.000000   120.000000     0.577350     0.577350     0.577350     0.000000     0.000000     0.000000
    4    -1.000000   180.000000     0.707107    -0.707107    -0.000000     0.000000     0.000000     0.000000
    5    -1.000000   180.000000    -0.000000     0.707107    -0.707107     0.000000     0.000000     0.000000
    6    -1.000000   180.000000    -0.707107    -0.000000     0.707107     0.000000     0.000000     0.000000
 
 Subroutine IBZKPT returns following result:
 ===========================================
 
 Found     20 irreducible k-points:
 
 Following reciprocal coordinates:
            Coordinates               Weight
  0.062500  0.062500  0.000000     48.000000
  0.187500  0.062500  0.000000     96.000000
  0.312500  0.062500  0.000000     96.000000
  0.437500  0.062500 -0.000000     96.000000
 -0.437500  0.062500 -0.000000     96.000000
 -0.312500  0.062500 -0.000000     96.000000
 -0.187500  0.062500  0.000000     96.000000
 -0.062500  0.062500  0.000000     48.000000
  0.187500  0.187500  0.000000     48.000000
  0.312500  0.187500  0.000000     96.000000
  0.437500  0.187500 -0.000000     96.000000
 -0.437500  0.187500 -0.000000     96.000000
 -0.312500  0.187500  0.000000     96.000000
 -0.187500  0.187500  0.000000     48.000000
  0.312500  0.312500  0.000000     48.000000
  0.437500  0.312500  0.000000     96.000000
 -0.437500  0.312500 -0.000000     96.000000
 -0.312500  0.312500  0.000000     48.000000
  0.437500  0.437500  0.000000     48.000000
 -0.437500  0.437500 -0.000000     48.000000
 
 Following cartesian coordinates:
            Coordinates               Weight
  0.029420  0.000000 -0.029420     48.000000
  0.068646 -0.019613 -0.049033     96.000000
  0.107872 -0.039226 -0.068646     96.000000
  0.147098 -0.058839 -0.088259     96.000000
 -0.127485  0.078452  0.049033     96.000000
 -0.088259  0.058839  0.029420     96.000000
 -0.049033  0.039226  0.009807     96.000000
 -0.009807  0.019613 -0.009807     48.000000
  0.088259  0.000000 -0.088259     48.000000
  0.127485 -0.019613 -0.107872     96.000000
  0.166711 -0.039226 -0.127485     96.000000
 -0.107872  0.098065  0.009807     96.000000
 -0.068646  0.078452 -0.009807     96.000000
 -0.029420  0.058839 -0.029420     48.000000
  0.147098 -0.000000 -0.147098     48.000000
  0.186324 -0.019613 -0.166711     96.000000
 -0.088259  0.117678 -0.029420     96.000000
 -0.049033  0.098065 -0.049033     48.000000
  0.205937  0.000000 -0.205937     48.000000
 -0.068646  0.137291 -0.068646     48.000000
 


--------------------------------------------------------------------------------------------------------




 Dimension of arrays:
   k-points           NKPTS =     20   k-points in BZ     NKDIM =     20   number of bands    NBANDS=     65
   number of dos      NEDOS =    301   number of ions     NIONS =     25
   non local maximal  LDIM  =      5   non local SUM 2l+1 LMDIM =     13
   total plane-waves  NPLWV = 184320
   max r-space proj   IRMAX =   3324   max aug-charges    IRDMAX=   7712
   dimension x,y,z NGX =    24 NGY =   24 NGZ =  320
   dimension x,y,z NGXF=    32 NGYF=   32 NGZF=  480
   support grid    NGXF=    32 NGYF=   32 NGZF=  480
   ions per type =              13  12
   NGX,Y,Z   is equivalent  to a cutoff of  13.28, 13.28, 11.97 a.u.
   NGXF,Y,Z  is equivalent  to a cutoff of  17.71, 17.71, 17.96 a.u.

 SYSTEM =  Al110                                   
 POSCAR =  MgO25                                   

 Startparameter for this run:
   NWRITE =      2    write-flag & timer
   PREC   = h         normal or accurate (medium, high low for compatibility)
   ISTART =      0    job   : 0-new  1-cont  2-samecut
   ICHARG =      2    charge: 1-file 2-atom 10-const
   ISPIN  =      1    spin polarized calculation?
   LNONCOLLINEAR =      F non collinear calculations
   LSORBIT =      F    spin-orbit coupling
   INIWAV =      1    electr: 0-lowe 1-rand  2-diag
   LASPH  =      F    aspherical Exc in radial PAW
   METAGGA=      F    non-selfconsistent MetaGGA calc.

 Electronic Relaxation 1
   ENCUT  =  450.0 eV  33.07 Ry    5.75 a.u.   5.20  5.20 76.86*2*pi/ulx,y,z
   ENINI  =  450.0     initial cutoff
   ENAUG  =  605.4 eV  augmentation charge cutoff
   NELM   =    100;   NELMIN=  8; NELMDL=  8     # of ELM steps 
   EDIFF  = 0.1E-04   stopping-criterion for ELM
   LREAL  =      T    real-space projection
   NLSPLINE    = F    spline interpolate recip. space projectors
   LCOMPAT=      F    compatible to vasp.4.4
   GGA_COMPAT  = T    GGA compatible to vasp.4.4-vasp.4.6
   LMAXPAW     = -100 max onsite density
   LMAXMIX     =    2 max onsite mixed and CHGCAR
   VOSKOWN=      0    Vosko Wilk Nusair interpolation
   ROPT   =   -0.00040  -0.00040
 Ionic relaxation
   EDIFFG = -.1E-01   stopping-criterion for IOM
   NSW    =    500    number of steps for IOM
   NBLOCK =      1;   KBLOCK =    500    inner block; outer block 
   IBRION =      2    ionic relax: 0-MD 1-quasi-New 2-CG
   NFREE  =      1    steps in history (QN), initial steepest desc. (CG)
   ISIF   =      2    stress and relaxation
   IWAVPR =     11    prediction:  0-non 1-charg 2-wave 3-comb
   ISYM   =      2    0-nonsym 1-usesym 2-fastsym
   LCORR  =      T    Harris-Foulkes like correction to forces

   POTIM  = 0.5000    time-step for ionic-motion
   TEIN   =    0.0    initial temperature
   TEBEG  =    0.0;   TEEND  =   0.0 temperature during run
   SMASS  =  -3.00    Nose mass-parameter (am)
   estimated Nose-frequenzy (Omega)   =  0.10E-29 period in steps =****** mass=  -0.206E-27a.u.
   SCALEE = 1.0000    scale energy and forces
   NPACO  =    256;   APACO  = 16.0  distance and # of slots for P.C.
   PSTRESS=    0.0 pullay stress

  Mass of Ions in am
   POMASS =  24.30 16.00
  Ionic Valenz
   ZVAL   =   2.00  6.00
  Atomic Wigner-Seitz radii
   RWIGS  =  -1.00 -1.00
  virtual crystal weights 
   VCA    =   1.00  1.00
   NELECT =      98.0000    total number of electrons
   NUPDOWN=      -1.0000    fix difference up-down

 DOS related values:
   EMIN   =  10.00;   EMAX   =-10.00  energy-range for DOS
   EFERMI =   0.00
   ISMEAR =     0;   SIGMA  =   0.05  broadening in eV -4-tet -1-fermi 0-gaus

 Electronic relaxation 2 (details)
   IALGO  =     68    algorithm
   LDIAG  =      T    sub-space diagonalisation (order eigenvalues)
   LSUBROT=      F    optimize rotation matrix (better conditioning)
   TURBO    =      0    0=normal 1=particle mesh
   IRESTART =      0    0=no restart 2=restart with 2 vectors
   NREBOOT  =      0    no. of reboots
   NMIN     =      0    reboot dimension
   EREF     =   0.00    reference energy to select bands
   IMIX   =      4    mixing-type and parameters
     AMIX     =   0.40;   BMIX     =  1.00
     AMIX_MAG =   1.60;   BMIX_MAG =  1.00
     AMIN     =   0.10
     WC   =   100.;   INIMIX=   1;  MIXPRE=   1;  MAXMIX= -45

 Intra band minimization:
   WEIMIN = 0.0010     energy-eigenvalue tresh-hold
   EBREAK =  0.38E-07  absolut break condition
   DEPER  =   0.30     relativ break condition  

   TIME   =   0.40     timestep for ELM

  volume/ion in A,a.u.               =      13.89        93.77
  Fermi-wavevector in a.u.,A,eV,Ry     =   1.073707  2.029012 15.685437  1.152847
  Thomas-Fermi vector in A             =   2.209514
 
 Write flags
   LWAVE        =      F    write WAVECAR
   LDOWNSAMPLE  =      F    k-point downsampling of WAVECAR
   LCHARG       =      F    write CHGCAR
   LVTOT        =      F    write LOCPOT, total local potential
   LVHAR        =      F    write LOCPOT, Hartree potential only
   LELF         =      F    write electronic localiz. function (ELF)
   LORBIT       =      0    0 simple, 1 ext, 2 COOP (PROOUT), +10 PAW based schemes


 Dipole corrections
   LMONO  =      F    monopole corrections only (constant potential shift)
   LDIPOL =      F    correct potential (dipole corrections)
   IDIPOL =      0    1-x, 2-y, 3-z, 4-all directions 
   EPSILON=  1.0000000 bulk dielectric constant

 Exchange correlation treatment:
   GGA     =    --    GGA type
   LEXCH   =     8    internal setting for exchange type
   VOSKOWN=      0    Vosko Wilk Nusair interpolation
   LHFCALC =     F    Hartree Fock is set to
   LHFONE  =     F    Hartree Fock one center treatment
   AEXX    =    0.0000 exact exchange contribution

 Linear response parameters
   LEPSILON=     F    determine dielectric tensor
   LRPA    =     F    only Hartree local field effects (RPA)
   LNABLA  =     F    use nabla operator in PAW spheres
   LVEL    =     F    velocity operator in full k-point grid
   LINTERFAST=   F  fast interpolation
   KINTER  =     0    interpolate to denser k-point grid
   CSHIFT  =0.1000    complex shift for real part using Kramers Kronig
   OMEGAMAX=  -1.0    maximum frequency
   DEG_THRESHOLD= 0.2000000E-02 threshold for treating states as degnerate
   RTIME   =   -0.100 relaxation time in fs
  (WPLASMAI=    0.000 imaginary part of plasma frequency in eV, 0.658/RTIME)
   DFIELD  = 0.0000000 0.0000000 0.0000000 field for delta impulse in time
 
 Orbital magnetization related:
   ORBITALMAG=     F  switch on orbital magnetization
   LCHIMAG   =     F  perturbation theory with respect to B field
   DQ        =  0.001000  dq finite difference perturbation B field
   LLRAUG    =     F  two centre corrections for induced B field



--------------------------------------------------------------------------------------------------------


 conjugate gradient relaxation of ions
   using selective dynamics as specified on POSCAR
 charge density and potential will be updated during run
 non-spin polarized calculation
 RMM-DIIS sequential band-by-band and
  variant of blocked Davidson during initial phase
 perform sub-space diagonalisation
    before iterative eigenvector-optimisation
 modified Broyden-mixing scheme, WC =      100.0
 initial mixing is a Kerker type mixing with AMIX =  0.4000 and BMIX =      1.0000
 Hartree-type preconditioning will be used
 using additional bands           16
 real space projection scheme for non local part
 use partial core corrections
 calculate Harris-corrections to forces 
   (improved forces if not selfconsistent)
 use gradient corrections 
 use of overlap-Matrix (Vanderbilt PP)
 Gauss-broadening in eV      SIGMA  =   0.05


--------------------------------------------------------------------------------------------------------


  energy-cutoff  :      450.00
  volume of cell :      347.37
      direct lattice vectors                 reciprocal lattice vectors
     2.124436000 -2.124435000  0.000000000     0.313808828 -0.156904414 -0.156904414
     0.000000000  2.124436000 -2.124436000     0.156904340  0.156904414 -0.313808754
    25.655738000 25.655738000 25.655738000     0.012992541  0.012992547  0.012992547

  length of vectors
     3.004405496  3.004406204 44.437041722     0.384335753  0.384335662  0.022503748


 
 k-points in units of 2pi/SCALE and weight: K-Spacing Value to Generate K-Mesh: 0.02
   0.02941957  0.00000000 -0.02941957       0.031
   0.06864568 -0.01961305 -0.04903262       0.062
   0.10787178 -0.03922610 -0.06864568       0.062
   0.14709788 -0.05883916 -0.08825873       0.062
  -0.12748484  0.07845221  0.04903263       0.062
  -0.08825874  0.05883916  0.02941958       0.062
  -0.04903263  0.03922610  0.00980653       0.062
  -0.00980653  0.01961305 -0.00980652       0.031
   0.08825872  0.00000000 -0.08825872       0.031
   0.12748482 -0.01961305 -0.10787177       0.062
   0.16671093 -0.03922610 -0.12748482       0.062
  -0.10787180  0.09806526  0.00980654       0.062
  -0.06864569  0.07845221 -0.00980651       0.062
  -0.02941959  0.05883916 -0.02941956       0.031
   0.14709787 -0.00000000 -0.14709787       0.031
   0.18632397 -0.01961305 -0.16671092       0.062
  -0.08825876  0.11767831 -0.02941955       0.062
  -0.04903265  0.09806526 -0.04903261       0.031
   0.20593701  0.00000000 -0.20593701       0.031
  -0.06864571  0.13729136 -0.06864565       0.031
 
 k-points in reciprocal lattice and weights: K-Spacing Value to Generate K-Mesh: 0.02
   0.06250000  0.06250000  0.00000000       0.031
   0.18750000  0.06250000  0.00000000       0.062
   0.31250000  0.06250000  0.00000000       0.062
   0.43750000  0.06250000 -0.00000000       0.062
  -0.43750000  0.06250000 -0.00000000       0.062
  -0.31250000  0.06250000 -0.00000000       0.062
  -0.18750000  0.06250000  0.00000000       0.062
  -0.06250000  0.06250000  0.00000000       0.031
   0.18750000  0.18750000  0.00000000       0.031
   0.31250000  0.18750000  0.00000000       0.062
   0.43750000  0.18750000 -0.00000000       0.062
  -0.43750000  0.18750000 -0.00000000       0.062
  -0.31250000  0.18750000  0.00000000       0.062
  -0.18750000  0.18750000  0.00000000       0.031
   0.31250000  0.31250000  0.00000000       0.031
   0.43750000  0.31250000  0.00000000       0.062
  -0.43750000  0.31250000 -0.00000000       0.062
  -0.31250000  0.31250000  0.00000000       0.031
   0.43750000  0.43750000  0.00000000       0.031
  -0.43750000  0.43750000 -0.00000000       0.031
 
 position of ions in fractional coordinates (direct lattice) 
   0.00000000  0.00000000  0.02250400
   0.33333300  0.66666700  0.07770700
   0.00000000  0.00000000  0.18811500
   0.33333300  0.66666700  0.24331800
   0.00000000  0.00000000  0.35372600
   0.33333300  0.66666700  0.40892900
   0.00000000  0.00000000  0.51933700
   0.33333300  0.66666700  0.57454000
   0.00000000  0.00000000  0.68494800
   0.66666700  0.33333300  0.13291100
   0.66666700  0.33333300  0.29852200
   0.66666700  0.33333300  0.46413300
   0.66666700  0.33333300  0.62974400
   0.00000000  0.00000000  0.10530900
   0.00000000  0.00000000  0.27092000
   0.00000000  0.00000000  0.43653100
   0.00000000  0.00000000  0.60214200
   0.66666700  0.33333300  0.05010600
   0.66666700  0.33333300  0.21571700
   0.66666700  0.33333300  0.38132700
   0.66666700  0.33333300  0.54693800
   0.33333300  0.66666700  0.16051300
   0.33333300  0.66666700  0.32612400
   0.33333300  0.66666700  0.49173500
   0.33333300  0.66666700  0.65734600
 
 position of ions in cartesian coordinates  (Angst):
   0.57735673  0.57735673  0.57735673
   2.70177506  2.70177752  0.57733906
   4.82622915  4.82622915  4.82622915
   6.95064748  6.95064994  4.82621148
   9.07510158  9.07510158  9.07510158
  11.19951991 11.19952237  9.07508391
  13.32397401 13.32397401 13.32397401
  15.44839234 15.44839479 13.32395634
  17.57284643 17.57284643 17.57284643
   4.82622117  2.70178371  2.70178517
   9.07509359  6.95065614  6.95065759
  13.32396602 11.19952856 11.19953002
  17.57283845 15.44840099 15.44840245
   2.70178011  2.70178011  2.70178011
   6.95065254  6.95065254  6.95065254
  11.19952496 11.19952496 11.19952496
  15.44839739 15.44839739 15.44839739
   2.70179778  0.57736033  0.57736178
   6.95067021  4.82623275  4.82623421
  11.19951698  9.07507952  9.07508098
  15.44838941 13.32395195 13.32395341
   4.82622410  4.82622656  2.70178810
   9.07509652  9.07509898  6.95066052
  13.32396895 13.32397141 11.19953295
  17.57284138 17.57284383 15.44840538
 


--------------------------------------------------------------------------------------------------------


 k-point  1 :   0.0625 0.0625 0.0000  plane waves:    7487
 k-point  2 :   0.1875 0.0625 0.0000  plane waves:    7520
 k-point  3 :   0.3125 0.0625 0.0000  plane waves:    7566
 k-point  4 :   0.4375 0.0625-0.0000  plane waves:    7560
 k-point  5 :  -0.4375 0.0625-0.0000  plane waves:    7568
 k-point  6 :  -0.3125 0.0625-0.0000  plane waves:    7534
 k-point  7 :  -0.1875 0.0625 0.0000  plane waves:    7505
 k-point  8 :  -0.0625 0.0625 0.0000  plane waves:    7477
 k-point  9 :   0.1875 0.1875 0.0000  plane waves:    7499
 k-point 10 :   0.3125 0.1875 0.0000  plane waves:    7527
 k-point 11 :   0.4375 0.1875-0.0000  plane waves:    7533
 k-point 12 :  -0.4375 0.1875-0.0000  plane waves:    7511
 k-point 13 :  -0.3125 0.1875 0.0000  plane waves:    7492
 k-point 14 :  -0.1875 0.1875 0.0000  plane waves:    7485
 k-point 15 :   0.3125 0.3125 0.0000  plane waves:    7489
 k-point 16 :   0.4375 0.3125 0.0000  plane waves:    7522
 k-point 17 :  -0.4375 0.3125-0.0000  plane waves:    7549
 k-point 18 :  -0.3125 0.3125 0.0000  plane waves:    7555
 k-point 19 :   0.4375 0.4375 0.0000  plane waves:    7530
 k-point 20 :  -0.4375 0.4375-0.0000  plane waves:    7579

 maximum and minimum number of plane-waves per node :      1918     1854

 maximum number of plane-waves:      7579
 maximum index in each direction: 
   IXMAX=    5   IYMAX=    5   IZMAX=   76
   IXMIN=   -5   IYMIN=   -5   IZMIN=  -76


 real space projection operators:
  total allocation   :       5716.86 KBytes
  max/ min on nodes  :       1442.08       1419.53


 parallel 3D FFT for wavefunctions:
    minimum data exchange during FFTs selected (reduces bandwidth)
 parallel 3D FFT for charge:
    minimum data exchange during FFTs selected (reduces bandwidth)


 total amount of memory used by VASP MPI-rank0    47466. kBytes
=======================================================================

   base      :      30000. kBytes
   nonlr-proj:       3175. kBytes
   fftplans  :       2449. kBytes
   grid      :       3570. kBytes
   one-center:         56. kBytes
   wavefun   :       8216. kBytes
 
     INWAV:  cpu time    0.0000: real time    0.0001
 Broyden mixing: mesh for mixing (old mesh)
   NGX = 11   NGY = 11   NGZ =153
  (NGX  = 32   NGY  = 32   NGZ  =480)
  gives a total of  18513 points

 initial charge density was supplied:
 charge density of overlapping atoms calculated
 number of electron      98.0000000 magnetization 
 keeping initial charge density in first step


--------------------------------------------------------------------------------------------------------


 Maximum index for non-local projection operator          806
 Maximum index for augmentation-charges          559 (set IRDMAX)


--------------------------------------------------------------------------------------------------------


 First call to EWALD:  gamma=   0.252
 Maximum number of real-space cells 7x 7x 1
 Maximum number of reciprocal cells 1x 1x15

    FEWALD:  cpu time    0.0017: real time    0.0017


--------------------------------------- Iteration      1(   1)  ---------------------------------------


    POTLOK:  cpu time    0.0174: real time    0.0185
    SETDIJ:  cpu time    0.0040: real time    0.0040
     EDDAV:  cpu time    3.3724: real time    3.4088
       DOS:  cpu time    0.0011: real time    0.0017
    --------------------------------------------
      LOOP:  cpu time    3.3949: real time    3.4330

 eigenvalue-minimisations  :  2620
 total energy-change (2. order) : 0.6478986E+03  (-0.4236513E+04)
 number of electron      98.0000000 magnetization 
 augmentation part       98.0000000 magnetization 

 Free energy of the ion-electron system (eV)
  ---------------------------------------------------
  alpha Z        PSCENC =       160.93393581
  Ewald energy   TEWEN  =     39106.10553889
  -Hartree energ DENC   =    -44426.80820013
  -exchange      EXHF   =         0.00000000
  -V(xc)+E(xc)   XCENC  =      -295.45906976
  PAW double counting   =      5007.58076117    -4354.94923424
  entropy T*S    EENTRO =        -0.00454693
  eigenvalues    EBANDS =       -37.05756330
  atomic energy  EATOM  =      5487.55701442
  Solvation  Ediel_sol  =         0.00000000
  ---------------------------------------------------
  free energy    TOTEN  =       647.89863593 eV

  energy without entropy =      647.90318286  energy(sigma->0) =      647.90090940


--------------------------------------------------------------------------------------------------------




--------------------------------------- Iteration      1(   2)  ---------------------------------------


     EDDAV:  cpu time    4.3178: real time    4.3482
       DOS:  cpu time    0.0010: real time    0.0016
    --------------------------------------------
      LOOP:  cpu time    4.3187: real time    4.3498

 eigenvalue-minimisations  :  3470
 total energy-change (2. order) :-0.7347688E+03  (-0.7054412E+03)
 number of electron      98.0000000 magnetization 
 augmentation part       98.0000000 magnetization 

 Free energy of the ion-electron system (eV)
  ---------------------------------------------------
  alpha Z        PSCENC =       160.93393581
  Ewald energy   TEWEN  =     39106.10553889
  -Hartree energ DENC   =    -44426.80820013
  -exchange      EXHF   =         0.00000000
  -V(xc)+E(xc)   XCENC  =      -295.45906976
  PAW double counting   =      5007.58076117    -4354.94923424
  entropy T*S    EENTRO =        -0.00258360
  eigenvalues    EBANDS =      -771.82830487
  atomic energy  EATOM  =      5487.55701442
  Solvation  Ediel_sol  =         0.00000000
  ---------------------------------------------------
  free energy    TOTEN  =       -86.87014230 eV

  energy without entropy =      -86.86755870  energy(sigma->0) =      -86.86885050


--------------------------------------------------------------------------------------------------------




--------------------------------------- Iteration      1(   3)  ---------------------------------------


     EDDAV:  cpu time    3.9635: real time    3.9902
       DOS:  cpu time    0.0010: real time    0.0016
    --------------------------------------------
      LOOP:  cpu time    3.9645: real time    3.9918

 eigenvalue-minimisations  :  3150
 total energy-change (2. order) :-0.7395908E+02  (-0.7340640E+02)
 number of electron      98.0000000 magnetization 
 augmentation part       98.0000000 magnetization 

 Free energy of the ion-electron system (eV)
  ---------------------------------------------------
  alpha Z        PSCENC =       160.93393581
  Ewald energy   TEWEN  =     39106.10553889
  -Hartree energ DENC   =    -44426.80820013
  -exchange      EXHF   =         0.00000000
  -V(xc)+E(xc)   XCENC  =      -295.45906976
  PAW double counting   =      5007.58076117    -4354.94923424
  entropy T*S    EENTRO =        -0.00286058
  eigenvalues    EBANDS =      -845.78710469
  atomic energy  EATOM  =      5487.55701442
  Solvation  Ediel_sol  =         0.00000000
  ---------------------------------------------------
  free energy    TOTEN  =      -160.82921911 eV

  energy without entropy =     -160.82635852  energy(sigma->0) =     -160.82778882


--------------------------------------------------------------------------------------------------------




--------------------------------------- Iteration      1(   4)  ---------------------------------------


     EDDAV:  cpu time    4.0090: real time    4.0404
       DOS:  cpu time    0.0009: real time    0.0009
    --------------------------------------------
      LOOP:  cpu time    4.0099: real time    4.0413

 eigenvalue-minimisations  :  3225
 total energy-change (2. order) :-0.1544108E+01  (-0.1540444E+01)
 number of electron      98.0000000 magnetization 
 augmentation part       98.0000000 magnetization 

 Free energy of the ion-electron system (eV)
  ---------------------------------------------------
  alpha Z        PSCENC =       160.93393581
  Ewald energy   TEWEN  =     39106.10553889
  -Hartree energ DENC   =    -44426.80820013
  -exchange      EXHF   =         0.00000000
  -V(xc)+E(xc)   XCENC  =      -295.45906976
  PAW double counting   =      5007.58076117    -4354.94923424
  entropy T*S    EENTRO =        -0.00248973
  eigenvalues    EBANDS =      -847.33158400
  atomic energy  EATOM  =      5487.55701442
  Solvation  Ediel_sol  =         0.00000000
  ---------------------------------------------------
  free energy    TOTEN  =      -162.37332757 eV

  energy without entropy =     -162.37083783  energy(sigma->0) =     -162.37208270


--------------------------------------------------------------------------------------------------------




--------------------------------------- Iteration      1(   5)  ---------------------------------------


     EDDAV:  cpu time    3.8938: real time    3.9190
       DOS:  cpu time    0.0009: real time    0.0010
    --------------------------------------------
      LOOP:  cpu time    3.8947: real time    3.9199

 eigenvalue-minimisations  :  3165
 total energy-change (2. order) :-0.3198213E-01  (-0.3196081E-01)
 number of electron      98.0000000 magnetization 
 augmentation part       98.0000000 magnetization 

 Free energy of the ion-electron system (eV)
  ---------------------------------------------------
  alpha Z        PSCENC =       160.93393581
  Ewald energy   TEWEN  =     39106.10553889
  -Hartree energ DENC   =    -44426.80820013
  -exchange      EXHF   =         0.00000000
  -V(xc)+E(xc)   XCENC  =      -295.45906976
  PAW double counting   =      5007.58076117    -4354.94923424
  entropy T*S    EENTRO =        -0.00251002
  eigenvalues    EBANDS =      -847.36354584
  atomic energy  EATOM  =      5487.55701442
  Solvation  Ediel_sol  =         0.00000000
  ---------------------------------------------------
  free energy    TOTEN  =      -162.40530970 eV

  energy without entropy =     -162.40279967  energy(sigma->0) =     -162.40405468


--------------------------------------------------------------------------------------------------------




--------------------------------------- Iteration      1(   6)  ---------------------------------------


     EDDAV:  cpu time    3.9712: real time    3.9981
       DOS:  cpu time    0.0009: real time    0.0009
    --------------------------------------------
      LOOP:  cpu time    3.9721: real time    3.9990

 eigenvalue-minimisations  :  3280
 total energy-change (2. order) :-0.1015648E-02  (-0.1015382E-02)
 number of electron      98.0000000 magnetization 
 augmentation part       98.0000000 magnetization 

 Free energy of the ion-electron system (eV)
  ---------------------------------------------------
  alpha Z        PSCENC =       160.93393581
  Ewald energy   TEWEN  =     39106.10553889
  -Hartree energ DENC   =    -44426.80820013
  -exchange      EXHF   =         0.00000000
  -V(xc)+E(xc)   XCENC  =      -295.45906976
  PAW double counting   =      5007.58076117    -4354.94923424
  entropy T*S    EENTRO =        -0.00251169
  eigenvalues    EBANDS =      -847.36455982
  atomic energy  EATOM  =      5487.55701442
  Solvation  Ediel_sol  =         0.00000000
  ---------------------------------------------------
  free energy    TOTEN  =      -162.40632534 eV

  energy without entropy =     -162.40381365  energy(sigma->0) =     -162.40506950


--------------------------------------------------------------------------------------------------------




--------------------------------------- Iteration      1(   7)  ---------------------------------------


     EDDAV:  cpu time    3.8386: real time    3.8846
       DOS:  cpu time    0.0008: real time    0.0008
    --------------------------------------------
      LOOP:  cpu time    3.8394: real time    3.8855

 eigenvalue-minimisations  :  3170
 total energy-change (2. order) :-0.3856488E-04  (-0.3855670E-04)
 number of electron      98.0000000 magnetization 
 augmentation part       98.0000000 magnetization 

 Free energy of the ion-electron system (eV)
  ---------------------------------------------------
  alpha Z        PSCENC =       160.93393581
  Ewald energy   TEWEN  =     39106.10553889
  -Hartree energ DENC   =    -44426.80820013
  -exchange      EXHF   =         0.00000000
  -V(xc)+E(xc)   XCENC  =      -295.45906976
  PAW double counting   =      5007.58076117    -4354.94923424
  entropy T*S    EENTRO =        -0.00251170
  eigenvalues    EBANDS =      -847.36459837
  atomic energy  EATOM  =      5487.55701442
  Solvation  Ediel_sol  =         0.00000000
  ---------------------------------------------------
  free energy    TOTEN  =      -162.40636391 eV

  energy without entropy =     -162.40385221  energy(sigma->0) =     -162.40510806


--------------------------------------------------------------------------------------------------------




--------------------------------------- Iteration      1(   8)  ---------------------------------------


     EDDAV:  cpu time    3.6445: real time    3.6640
       DOS:  cpu time    0.0009: real time    0.0009
    CHARGE:  cpu time    0.1316: real time    0.1320
    MIXING:  cpu time    0.0012: real time    0.0012
    --------------------------------------------
      LOOP:  cpu time    3.7782: real time    3.7982

 eigenvalue-minimisations  :  2465
 total energy-change (2. order) :-0.1635020E-05  (-0.1634374E-05)
 number of electron      98.0000005 magnetization 
 augmentation part        9.6056484 magnetization 

 Broyden mixing:
  rms(total) = 0.25310E+01    rms(broyden)= 0.25303E+01
  rms(prec ) = 0.25924E+01
  weight for this iteration     100.00

 Free energy of the ion-electron system (eV)
  ---------------------------------------------------
  alpha Z        PSCENC =       160.93393581
  Ewald energy   TEWEN  =     39106.10553889
  -Hartree energ DENC   =    -44426.80820013
  -exchange      EXHF   =         0.00000000
  -V(xc)+E(xc)   XCENC  =      -295.45906976
  PAW double counting   =      5007.58076117    -4354.94923424
  entropy T*S    EENTRO =        -0.00251170
  eigenvalues    EBANDS =      -847.36460001
  atomic energy  EATOM  =      5487.55701442
  Solvation  Ediel_sol  =         0.00000000
  ---------------------------------------------------
  free energy    TOTEN  =      -162.40636554 eV

  energy without entropy =     -162.40385384  energy(sigma->0) =     -162.40510969


--------------------------------------------------------------------------------------------------------




--------------------------------------- Iteration      1(   9)  ---------------------------------------


    POTLOK:  cpu time    0.0141: real time    0.0142
    SETDIJ:  cpu time    0.0033: real time    0.0033
    EDDIAG:  cpu time    0.5653: real time    0.5684
  RMM-DIIS:  cpu time    2.2820: real time    2.2923
    ORTHCH:  cpu time    0.0508: real time    0.0510
       DOS:  cpu time    0.0010: real time    0.0017
    CHARGE:  cpu time    0.1285: real time    0.1291
    MIXING:  cpu time    0.0011: real time    0.0011
    --------------------------------------------
      LOOP:  cpu time    3.0461: real time    3.0610

 eigenvalue-minimisations  :  2600
 total energy-change (2. order) : 0.1916217E+02  (-0.9258204E+01)
 number of electron      98.0000004 magnetization 
 augmentation part        7.9326175 magnetization 

 Broyden mixing:
  rms(total) = 0.80583E+00    rms(broyden)= 0.80468E+00
  rms(prec ) = 0.81225E+00
  weight for this iteration     100.00

 eigenvalues of (default mixing * dielectric matrix)
  average eigenvalue GAMMA=   0.8534
  0.8534

 Free energy of the ion-electron system (eV)
  ---------------------------------------------------
  alpha Z        PSCENC =       160.93393581
  Ewald energy   TEWEN  =     39106.10553889
  -Hartree energ DENC   =    -44774.15951818
  -exchange      EXHF   =         0.00000000
  -V(xc)+E(xc)   XCENC  =      -279.42229172
  PAW double counting   =      5892.26233249    -5243.70829478
  entropy T*S    EENTRO =        -0.00365016
  eigenvalues    EBANDS =      -492.80925939
  atomic energy  EATOM  =      5487.55701442
  Solvation  Ediel_sol  =         0.00000000
  ---------------------------------------------------
  free energy    TOTEN  =      -143.24419261 eV

  energy without entropy =     -143.24054245  energy(sigma->0) =     -143.24236753


--------------------------------------------------------------------------------------------------------




--------------------------------------- Iteration      1(  10)  ---------------------------------------


    POTLOK:  cpu time    0.0133: real time    0.0150
    SETDIJ:  cpu time    0.0031: real time    0.0037
    EDDIAG:  cpu time    0.4770: real time    0.4794
  RMM-DIIS:  cpu time    2.2768: real time    2.2903
    ORTHCH:  cpu time    0.0442: real time    0.0444
       DOS:  cpu time    0.0009: real time    0.0009
    CHARGE:  cpu time    0.1221: real time    0.1226
    MIXING:  cpu time    0.0007: real time    0.0008
    --------------------------------------------
      LOOP:  cpu time    2.9383: real time    2.9570

 eigenvalue-minimisations  :  2606
 total energy-change (2. order) : 0.3422351E+00  (-0.8711214E-01)
 number of electron      98.0000004 magnetization 
 augmentation part        7.9138812 magnetization 

 Broyden mixing:
  rms(total) = 0.52863E+00    rms(broyden)= 0.52858E+00
  rms(prec ) = 0.53401E+00
  weight for this iteration     100.00

 eigenvalues of (default mixing * dielectric matrix)
  average eigenvalue GAMMA=   1.6636
  1.0186  2.3085

 Free energy of the ion-electron system (eV)
  ---------------------------------------------------
  alpha Z        PSCENC =       160.93393581
  Ewald energy   TEWEN  =     39106.10553889
  -Hartree energ DENC   =    -44757.59764150
  -exchange      EXHF   =         0.00000000
  -V(xc)+E(xc)   XCENC  =      -278.86149638
  PAW double counting   =      6164.95571756    -5516.03418026
  entropy T*S    EENTRO =        -0.00317866
  eigenvalues    EBANDS =      -509.95766743
  atomic energy  EATOM  =      5487.55701442
  Solvation  Ediel_sol  =         0.00000000
  ---------------------------------------------------
  free energy    TOTEN  =      -142.90195756 eV

  energy without entropy =     -142.89877889  energy(sigma->0) =     -142.90036823


--------------------------------------------------------------------------------------------------------




--------------------------------------- Iteration      1(  11)  ---------------------------------------


    POTLOK:  cpu time    0.0119: real time    0.0120
    SETDIJ:  cpu time    0.0031: real time    0.0031
    EDDIAG:  cpu time    0.4839: real time    0.4867
  RMM-DIIS:  cpu time    2.2572: real time    2.2704
    ORTHCH:  cpu time    0.0467: real time    0.0469
       DOS:  cpu time    0.0008: real time    0.0008
    CHARGE:  cpu time    0.1262: real time    0.1271
    MIXING:  cpu time    0.0008: real time    0.0008
    --------------------------------------------
      LOOP:  cpu time    2.9307: real time    2.9478

 eigenvalue-minimisations  :  2600
 total energy-change (2. order) :-0.9253136E-01  (-0.8239548E-01)
 number of electron      98.0000005 magnetization 
 augmentation part        8.0199159 magnetization 

 Broyden mixing:
  rms(total) = 0.16044E+00    rms(broyden)= 0.16037E+00
  rms(prec ) = 0.26371E+00
  weight for this iteration     100.00

 eigenvalues of (default mixing * dielectric matrix)
  average eigenvalue GAMMA=   1.3264
  2.4181  0.9770  0.5840

 Free energy of the ion-electron system (eV)
  ---------------------------------------------------
  alpha Z        PSCENC =       160.93393581
  Ewald energy   TEWEN  =     39106.10553889
  -Hartree energ DENC   =    -44720.72797694
  -exchange      EXHF   =         0.00000000
  -V(xc)+E(xc)   XCENC  =      -277.81748064
  PAW double counting   =      6622.58723242    -5973.10414190
  entropy T*S    EENTRO =        -0.00003854
  eigenvalues    EBANDS =      -548.52857243
  atomic energy  EATOM  =      5487.55701442
  Solvation  Ediel_sol  =         0.00000000
  ---------------------------------------------------
  free energy    TOTEN  =      -142.99448892 eV

  energy without entropy =     -142.99445037  energy(sigma->0) =     -142.99446964


--------------------------------------------------------------------------------------------------------




--------------------------------------- Iteration      1(  12)  ---------------------------------------


    POTLOK:  cpu time    0.0130: real time    0.0131
    SETDIJ:  cpu time    0.0134: real time    0.0137
    EDDIAG:  cpu time    0.4770: real time    0.4794
  RMM-DIIS:  cpu time    2.2354: real time    2.2491
    ORTHCH:  cpu time    0.0467: real time    0.0468
       DOS:  cpu time    0.0009: real time    0.0009
    CHARGE:  cpu time    0.1259: real time    0.1264
    MIXING:  cpu time    0.0008: real time    0.0009
    --------------------------------------------
      LOOP:  cpu time    2.9131: real time    2.9303

 eigenvalue-minimisations  :  2600
 total energy-change (2. order) : 0.1932151E+00  (-0.4102541E-02)
 number of electron      98.0000003 magnetization 
 augmentation part        8.0128080 magnetization 

 Broyden mixing:
  rms(total) = 0.11482E+00    rms(broyden)= 0.11475E+00
  rms(prec ) = 0.16121E+00
  weight for this iteration     100.00

 eigenvalues of (default mixing * dielectric matrix)
  average eigenvalue GAMMA=   1.1228
  2.4877  0.9029  0.9029  0.1977

 Free energy of the ion-electron system (eV)
  ---------------------------------------------------
  alpha Z        PSCENC =       160.93393581
  Ewald energy   TEWEN  =     39106.10553889
  -Hartree energ DENC   =    -44722.08341804
  -exchange      EXHF   =         0.00000000
  -V(xc)+E(xc)   XCENC  =      -277.56240381
  PAW double counting   =      6637.31201904    -5987.87349038
  entropy T*S    EENTRO =        -0.00206562
  eigenvalues    EBANDS =      -547.18840412
  atomic energy  EATOM  =      5487.55701442
  Solvation  Ediel_sol  =         0.00000000
  ---------------------------------------------------
  free energy    TOTEN  =      -142.80127380 eV

  energy without entropy =     -142.79920819  energy(sigma->0) =     -142.80024099


--------------------------------------------------------------------------------------------------------




--------------------------------------- Iteration      1(  13)  ---------------------------------------


    POTLOK:  cpu time    0.0127: real time    0.0128
    SETDIJ:  cpu time    0.0032: real time    0.0032
    EDDIAG:  cpu time    0.4993: real time    0.5015
  RMM-DIIS:  cpu time    2.3118: real time    2.3219
    ORTHCH:  cpu time    0.0478: real time    0.0479
       DOS:  cpu time    0.0009: real time    0.0009
    CHARGE:  cpu time    0.1278: real time    0.1284
    MIXING:  cpu time    0.0009: real time    0.0009
    --------------------------------------------
      LOOP:  cpu time    3.0045: real time    3.0175

 eigenvalue-minimisations  :  2600
 total energy-change (2. order) : 0.6070204E-01  (-0.7616572E-02)
 number of electron      98.0000004 magnetization 
 augmentation part        7.9707243 magnetization 

 Broyden mixing:
  rms(total) = 0.40545E-01    rms(broyden)= 0.40508E-01
  rms(prec ) = 0.55083E-01
  weight for this iteration     100.00

 eigenvalues of (default mixing * dielectric matrix)
  average eigenvalue GAMMA=   1.4430
  2.9053  2.3105  0.9062  0.9062  0.1870

 Free energy of the ion-electron system (eV)
  ---------------------------------------------------
  alpha Z        PSCENC =       160.93393581
  Ewald energy   TEWEN  =     39106.10553889
  -Hartree energ DENC   =    -44725.93762540
  -exchange      EXHF   =         0.00000000
  -V(xc)+E(xc)   XCENC  =      -277.04546948
  PAW double counting   =      6654.14866818    -6004.82442412
  entropy T*S    EENTRO =        -0.00163319
  eigenvalues    EBANDS =      -543.67657686
  atomic energy  EATOM  =      5487.55701442
  Solvation  Ediel_sol  =         0.00000000
  ---------------------------------------------------
  free energy    TOTEN  =      -142.74057176 eV

  energy without entropy =     -142.73893857  energy(sigma->0) =     -142.73975516


--------------------------------------------------------------------------------------------------------




--------------------------------------- Iteration      1(  14)  ---------------------------------------


    POTLOK:  cpu time    0.0126: real time    0.0127
    SETDIJ:  cpu time    0.0032: real time    0.0033
    EDDIAG:  cpu time    0.4860: real time    0.4879
  RMM-DIIS:  cpu time    2.3289: real time    2.3395
    ORTHCH:  cpu time    0.0477: real time    0.0478
       DOS:  cpu time    0.0009: real time    0.0009
    CHARGE:  cpu time    0.1254: real time    0.1263
    MIXING:  cpu time    0.0010: real time    0.0010
    --------------------------------------------
      LOOP:  cpu time    3.0058: real time    3.0195

 eigenvalue-minimisations  :  2600
 total energy-change (2. order) :-0.2445059E-01  (-0.6531931E-02)
 number of electron      98.0000004 magnetization 
 augmentation part        7.9329919 magnetization 

 Broyden mixing:
  rms(total) = 0.47909E-01    rms(broyden)= 0.47884E-01
  rms(prec ) = 0.68076E-01
  weight for this iteration     100.00

 eigenvalues of (default mixing * dielectric matrix)
  average eigenvalue GAMMA=   1.3687
  2.7870  2.5333  0.9352  0.9352  0.8361  0.1852

 Free energy of the ion-electron system (eV)
  ---------------------------------------------------
  alpha Z        PSCENC =       160.93393581
  Ewald energy   TEWEN  =     39106.10553889
  -Hartree energ DENC   =    -44726.76792240
  -exchange      EXHF   =         0.00000000
  -V(xc)+E(xc)   XCENC  =      -276.61523639
  PAW double counting   =      6629.68380836    -5980.48356383
  entropy T*S    EENTRO =        -0.00178330
  eigenvalues    EBANDS =      -543.17681393
  atomic energy  EATOM  =      5487.55701442
  Solvation  Ediel_sol  =         0.00000000
  ---------------------------------------------------
  free energy    TOTEN  =      -142.76502235 eV

  energy without entropy =     -142.76323905  energy(sigma->0) =     -142.76413070


--------------------------------------------------------------------------------------------------------




--------------------------------------- Iteration      1(  15)  ---------------------------------------


    POTLOK:  cpu time    0.0128: real time    0.0129
    SETDIJ:  cpu time    0.0032: real time    0.0033
    EDDIAG:  cpu time    0.4843: real time    0.4862
  RMM-DIIS:  cpu time    2.2931: real time    2.3030
    ORTHCH:  cpu time    0.0486: real time    0.0487
       DOS:  cpu time    0.0009: real time    0.0009
    CHARGE:  cpu time    0.1272: real time    0.1276
    MIXING:  cpu time    0.0010: real time    0.0010
    --------------------------------------------
      LOOP:  cpu time    2.9712: real time    2.9837

 eigenvalue-minimisations  :  2600
 total energy-change (2. order) : 0.2217128E-01  (-0.1180896E-02)
 number of electron      98.0000004 magnetization 
 augmentation part        7.9500939 magnetization 

 Broyden mixing:
  rms(total) = 0.22579E-01    rms(broyden)= 0.22576E-01
  rms(prec ) = 0.46521E-01
  weight for this iteration     100.00

 eigenvalues of (default mixing * dielectric matrix)
  average eigenvalue GAMMA=   1.3573
  2.8742  2.4695  1.0472  1.0472  1.0432  0.8343  0.1853

 Free energy of the ion-electron system (eV)
  ---------------------------------------------------
  alpha Z        PSCENC =       160.93393581
  Ewald energy   TEWEN  =     39106.10553889
  -Hartree energ DENC   =    -44722.80388885
  -exchange      EXHF   =         0.00000000
  -V(xc)+E(xc)   XCENC  =      -276.81185942
  PAW double counting   =      6616.26738470    -5967.01751680
  entropy T*S    EENTRO =        -0.00121788
  eigenvalues    EBANDS =      -546.97224195
  atomic energy  EATOM  =      5487.55701442
  Solvation  Ediel_sol  =         0.00000000
  ---------------------------------------------------
  free energy    TOTEN  =      -142.74285107 eV

  energy without entropy =     -142.74163319  energy(sigma->0) =     -142.74224213


--------------------------------------------------------------------------------------------------------




--------------------------------------- Iteration      1(  16)  ---------------------------------------


    POTLOK:  cpu time    0.0130: real time    0.0131
    SETDIJ:  cpu time    0.0033: real time    0.0033
    EDDIAG:  cpu time    0.4839: real time    0.4865
  RMM-DIIS:  cpu time    2.2901: real time    2.3023
    ORTHCH:  cpu time    0.0484: real time    0.0485
       DOS:  cpu time    0.0009: real time    0.0016
    CHARGE:  cpu time    0.1272: real time    0.1277
    MIXING:  cpu time    0.0011: real time    0.0011
    --------------------------------------------
      LOOP:  cpu time    2.9678: real time    2.9841

 eigenvalue-minimisations  :  2600
 total energy-change (2. order) : 0.2558842E-03  (-0.1806001E-03)
 number of electron      98.0000004 magnetization 
 augmentation part        7.9545708 magnetization 

 Broyden mixing:
  rms(total) = 0.21086E-01    rms(broyden)= 0.21061E-01
  rms(prec ) = 0.45670E-01
  weight for this iteration     100.00

 eigenvalues of (default mixing * dielectric matrix)
  average eigenvalue GAMMA=   1.3296
  2.6606  2.6606  1.6169  0.9102  0.9102  0.8465  0.8465  0.1854

 Free energy of the ion-electron system (eV)
  ---------------------------------------------------
  alpha Z        PSCENC =       160.93393581
  Ewald energy   TEWEN  =     39106.10553889
  -Hartree energ DENC   =    -44721.84821744
  -exchange      EXHF   =         0.00000000
  -V(xc)+E(xc)   XCENC  =      -276.83814883
  PAW double counting   =      6615.63445256    -5966.37563619
  entropy T*S    EENTRO =        -0.00122915
  eigenvalues    EBANDS =      -547.91030526
  atomic energy  EATOM  =      5487.55701442
  Solvation  Ediel_sol  =         0.00000000
  ---------------------------------------------------
  free energy    TOTEN  =      -142.74259519 eV

  energy without entropy =     -142.74136603  energy(sigma->0) =     -142.74198061


--------------------------------------------------------------------------------------------------------




--------------------------------------- Iteration      1(  17)  ---------------------------------------


    POTLOK:  cpu time    0.0123: real time    0.0142
    SETDIJ:  cpu time    0.0029: real time    0.0038
    EDDIAG:  cpu time    0.4926: real time    0.4950
  RMM-DIIS:  cpu time    2.2723: real time    2.2819
    ORTHCH:  cpu time    0.0473: real time    0.0475
       DOS:  cpu time    0.0009: real time    0.0009
    CHARGE:  cpu time    0.1273: real time    0.1278
    MIXING:  cpu time    0.0013: real time    0.0013
    --------------------------------------------
      LOOP:  cpu time    2.9569: real time    2.9724

 eigenvalue-minimisations  :  2539
 total energy-change (2. order) : 0.4253613E-02  (-0.4587922E-04)
 number of electron      98.0000004 magnetization 
 augmentation part        7.9565777 magnetization 

 Broyden mixing:
  rms(total) = 0.14237E-01    rms(broyden)= 0.14222E-01
  rms(prec ) = 0.30623E-01
  weight for this iteration     100.00

 eigenvalues of (default mixing * dielectric matrix)
  average eigenvalue GAMMA=   1.3741
  3.0194  2.4018  2.4018  0.1854  1.0089  1.0089  0.9666  0.7913  0.5828

 Free energy of the ion-electron system (eV)
  ---------------------------------------------------
  alpha Z        PSCENC =       160.93393581
  Ewald energy   TEWEN  =     39106.10553889
  -Hartree energ DENC   =    -44721.56776186
  -exchange      EXHF   =         0.00000000
  -V(xc)+E(xc)   XCENC  =      -276.85409283
  PAW double counting   =      6615.40313791    -5966.14055602
  entropy T*S    EENTRO =        -0.00248559
  eigenvalues    EBANDS =      -548.17307232
  atomic energy  EATOM  =      5487.55701442
  Solvation  Ediel_sol  =         0.00000000
  ---------------------------------------------------
  free energy    TOTEN  =      -142.73834157 eV

  energy without entropy =     -142.73585598  energy(sigma->0) =     -142.73709878


--------------------------------------------------------------------------------------------------------




--------------------------------------- Iteration      1(  18)  ---------------------------------------


    POTLOK:  cpu time    0.0131: real time    0.0141
    SETDIJ:  cpu time    0.0031: real time    0.0031
    EDDIAG:  cpu time    0.4839: real time    0.4858
  RMM-DIIS:  cpu time    2.0598: real time    2.0685
    ORTHCH:  cpu time    0.0446: real time    0.0447
       DOS:  cpu time    0.0009: real time    0.0009
    CHARGE:  cpu time    0.1221: real time    0.1224
    MIXING:  cpu time    0.0014: real time    0.0014
    --------------------------------------------
      LOOP:  cpu time    2.7289: real time    2.7409

 eigenvalue-minimisations  :  2444
 total energy-change (2. order) : 0.1488702E-02  (-0.1040990E-04)
 number of electron      98.0000004 magnetization 
 augmentation part        7.9553346 magnetization 

 Broyden mixing:
  rms(total) = 0.59264E-03    rms(broyden)= 0.55567E-03
  rms(prec ) = 0.92592E-03
  weight for this iteration     100.00

 eigenvalues of (default mixing * dielectric matrix)
  average eigenvalue GAMMA=   1.3806
  3.0697  2.5655  2.3910  0.1854  1.0890  1.0890  1.0161  1.0161  0.8019  0.5825

 Free energy of the ion-electron system (eV)
  ---------------------------------------------------
  alpha Z        PSCENC =       160.93393581
  Ewald energy   TEWEN  =     39106.10553889
  -Hartree energ DENC   =    -44721.68016990
  -exchange      EXHF   =         0.00000000
  -V(xc)+E(xc)   XCENC  =      -276.83785898
  PAW double counting   =      6616.73911834    -5967.48036799
  entropy T*S    EENTRO =        -0.00356664
  eigenvalues    EBANDS =      -548.07049681
  atomic energy  EATOM  =      5487.55701442
  Solvation  Ediel_sol  =         0.00000000
  ---------------------------------------------------
  free energy    TOTEN  =      -142.73685287 eV

  energy without entropy =     -142.73328623  energy(sigma->0) =     -142.73506955


--------------------------------------------------------------------------------------------------------




--------------------------------------- Iteration      1(  19)  ---------------------------------------


    POTLOK:  cpu time    0.0117: real time    0.0118
    SETDIJ:  cpu time    0.0031: real time    0.0031
    EDDIAG:  cpu time    0.4639: real time    0.4656
  RMM-DIIS:  cpu time    1.3803: real time    1.3865
    ORTHCH:  cpu time    0.0473: real time    0.0474
       DOS:  cpu time    0.0009: real time    0.0009
    CHARGE:  cpu time    0.1280: real time    0.1284
    MIXING:  cpu time    0.0013: real time    0.0013
    --------------------------------------------
      LOOP:  cpu time    2.0366: real time    2.0450

 eigenvalue-minimisations  :  1599
 total energy-change (2. order) :-0.1095355E-04  (-0.5004292E-06)
 number of electron      98.0000004 magnetization 
 augmentation part        7.9552717 magnetization 

 Broyden mixing:
  rms(total) = 0.97926E-03    rms(broyden)= 0.97648E-03
  rms(prec ) = 0.20919E-02
  weight for this iteration     100.00

 eigenvalues of (default mixing * dielectric matrix)
  average eigenvalue GAMMA=   1.4595
  3.2890  2.7931  2.4433  1.9188  0.1854  1.0357  1.0357  0.9790  0.9790  0.8002
  0.5952

 Free energy of the ion-electron system (eV)
  ---------------------------------------------------
  alpha Z        PSCENC =       160.93393581
  Ewald energy   TEWEN  =     39106.10553889
  -Hartree energ DENC   =    -44721.62443718
  -exchange      EXHF   =         0.00000000
  -V(xc)+E(xc)   XCENC  =      -276.83910978
  PAW double counting   =      6616.92100132    -5967.66198249
  entropy T*S    EENTRO =        -0.00356227
  eigenvalues    EBANDS =      -548.12526256
  atomic energy  EATOM  =      5487.55701442
  Solvation  Ediel_sol  =         0.00000000
  ---------------------------------------------------
  free energy    TOTEN  =      -142.73686383 eV

  energy without entropy =     -142.73330156  energy(sigma->0) =     -142.73508269


--------------------------------------------------------------------------------------------------------




--------------------------------------- Iteration      1(  20)  ---------------------------------------


    POTLOK:  cpu time    0.0129: real time    0.0130
    SETDIJ:  cpu time    0.0033: real time    0.0033
    EDDIAG:  cpu time    0.5111: real time    0.5139
  RMM-DIIS:  cpu time    1.4176: real time    1.4259
    ORTHCH:  cpu time    0.0479: real time    0.0480
       DOS:  cpu time    0.0008: real time    0.0008
    --------------------------------------------
      LOOP:  cpu time    1.9936: real time    2.0049

 eigenvalue-minimisations  :  1357
 total energy-change (2. order) : 0.9296200E-06  (-0.2102187E-06)
 number of electron      98.0000004 magnetization 
 augmentation part        7.9552717 magnetization 

 Free energy of the ion-electron system (eV)
  ---------------------------------------------------
  alpha Z        PSCENC =       160.93393581
  Ewald energy   TEWEN  =     39106.10553889
  -Hartree energ DENC   =    -44721.60039943
  -exchange      EXHF   =         0.00000000
  -V(xc)+E(xc)   XCENC  =      -276.84001236
  PAW double counting   =      6617.03569567    -5967.77652691
  entropy T*S    EENTRO =        -0.00356574
  eigenvalues    EBANDS =      -548.14854325
  atomic energy  EATOM  =      5487.55701442
  Solvation  Ediel_sol  =         0.00000000
  ---------------------------------------------------
  free energy    TOTEN  =      -142.73686290 eV

  energy without entropy =     -142.73329715  energy(sigma->0) =     -142.73508002


--------------------------------------------------------------------------------------------------------




 average (electrostatic) potential at core
  the test charge radii are     1.0714  0.7215
  (the norm of the test charge is              1.0000)
       1 -38.7798       2 -38.6358       3 -38.5929       4 -38.5921       5 -38.5922
       6 -38.5921       7 -38.5917       8 -38.5947       9 -38.7775      10 -38.5958
      11 -38.5921      12 -38.5915      13 -38.6341      14 -73.0635      15 -73.0552
      16 -73.0549      17 -73.0620      18 -73.1613      19 -73.0556      20 -73.0554
      21 -73.0557      22 -73.0567      23 -73.0553      24 -73.0546      25 -73.1591
 
 
 
 E-fermi :   3.6898     XC(G=0):  -8.1719     alpha+bet : -8.9858


 k-point     1 :       0.0625    0.0625    0.0000
  band No.  band energies     occupation 
      1     -17.3058      2.00000
      2     -17.2704      2.00000
      3     -17.2085      2.00000
      4     -17.1202      2.00000
      5     -17.0092      2.00000
      6     -16.8806      2.00000
      7     -16.7413      2.00000
      8     -16.5990      2.00000
      9     -16.4626      2.00000
     10     -16.3419      2.00000
     11     -16.2456      2.00000
     12     -16.1831      2.00000
     13      -4.6014      2.00000
     14      -4.4908      2.00000
     15      -4.3021      2.00000
     16      -4.0375      2.00000
     17      -3.7063      2.00000
     18      -3.3215      2.00000
     19      -2.8989      2.00000
     20      -2.4575      2.00000
     21      -2.0222      2.00000
     22      -1.6288      2.00000
     23      -1.3424      2.00000
     24      -1.3179      2.00000
     25      -1.2803      2.00000
     26      -1.2574      2.00000
     27      -1.1774      2.00000
     28      -1.1490      2.00000
     29      -1.0567      2.00000
     30      -1.0283      2.00000
     31      -0.9888      2.00000
     32      -0.9725      2.00000
     33      -0.9533      2.00000
     34      -0.9334      2.00000
     35      -0.8952      2.00000
     36      -0.8642      2.00000
     37      -0.8181      2.00000
     38      -0.7565      2.00000
     39      -0.7392      2.00000
     40      -0.6573      2.00000
     41      -0.6379      2.00000
     42      -0.5771      2.00000
     43      -0.5319      2.00000
     44      -0.4922      2.00000
     45      -0.4693      2.00000
     46      -0.4295      2.00000
     47      -0.4259      2.00000
     48      -0.3786      2.00000
     49       1.4975      2.00000
     50       1.4997      2.00000
     51       4.9295      0.00000
     52       5.1577      0.00000
     53       5.4796      0.00000
     54       5.8424      0.00000
     55       6.2086      0.00000
     56       6.5718      0.00000
     57       6.9247      0.00000
     58       7.2675      0.00000
     59       7.5464      0.00000
     60       7.7686      0.00000
     61       7.8882      0.00000
     62       7.9598      0.00000
     63       8.0243      0.00000
     64       8.1887      0.00000
     65       9.2277      0.00000

 k-point     2 :       0.1875    0.0625    0.0000
  band No.  band energies     occupation 
      1     -16.9910      2.00000
      2     -16.9628      2.00000
      3     -16.9119      2.00000
      4     -16.8382      2.00000
      5     -16.7456      2.00000
      6     -16.6385      2.00000
      7     -16.5229      2.00000
      8     -16.4057      2.00000
      9     -16.2940      2.00000
     10     -16.1956      2.00000
     11     -16.1177      2.00000
     12     -16.0673      2.00000
     13      -4.1288      2.00000
     14      -4.0601      2.00000
     15      -3.9469      2.00000
     16      -3.7960      2.00000
     17      -3.6188      2.00000
     18      -3.4257      2.00000
     19      -3.2244      2.00000
     20      -3.0220      2.00000
     21      -2.8279      2.00000
     22      -2.6527      2.00000
     23      -2.5026      2.00000
     24      -2.3766      2.00000
     25      -2.2962      2.00000
     26      -2.2771      2.00000
     27      -2.1936      2.00000
     28      -2.0458      2.00000
     29      -1.8565      2.00000
     30      -1.6413      2.00000
     31      -1.4184      2.00000
     32      -1.2444      2.00000
     33      -1.2375      2.00000
     34      -1.2000      2.00000
     35      -1.1867      2.00000
     36      -1.1280      2.00000
     37      -1.0712      2.00000
     38      -1.0146      2.00000
     39      -0.9661      2.00000
     40      -0.9277      2.00000
     41      -0.8734      2.00000
     42      -0.8210      2.00000
     43      -0.7975      2.00000
     44      -0.7505      2.00000
     45      -0.7017      2.00000
     46      -0.6637      2.00000
     47      -0.6314      2.00000
     48      -0.5380      2.00000
     49       2.1561      2.00000
     50       2.1583      2.00000
     51       6.3056      0.00000
     52       6.4533      0.00000
     53       6.6803      0.00000
     54       6.9573      0.00000
     55       7.2466      0.00000
     56       7.5368      0.00000
     57       7.8430      0.00000
     58       8.1994      0.00000
     59       8.5387      0.00000
     60       8.8604      0.00000
     61       8.9955      0.00000
     62       9.1460      0.00000
     63       9.2171      0.00000
     64       9.2562      0.00000
     65      11.1752      0.00000

 k-point     3 :       0.3125    0.0625    0.0000
  band No.  band energies     occupation 
      1     -16.5551      2.00000
      2     -16.5394      2.00000
      3     -16.5072      2.00000
      4     -16.4586      2.00000
      5     -16.3970      2.00000
      6     -16.3260      2.00000
      7     -16.2500      2.00000
      8     -16.1735      2.00000
      9     -16.1011      2.00000
     10     -16.0378      2.00000
     11     -15.9879      2.00000
     12     -15.9557      2.00000
     13      -4.1493      2.00000
     14      -4.0888      2.00000
     15      -3.9889      2.00000
     16      -3.9603      2.00000
     17      -3.8971      2.00000
     18      -3.8494      2.00000
     19      -3.7868      2.00000
     20      -3.6802      2.00000
     21      -3.6468      2.00000
     22      -3.5144      2.00000
     23      -3.4737      2.00000
     24      -3.4123      2.00000
     25      -3.2071      2.00000
     26      -2.9308      2.00000
     27      -2.6242      2.00000
     28      -2.3064      2.00000
     29      -1.9969      2.00000
     30      -1.7202      2.00000
     31      -1.5434      2.00000
     32      -1.5383      2.00000
     33      -1.4966      2.00000
     34      -1.4732      2.00000
     35      -1.4390      2.00000
     36      -1.3862      2.00000
     37      -1.3723      2.00000
     38      -1.3259      2.00000
     39      -1.2866      2.00000
     40      -1.2311      2.00000
     41      -1.1506      2.00000
     42      -1.1158      2.00000
     43      -1.0336      2.00000
     44      -0.9927      2.00000
     45      -0.9464      2.00000
     46      -0.8938      2.00000
     47      -0.8702      2.00000
     48      -0.7777      2.00000
     49       3.2781      2.00000
     50       3.2804      2.00000
     51       7.3758      0.00000
     52       7.4866      0.00000
     53       7.6551      0.00000
     54       7.8686      0.00000
     55       8.1133      0.00000
     56       8.3691      0.00000
     57       8.6077      0.00000
     58       8.8246      0.00000
     59       9.0585      0.00000
     60       9.3484      0.00000
     61       9.4807      0.00000
     62       9.5794      0.00000
     63       9.6884      0.00000
     64       9.7440      0.00000
     65       9.9152      0.00000

 k-point     4 :       0.4375    0.0625   -0.0000
  band No.  band energies     occupation 
      1     -16.2290      2.00000
      2     -16.2272      2.00000
      3     -16.2061      2.00000
      4     -16.1856      2.00000
      5     -16.1588      2.00000
      6     -16.1273      2.00000
      7     -16.0928      2.00000
      8     -16.0574      2.00000
      9     -16.0232      2.00000
     10     -15.9929      2.00000
     11     -15.9683      2.00000
     12     -15.9523      2.00000
     13      -4.7088      2.00000
     14      -4.6447      2.00000
     15      -4.5387      2.00000
     16      -4.3981      2.00000
     17      -4.2439      2.00000
     18      -4.2056      2.00000
     19      -4.1511      2.00000
     20      -4.1129      2.00000
     21      -4.0437      2.00000
     22      -4.0090      2.00000
     23      -3.9360      2.00000
     24      -3.9234      2.00000
     25      -2.4257      2.00000
     26      -2.3302      2.00000
     27      -2.1733      2.00000
     28      -2.0394      2.00000
     29      -1.9409      2.00000
     30      -1.9124      2.00000
     31      -1.7671      2.00000
     32      -1.7226      2.00000
     33      -1.7043      2.00000
     34      -1.6860      2.00000
     35      -1.6376      2.00000
     36      -1.6110      2.00000
     37      -1.5643      2.00000
     38      -1.5131      2.00000
     39      -1.4415      2.00000
     40      -1.4052      2.00000
     41      -1.2967      2.00000
     42      -1.2642      2.00000
     43      -1.1727      2.00000
     44      -1.1404      2.00000
     45      -1.0602      2.00000
     46      -1.0427      2.00000
     47      -0.9903      2.00000
     48      -0.9457      2.00000
     49       4.7299      0.00000
     50       4.7322      0.00000
     51       6.3666      0.00000
     52       6.3689      0.00000
     53       7.6621      0.00000
     54       7.8943      0.00000
     55       8.2308      0.00000
     56       8.6181      0.00000
     57       8.9810      0.00000
     58       9.0037      0.00000
     59       9.1298      0.00000
     60       9.2933      0.00000
     61       9.3258      0.00000
     62       9.4479      0.00000
     63       9.5190      0.00000
     64       9.5910      0.00000
     65       9.6243      0.00000

 k-point     5 :      -0.4375    0.0625   -0.0000
  band No.  band energies     occupation 
      1     -16.3569      2.00000
      2     -16.3497      2.00000
      3     -16.3278      2.00000
      4     -16.2937      2.00000
      5     -16.2503      2.00000
      6     -16.2003      2.00000
      7     -16.1467      2.00000
      8     -16.0928      2.00000
      9     -16.0421      2.00000
     10     -15.9976      2.00000
     11     -15.9625      2.00000
     12     -15.9399      2.00000
     13      -4.5082      2.00000
     14      -4.4452      2.00000
     15      -4.3407      2.00000
     16      -4.2024      2.00000
     17      -4.1101      2.00000
     18      -4.0639      2.00000
     19      -4.0343      2.00000
     20      -3.9663      2.00000
     21      -3.8851      2.00000
     22      -3.8541      2.00000
     23      -3.7647      2.00000
     24      -3.7532      2.00000
     25      -2.8332      2.00000
     26      -2.6650      2.00000
     27      -2.4188      2.00000
     28      -2.1459      2.00000
     29      -1.8892      2.00000
     30      -1.7081      2.00000
     31      -1.6601      2.00000
     32      -1.6316      2.00000
     33      -1.6265      2.00000
     34      -1.6083      2.00000
     35      -1.5795      2.00000
     36      -1.5493      2.00000
     37      -1.5009      2.00000
[...]
     13      -3.9710      2.00000
     14      -3.9202      2.00000
     15      -3.8074      2.00000
     16      -3.7577      2.00000
     17      -3.6997      2.00000
     18      -3.6427      2.00000
     19      -3.5661      2.00000
     20      -3.4952      2.00000
     21      -3.4050      2.00000
     22      -3.3253      2.00000
     23      -3.2219      2.00000
     24      -3.1005      2.00000
     25      -2.9932      2.00000
     26      -2.8648      2.00000
     27      -2.5718      2.00000
     28      -2.2619      2.00000
     29      -1.9468      2.00000
     30      -1.6511      2.00000
     31      -1.4732      2.00000
     32      -1.4005      2.00000
     33      -1.3440      2.00000
     34      -1.2498      2.00000
     35      -1.2164      2.00000
     36      -1.1888      2.00000
     37      -1.1343      2.00000
     38      -1.0846      2.00000
     39      -1.0630      2.00000
     40      -0.9864      2.00000
     41      -0.9635      2.00000
     42      -0.9066      2.00000
     43      -0.8296      2.00000
     44      -0.8106      2.00000
     45      -0.7509      2.00000
     46      -0.6650      2.00000
     47      -0.6302      2.00000
     48      -0.5778      2.00000
     49       2.7499      2.00000
     50       2.7521      2.00000
     51       7.1150      0.00000
     52       7.3127      0.00000
     53       7.4901      0.00000
     54       7.7133      0.00000
     55       7.9450      0.00000
     56       8.1736      0.00000
     57       8.4104      0.00000
     58       8.6773      0.00000
     59       8.9939      0.00000
     60       9.2860      0.00000
     61       9.4232      0.00000
     62       9.5369      0.00000
     63       9.6611      0.00000
     64       9.8240      0.00000
     65       9.8614      0.00000

 k-point    19 :       0.4375    0.4375    0.0000
  band No.  band energies     occupation 
      1     -16.3077      2.00000
      2     -16.1856      2.00000
      3     -16.1184      2.00000
      4     -16.0644      2.00000
      5     -16.0168      2.00000
      6     -15.9747      2.00000
      7     -15.9532      2.00000
      8     -15.9293      2.00000
      9     -15.8975      2.00000
     10     -15.8565      2.00000
     11     -15.8078      2.00000
     12     -15.7650      2.00000
     13      -4.6219      2.00000
     14      -4.4617      2.00000
     15      -4.3544      2.00000
     16      -4.2305      2.00000
     17      -4.1411      2.00000
     18      -4.0670      2.00000
     19      -3.9923      2.00000
     20      -3.9296      2.00000
     21      -3.8703      2.00000
     22      -3.8263      2.00000
     23      -3.7289      2.00000
     24      -3.6948      2.00000
     25      -2.4196      2.00000
     26      -2.2855      2.00000
     27      -2.1865      2.00000
     28      -2.1124      2.00000
     29      -2.0996      2.00000
     30      -2.0236      2.00000
     31      -1.9811      2.00000
     32      -1.8882      2.00000
     33      -1.8769      2.00000
     34      -1.7638      2.00000
     35      -1.6949      2.00000
     36      -1.6655      2.00000
     37      -1.5997      2.00000
     38      -1.5370      2.00000
     39      -1.4986      2.00000
     40      -1.4410      2.00000
     41      -1.3846      2.00000
     42      -1.3581      2.00000
     43      -1.2476      2.00000
     44      -1.1980      2.00000
     45      -1.1050      2.00000
     46      -1.0145      2.00000
     47      -0.9147      2.00000
     48      -0.8384      2.00000
     49       4.9193      0.00000
     50       4.9517      0.00000
     51       6.2016      0.00000
     52       6.2217      0.00000
     53       8.1138      0.00000
     54       8.3537      0.00000
     55       8.6496      0.00000
     56       9.0179      0.00000
     57       9.2492      0.00000
     58       9.3827      0.00000
     59       9.4671      0.00000
     60       9.5950      0.00000
     61       9.7525      0.00000
     62       9.7776      0.00000
     63       9.9749      0.00000
     64       9.9943      0.00000
     65      10.0321      0.00000

 k-point    20 :      -0.4375    0.4375   -0.0000
  band No.  band energies     occupation 
      1     -16.3978      2.00000
      2     -16.2764      2.00000
      3     -16.1987      2.00000
      4     -16.1361      2.00000
      5     -16.0888      2.00000
      6     -16.0623      2.00000
      7     -16.0267      2.00000
      8     -15.9872      2.00000
      9     -15.9396      2.00000
     10     -15.8873      2.00000
     11     -15.8255      2.00000
     12     -15.7695      2.00000
     13      -4.6741      2.00000
     14      -4.5132      2.00000
     15      -4.4052      2.00000
     16      -4.2816      2.00000
     17      -4.2127      2.00000
     18      -4.1182      2.00000
     19      -4.0542      2.00000
     20      -3.9855      2.00000
     21      -3.9257      2.00000
     22      -3.8711      2.00000
     23      -3.7620      2.00000
     24      -3.7250      2.00000
     25      -2.6106      2.00000
     26      -2.3913      2.00000
     27      -2.2068      2.00000
     28      -1.9817      2.00000
     29      -1.7986      2.00000
     30      -1.7013      2.00000
     31      -1.6448      2.00000
     32      -1.6055      2.00000
     33      -1.5153      2.00000
     34      -1.4911      2.00000
     35      -1.4517      2.00000
     36      -1.4209      2.00000
     37      -1.3600      2.00000
     38      -1.3045      2.00000
     39      -1.2509      2.00000
     40      -1.2321      2.00000
     41      -1.1542      2.00000
     42      -1.0731      2.00000
     43      -1.0273      2.00000
     44      -0.9949      2.00000
     45      -0.9153      2.00000
     46      -0.8288      2.00000
     47      -0.8169      2.00000
     48      -0.7405      2.00000
     49       4.1807      0.00000
     50       4.1945      0.00000
     51       6.5281      0.00000
     52       6.5630      0.00000
     53       7.5804      0.00000
     54       7.8455      0.00000
     55       8.1731      0.00000
     56       8.5515      0.00000
     57       8.9012      0.00000
     58       8.9798      0.00000
     59       9.1332      0.00000
     60       9.1840      0.00000
     61       9.2977      0.00000
     62       9.3536      0.00000
     63       9.4541      0.00000
     64       9.4835      0.00000
     65       9.6454      0.00000


--------------------------------------------------------------------------------------------------------


 soft charge-density along one line, spin component           1
         0         1         2         3         4         5         6         7         8         9
 total charge-density along one line
 
 pseudopotential strength for first ion, spin component:           1
  2.994   9.584  -0.002  -0.002  -0.002  -0.004  -0.004  -0.004
  9.584  30.493  -0.008  -0.008  -0.008  -0.013  -0.013  -0.013
 -0.002  -0.008   7.085  -0.001  -0.001  10.452  -0.001  -0.001
 -0.002  -0.008  -0.001   7.085  -0.001  -0.001  10.452  -0.001
 -0.002  -0.008  -0.001  -0.001   7.085  -0.001  -0.001  10.452
 -0.004  -0.013  10.452  -0.001  -0.001  14.562  -0.001  -0.001
 -0.004  -0.013  -0.001  10.452  -0.001  -0.001  14.562  -0.001
 -0.004  -0.013  -0.001  -0.001  10.452  -0.001  -0.001  14.562
 -0.000  -0.001  -0.001  -0.000  -0.001  -0.002  -0.000  -0.002
 -0.000  -0.001  -0.001  -0.001  -0.000  -0.002  -0.002  -0.000
 -0.000  -0.000   0.002  -0.004   0.002   0.003  -0.005   0.003
 -0.000  -0.001  -0.000  -0.001  -0.001  -0.000  -0.002  -0.002
 -0.000  -0.000   0.004  -0.000  -0.004   0.004  -0.000  -0.004
 total augmentation occupancy for first ion, spin component:           1
  1.166  -0.028  -0.007  -0.007  -0.007  -0.004  -0.004  -0.004  -0.014  -0.014   0.000  -0.014   0.000
 -0.028   0.001  -0.003  -0.003  -0.003   0.000   0.000   0.000   0.000   0.000  -0.000   0.000  -0.000
 -0.007  -0.003   0.086   0.002   0.002  -0.008   0.000   0.000   0.004   0.004  -0.010   0.002  -0.017
 -0.007  -0.003   0.002   0.086   0.002   0.000  -0.008   0.000   0.002   0.004   0.020   0.004  -0.000
 -0.007  -0.003   0.002   0.002   0.086   0.000   0.000  -0.008   0.004   0.002  -0.010   0.004   0.017
 -0.004   0.000  -0.008   0.000   0.000   0.001  -0.000  -0.000  -0.000  -0.000   0.001  -0.000   0.002
 -0.004   0.000   0.000  -0.008   0.000  -0.000   0.001  -0.000  -0.000  -0.000  -0.002  -0.000   0.000
 -0.004   0.000   0.000   0.000  -0.008  -0.000  -0.000   0.001  -0.000  -0.000   0.001  -0.000  -0.002
 -0.014   0.000   0.004   0.002   0.004  -0.000  -0.000  -0.000   0.007  -0.000   0.000  -0.000   0.000
 -0.014   0.000   0.004   0.004   0.002  -0.000  -0.000  -0.000  -0.000   0.007  -0.000  -0.000   0.000
  0.000  -0.000  -0.010   0.020  -0.010   0.001  -0.002   0.001   0.000  -0.000   0.023  -0.000  -0.000
 -0.014   0.000   0.002   0.004   0.004  -0.000  -0.000  -0.000  -0.000  -0.000  -0.000   0.007  -0.000
  0.000  -0.000  -0.017  -0.000   0.017   0.002   0.000  -0.002   0.000   0.000  -0.000  -0.000   0.023


------------------------ aborting loop because EDIFF is reached ----------------------------------------


    CHARGE:  cpu time    0.1029: real time    0.1030
    FORLOC:  cpu time    0.0027: real time    0.0027
    FORNL :  cpu time    0.5388: real time    0.5391
    STRESS:  cpu time    1.6105: real time    1.6113
    FORCOR:  cpu time    0.0122: real time    0.0122
    FORHAR:  cpu time    0.0047: real time    0.0048
    MIXING:  cpu time    0.0006: real time    0.0006
    OFIELD:  cpu time    0.0000: real time    0.0000

  FORCE on cell =-STRESS in cart. coord.  units (eV):
  Direction    XX          YY          ZZ          XY          YZ          ZX
  --------------------------------------------------------------------------------------
  Alpha Z   160.93394   160.93394   160.93394
  Ewald   13047.70513 13047.67830 13047.67786-28951.27622-28951.28987-28951.27617
  Hartree 14922.05839 14922.03123 14922.03137-28700.16494-28700.17847-28700.16495
  E(xc)    -439.92692  -439.92697  -439.92692     0.00994     0.00993     0.00995
  Local  -29259.64431-29259.58923-29259.59002 57650.48083 57650.50836 57650.48169
  n-local  -210.71823  -217.80378  -225.00812    -3.10179     2.53257    -0.29069
  augment    81.75131    81.75132    81.75131     0.01147     0.01143     0.01149
  Kinetic  1686.64282  1703.74744  1721.54165    21.06217   -18.45897     1.04662
  Fock        0.00000     0.00000     0.00000     0.00000     0.00000     0.00000
  -------------------------------------------------------------------------------------
  Total      -0.98821    -0.98821    -0.98821    -0.00853    -0.00853    -0.00853
  in kB      -4.55790    -4.55790    -4.55790    -0.03933    -0.03933    -0.03933
  external pressure =       -4.56 kB  Pullay stress =        0.00 kB


 VOLUME and BASIS-vectors are now :
 -----------------------------------------------------------------------------
  energy-cutoff  :      450.00
  volume of cell :      347.37
      direct lattice vectors                 reciprocal lattice vectors
     2.124436000 -2.124435000  0.000000000     0.313808828 -0.156904414 -0.156904414
     0.000000000  2.124436000 -2.124436000     0.156904340  0.156904414 -0.313808754
    25.655738000 25.655738000 25.655738000     0.012992541  0.012992547  0.012992547

  length of vectors
     3.004405496  3.004406204 44.437041722     0.384335753  0.384335662  0.022503748


 FORCES acting on ions
    electron-ion (+dipol)            ewald-force                    non-local-force                 convergence-correction
 -----------------------------------------------------------------------------------------------
   0.404E+03 0.404E+03 0.404E+03   -.404E+03 -.404E+03 -.404E+03   -.392E+00 -.392E+00 -.392E+00   -.308E-03 -.308E-03 -.308E-03
   0.347E+03 0.347E+03 0.347E+03   -.347E+03 -.347E+03 -.347E+03   -.158E-01 -.158E-01 -.158E-01   -.148E-02 -.148E-02 -.148E-02
   0.208E+03 0.208E+03 0.208E+03   -.208E+03 -.208E+03 -.208E+03   0.155E-01 0.155E-01 0.155E-01   0.129E-03 0.129E-03 0.129E-03
   0.138E+03 0.138E+03 0.138E+03   -.138E+03 -.138E+03 -.138E+03   0.209E-01 0.209E-01 0.209E-01   -.796E-03 -.796E-03 -.796E-03
   -.123E+00 -.123E+00 -.123E+00   0.961E-01 0.961E-01 0.961E-01   0.141E-02 0.141E-02 0.141E-02   -.207E-02 -.207E-02 -.207E-02
   -.694E+02 -.694E+02 -.694E+02   0.693E+02 0.693E+02 0.693E+02   0.105E-01 0.105E-01 0.105E-01   -.223E-02 -.223E-02 -.223E-02
   -.208E+03 -.208E+03 -.208E+03   0.208E+03 0.208E+03 0.208E+03   0.807E-03 0.807E-03 0.807E-03   -.222E-02 -.222E-02 -.222E-02
   -.277E+03 -.277E+03 -.277E+03   0.277E+03 0.277E+03 0.277E+03   0.106E-01 0.106E-01 0.106E-01   -.220E-02 -.220E-02 -.220E-02
   -.405E+03 -.405E+03 -.405E+03   0.405E+03 0.405E+03 0.405E+03   0.533E+00 0.533E+00 0.533E+00   0.116E-03 0.116E-03 0.116E-03
   0.277E+03 0.277E+03 0.277E+03   -.277E+03 -.277E+03 -.277E+03   0.119E-01 0.119E-01 0.119E-01   0.128E-03 0.128E-03 0.128E-03
   0.691E+02 0.691E+02 0.691E+02   -.691E+02 -.691E+02 -.691E+02   0.954E-02 0.954E-02 0.954E-02   -.176E-02 -.176E-02 -.176E-02
   -.139E+03 -.139E+03 -.139E+03   0.139E+03 0.139E+03 0.139E+03   0.895E-02 0.895E-02 0.895E-02   -.223E-02 -.223E-02 -.223E-02
   -.346E+03 -.346E+03 -.346E+03   0.346E+03 0.346E+03 0.346E+03   0.224E-01 0.224E-01 0.224E-01   -.186E-02 -.186E-02 -.186E-02
   0.936E+03 0.936E+03 0.936E+03   -.936E+03 -.936E+03 -.936E+03   0.651E-01 0.651E-01 0.651E-01   -.165E-02 -.165E-02 -.165E-02
   0.311E+03 0.311E+03 0.311E+03   -.311E+03 -.311E+03 -.311E+03   0.765E-01 0.765E-01 0.765E-01   -.524E-02 -.524E-02 -.524E-02
   -.312E+03 -.312E+03 -.312E+03   0.312E+03 0.312E+03 0.312E+03   0.756E-01 0.756E-01 0.756E-01   -.614E-02 -.614E-02 -.614E-02
   -.935E+03 -.935E+03 -.935E+03   0.935E+03 0.935E+03 0.935E+03   0.445E-01 0.445E-01 0.445E-01   -.607E-02 -.607E-02 -.607E-02
   0.114E+04 0.114E+04 0.114E+04   -.114E+04 -.114E+04 -.114E+04   0.993E+00 0.993E+00 0.993E+00   -.543E-02 -.543E-02 -.543E-02
   0.519E+03 0.519E+03 0.519E+03   -.519E+03 -.519E+03 -.519E+03   0.232E-01 0.232E-01 0.232E-01   0.162E-02 0.162E-02 0.162E-02
   -.104E+03 -.104E+03 -.104E+03   0.104E+03 0.104E+03 0.104E+03   0.688E-01 0.688E-01 0.688E-01   -.608E-02 -.608E-02 -.608E-02
   -.727E+03 -.727E+03 -.727E+03   0.727E+03 0.727E+03 0.727E+03   0.700E-01 0.700E-01 0.700E-01   -.614E-02 -.614E-02 -.614E-02
   0.728E+03 0.728E+03 0.728E+03   -.728E+03 -.728E+03 -.728E+03   0.330E-01 0.330E-01 0.330E-01   -.138E-03 -.138E-03 -.138E-03
   0.104E+03 0.104E+03 0.104E+03   -.104E+03 -.104E+03 -.104E+03   0.637E-01 0.637E-01 0.637E-01   -.514E-02 -.514E-02 -.514E-02
   -.520E+03 -.520E+03 -.520E+03   0.520E+03 0.520E+03 0.520E+03   0.631E-01 0.631E-01 0.631E-01   -.608E-02 -.608E-02 -.608E-02
   -.114E+04 -.114E+04 -.114E+04   0.114E+04 0.114E+04 0.114E+04   -.132E+01 -.132E+01 -.132E+01   -.391E-02 -.391E-02 -.391E-02
 -----------------------------------------------------------------------------------------------
   -.432E+00 -.432E+00 -.432E+00   0.455E-12 -.227E-12 -.455E-12   0.490E+00 0.490E+00 0.490E+00   -.672E-01 -.672E-01 -.672E-01
 
 
 POSITION                                       TOTAL-FORCE (eV/Angst)
 -----------------------------------------------------------------------------------
      0.55568      0.55568      0.55568        -0.002748     -0.002748     -0.002748
      2.70665      2.70665      0.58221         0.000571      0.000571      0.000571
      4.82765      4.82765      4.82765         0.001777      0.001777      0.001777
      6.95066      6.95066      4.82623         0.004541      0.004541      0.004541
      9.07510      9.07510      9.07510        -0.026694     -0.026694     -0.026694
     11.19952     11.19952      9.07508        -0.017574     -0.017574     -0.017574
     13.32397     13.32397     13.32397        -0.027843     -0.027843     -0.027843
     15.44839     15.44839     13.32396        -0.019921     -0.019921     -0.019921
     17.57285     17.57285     17.57285         0.273739      0.273739      0.273739
      4.82954      2.70511      2.70511        -0.003317     -0.003317     -0.003317
      9.07509      6.95066      6.95066        -0.018359     -0.018359     -0.018359
     13.32397     11.19953     11.19953        -0.019120     -0.019120     -0.019120
     17.57284     15.44840     15.44840        -0.073722     -0.073722     -0.073722
      2.70720      2.70720      2.70720         0.002263      0.002263      0.002263
      6.95065      6.95065      6.95065         0.026135      0.026135      0.026135
     11.19952     11.19952     11.19952         0.024452      0.024452      0.024452
     15.44840     15.44840     15.44840         0.025488      0.025488      0.025488
      2.71004      0.58561      0.58561         0.003062      0.003062      0.003062
      6.95281      4.82838      4.82838        -0.002185     -0.002185     -0.002185
     11.19952      9.07508      9.07508         0.017408      0.017408      0.017408
     15.44839     13.32395     13.32395         0.022037      0.022037      0.022037
      4.82979      4.82979      2.70536        -0.000353     -0.000353     -0.000353
      9.07510      9.07510      6.95066         0.012786      0.012786      0.012786
     13.32397     13.32397     11.19953         0.012379      0.012379      0.012379
     17.57284     17.57284     15.44841        -0.214804     -0.214804     -0.214804
 -----------------------------------------------------------------------------------
    total drift:                               -0.009101     -0.009105     -0.009099


--------------------------------------------------------------------------------------------------------



  FREE ENERGIE OF THE ION-ELECTRON SYSTEM (eV)
  ---------------------------------------------------
  free  energy   TOTEN  =      -142.74990096 eV

  energy  without entropy=     -142.74634181  energy(sigma->0) =     -142.74812139
 
 d Force = 0.4530300E-05[ 0.799E-06, 0.826E-05]  d Energy =-0.4478334E-05 0.901E-05
 d Force =-0.8239257E+00[-0.824E+00,-0.824E+00]  d Ewald  =-0.8239257E+00 0.000E+00


--------------------------------------------------------------------------------------------------------


    POTLOK:  cpu time    0.0131: real time    0.0135


--------------------------------------------------------------------------------------------------------


 stress matrix after NEB project (eV)
     -0.98821     -0.00853     -0.00853
     -0.00853     -0.98821     -0.00853
     -0.00853     -0.00853     -0.98821
  FORCES: max atom, RMS     0.007864    0.002729
  FORCE total and by dimension    0.013643    0.004541
  Stress total and by dimension    1.711750    0.988206


--------------------------------------------------------------------------------------------------------


  
 reached required accuracy - stopping structural energy minimisation
     LOOP+:  cpu time   19.2455: real time   19.2644
    4ORBIT:  cpu time    0.0000: real time    0.0000

 total amount of memory used by VASP MPI-rank0    47466. kBytes
=======================================================================

   base      :      30000. kBytes
   nonlr-proj:       3175. kBytes
   fftplans  :       2449. kBytes
   grid      :       3570. kBytes
   one-center:         56. kBytes
   wavefun   :       8216. kBytes
 
  
  
 General timing and accounting informations for this job:
 ========================================================
  
                  Total CPU time used (sec):      685.019
                            User time (sec):      683.260
                          System time (sec):        1.760
                         Elapsed time (sec):      688.281
  
                   Maximum memory used (kb):       80532.
                   Average memory used (kb):           0.
  
                          Minor page faults:       104901
                          Major page faults:            0
                 Voluntary context switches:          594
