       N       E                     dE             d eps       ncg     rms          rms(c)
DAV:   1     0.551529970954E+03    0.55153E+03   -0.48800E+04  2872   0.138E+03
DAV:   2    -0.111915048594E+03   -0.66345E+03   -0.63446E+03  3664   0.268E+02
DAV:   3    -0.168551202574E+03   -0.56636E+02   -0.56307E+02  3312   0.854E+01
DAV:   4    -0.169262872479E+03   -0.71167E+00   -0.71030E+00  3328   0.104E+01
DAV:   5    -0.169273767525E+03   -0.10895E-01   -0.10887E-01  3440   0.124E+00    0.239E+01
DAV:   6    -0.152606137754E+03    0.16668E+02   -0.96362E+01  3352   0.327E+01    0.824E+00
DAV:   7    -0.152427098198E+03    0.17904E+00   -0.21442E+00  3140   0.627E+00    0.495E+00
DAV:   8    -0.152330444775E+03    0.96653E-01   -0.72706E-01  3336   0.463E+00    0.116E+00
DAV:   9    -0.152303638643E+03    0.26806E-01   -0.15182E-01  3312   0.182E+00    0.483E-01
DAV:  10    -0.152306561868E+03   -0.29232E-02   -0.66581E-02  3168   0.105E+00    0.353E-01
DAV:  11    -0.152304322373E+03    0.22395E-02   -0.87697E-03  3584   0.453E-01    0.198E-01
DAV:  12    -0.152303963550E+03    0.35882E-03   -0.92613E-03  3368   0.392E-01    0.150E-01
DAV:  13    -0.152303139081E+03    0.82447E-03   -0.13641E-03  4368   0.288E-01    0.782E-02
DAV:  14    -0.152302793062E+03    0.34602E-03   -0.14238E-03  3460   0.216E-01    0.265E-02
DAV:  15    -0.152302087873E+03    0.70519E-03   -0.53596E-04  4080   0.267E-01    0.399E-02
DAV:  16    -0.152301623014E+03    0.46486E-03   -0.52103E-04  3768   0.283E-01    0.499E-02
DAV:  17    -0.152301261003E+03    0.36201E-03   -0.74927E-04  4448   0.337E-01    0.192E-02
DAV:  18    -0.152301166553E+03    0.94450E-04   -0.77391E-04  3592   0.229E-01    0.259E-02
DAV:  19    -0.152300999186E+03    0.16737E-03   -0.17292E-04  4416   0.227E-01    0.127E-02
DAV:  20    -0.152300916199E+03    0.82987E-04   -0.15112E-04  3720   0.182E-01    0.106E-02
DAV:  21    -0.152300848557E+03    0.67642E-04   -0.13054E-04  3992   0.220E-01    0.110E-02
DAV:  22    -0.152300811422E+03    0.37136E-04   -0.15536E-04  3916   0.202E-01    0.564E-03
DAV:  23    -0.152300838894E+03   -0.27472E-04   -0.31614E-04  3096   0.770E-02    0.140E-02
DAV:  24    -0.152300839001E+03   -0.10747E-06   -0.23013E-05  2352   0.192E-02
   1 F= -.15230084E+03 E0= -.15229929E+03  d E =-.152301E+03
       N       E                     dE             d eps       ncg     rms          rms(c)
DAV:   1    -0.152302450005E+03   -0.16111E-02   -0.23668E-02  2952   0.644E-01    0.538E-02
DAV:   2    -0.152302426884E+03    0.23121E-04   -0.19665E-03  3272   0.198E-01    0.431E-02
DAV:   3    -0.152302405494E+03    0.21390E-04   -0.25210E-04  3212   0.667E-02    0.330E-02
DAV:   4    -0.152302384330E+03    0.21164E-04   -0.88456E-05  3152   0.379E-02    0.140E-02
DAV:   5    -0.152302368680E+03    0.15650E-04   -0.38552E-05  2948   0.375E-02    0.109E-02
DAV:   6    -0.152302364752E+03    0.39280E-05   -0.13332E-05  2184   0.298E-02
   2 F= -.15230236E+03 E0= -.15230075E+03  d E =-.152575E-02
       N       E                     dE             d eps       ncg     rms          rms(c)
DAV:   1    -0.152302646726E+03   -0.27805E-03   -0.86017E-03  2928   0.393E-01    0.310E-02
DAV:   2    -0.152302646315E+03    0.41088E-06   -0.77342E-04  3276   0.121E-01    0.277E-02
DAV:   3    -0.152302635739E+03    0.10576E-04   -0.85097E-05  3120   0.404E-02    0.213E-02
DAV:   4    -0.152302625742E+03    0.99973E-05   -0.34882E-05  2820   0.264E-02    0.899E-03
DAV:   5    -0.152302616777E+03    0.89649E-05   -0.23257E-05  2632   0.361E-02    0.904E-03
DAV:   6    -0.152302614451E+03    0.23259E-05   -0.99236E-06  2036   0.236E-02
   3 F= -.15230261E+03 E0= -.15230097E+03  d E =-.177545E-02
       N       E                     dE             d eps       ncg     rms          rms(c)
DAV:   1    -0.152303177983E+03   -0.56121E-03   -0.16854E-01  2872   0.173E+00    0.565E-02
DAV:   2    -0.152303556352E+03   -0.37837E-03   -0.43326E-03  3276   0.240E-01    0.347E-02
DAV:   3    -0.152303531452E+03    0.24900E-04   -0.42071E-05  3076   0.386E-02    0.238E-02
DAV:   4    -0.152303516898E+03    0.14554E-04   -0.52987E-05  3068   0.401E-02    0.859E-03
DAV:   5    -0.152303516031E+03    0.86650E-06   -0.15862E-05  2036   0.192E-02    0.504E-03
DAV:   6    -0.152303514573E+03    0.14587E-05   -0.65959E-06  1864   0.149E-02
   4 F= -.15230351E+03 E0= -.15230184E+03  d E =-.900122E-03
       N       E                     dE             d eps       ncg     rms          rms(c)
DAV:   1    -0.152302382269E+03    0.11338E-02   -0.10176E+00  2856   0.426E+00    0.139E-01
DAV:   2    -0.152304677341E+03   -0.22951E-02   -0.26307E-02  3264   0.590E-01    0.855E-02
DAV:   3    -0.152304525921E+03    0.15142E-03   -0.26502E-04  3348   0.985E-02    0.585E-02
DAV:   4    -0.152304432553E+03    0.93368E-04   -0.28528E-04  3328   0.101E-01    0.221E-02
DAV:   5    -0.152304418837E+03    0.13715E-04   -0.10305E-04  3248   0.529E-02    0.119E-02
DAV:   6    -0.152304399658E+03    0.19179E-04   -0.29910E-05  2760   0.396E-02    0.664E-03
DAV:   7    -0.152304391311E+03    0.83465E-05   -0.10519E-05  1908   0.269E-02
   5 F= -.15230439E+03 E0= -.15230270E+03  d E =-.177686E-02
       N       E                     dE             d eps       ncg     rms          rms(c)
DAV:   1    -0.152304576048E+03   -0.17639E-03   -0.26415E-01  2952   0.223E+00    0.690E-02
DAV:   2    -0.152305159732E+03   -0.58368E-03   -0.64681E-03  3264   0.309E-01    0.372E-02
DAV:   3    -0.152305121443E+03    0.38289E-04   -0.72429E-05  3304   0.489E-02    0.254E-02
DAV:   4    -0.152305088745E+03    0.32698E-04   -0.37367E-05  2904   0.527E-02    0.103E-02
DAV:   5    -0.152305077823E+03    0.10922E-04   -0.40953E-05  3104   0.501E-02    0.646E-03
DAV:   6    -0.152305076616E+03    0.12069E-05   -0.24570E-05  2112   0.257E-02
   6 F= -.15230508E+03 E0= -.15230339E+03  d E =-.685305E-03
       N       E                     dE             d eps       ncg     rms          rms(c)
DAV:   1    -0.152301412739E+03    0.36651E-02   -0.23691E+00  2912   0.667E+00    0.204E-01
DAV:   2    -0.152306618809E+03   -0.52061E-02   -0.57496E-02  3244   0.915E-01    0.116E-01
DAV:   3    -0.152306251577E+03    0.36723E-03   -0.55247E-04  3376   0.144E-01    0.771E-02
DAV:   4    -0.152305962617E+03    0.28896E-03   -0.42450E-04  3472   0.164E-01    0.288E-02
DAV:   5    -0.152305898209E+03    0.64408E-04   -0.41993E-04  3404   0.132E-01    0.165E-02
DAV:   6    -0.152305889609E+03    0.85997E-05   -0.12619E-04  3312   0.501E-02    0.149E-02
DAV:   7    -0.152305870104E+03    0.19505E-04   -0.16634E-05  2076   0.252E-02    0.714E-03
DAV:   8    -0.152305845290E+03    0.24815E-04   -0.36759E-05  2888   0.531E-02    0.861E-03
DAV:   9    -0.152305839164E+03    0.61259E-05   -0.19319E-05  2328   0.327E-02
   7 F= -.15230584E+03 E0= -.15230420E+03  d E =-.144785E-02
       N       E                     dE             d eps       ncg     rms          rms(c)
DAV:   1    -0.152306061728E+03   -0.21644E-03   -0.18642E-01  2912   0.189E+00    0.547E-02
DAV:   2    -0.152306457151E+03   -0.39542E-03   -0.42591E-03  3132   0.258E-01    0.316E-02
DAV:   3    -0.152306436113E+03    0.21039E-04   -0.45825E-05  3136   0.330E-02    0.214E-02
DAV:   4    -0.152306419406E+03    0.16707E-04   -0.25790E-05  2464   0.310E-02    0.874E-03
DAV:   5    -0.152306414371E+03    0.50355E-05   -0.17093E-05  1888   0.278E-02    0.536E-03
DAV:   6    -0.152306411613E+03    0.27580E-05   -0.98415E-06  1864   0.225E-02
   8 F= -.15230641E+03 E0= -.15230479E+03  d E =-.572449E-03
       N       E                     dE             d eps       ncg     rms          rms(c)
DAV:   1    -0.152304047098E+03    0.23673E-02   -0.16765E+00  2896   0.566E+00    0.169E-01
DAV:   2    -0.152307718289E+03   -0.36712E-02   -0.39362E-02  3152   0.784E-01    0.938E-02
DAV:   3    -0.152307521692E+03    0.19660E-03   -0.35360E-04  3368   0.919E-02    0.649E-02
DAV:   4    -0.152307342047E+03    0.17965E-03   -0.38622E-04  3288   0.116E-01    0.230E-02
DAV:   5    -0.152307310825E+03    0.31221E-04   -0.15637E-04  3236   0.777E-02    0.205E-02
DAV:   6    -0.152307278500E+03    0.32325E-04   -0.88447E-05  3072   0.680E-02    0.980E-03
DAV:   7    -0.152307238106E+03    0.40394E-04   -0.10676E-05  2092   0.668E-02    0.856E-03
DAV:   8    -0.152307182094E+03    0.56012E-04   -0.16561E-05  2320   0.882E-02    0.837E-03
DAV:   9    -0.152307102804E+03    0.79290E-04   -0.44947E-05  3060   0.135E-01    0.835E-03
DAV:  10    -0.152306978174E+03    0.12463E-03   -0.19311E-04  4224   0.332E-01    0.168E-02
DAV:  11    -0.152306976387E+03    0.17865E-05   -0.27418E-04  3296   0.132E-01    0.119E-02
DAV:  12    -0.152306996976E+03   -0.20589E-04   -0.23479E-04  2932   0.530E-02    0.204E-02
DAV:  13    -0.152306987509E+03    0.94671E-05   -0.54485E-05  3024   0.669E-02
   9 F= -.15230699E+03 E0= -.15230543E+03  d E =-.114835E-02
       N       E                     dE             d eps       ncg     rms          rms(c)
DAV:   1    -0.152307581925E+03   -0.58495E-03   -0.21178E-01  2912   0.202E+00    0.620E-02
DAV:   2    -0.152307993433E+03   -0.41151E-03   -0.46693E-03  3252   0.275E-01    0.318E-02
DAV:   3    -0.152307971899E+03    0.21534E-04   -0.71285E-05  3276   0.394E-02    0.224E-02
DAV:   4    -0.152307952717E+03    0.19182E-04   -0.46551E-05  3172   0.358E-02    0.101E-02
DAV:   5    -0.152307944422E+03    0.82948E-05   -0.14155E-05  2104   0.282E-02    0.886E-03
DAV:   6    -0.152307937506E+03    0.69160E-05   -0.17107E-05  2228   0.315E-02
  10 F= -.15230794E+03 E0= -.15230641E+03  d E =-.949997E-03
       N       E                     dE             d eps       ncg     rms          rms(c)
DAV:   1    -0.152307228111E+03    0.71631E-03   -0.92981E-01  2872   0.422E+00    0.128E-01
DAV:   2    -0.152309070549E+03   -0.18424E-02   -0.20740E-02  3264   0.571E-01    0.691E-02
DAV:   3    -0.152308944331E+03    0.12622E-03   -0.22606E-04  3424   0.730E-02    0.470E-02
DAV:   4    -0.152308799048E+03    0.14528E-03   -0.40957E-04  3356   0.114E-01    0.253E-02
DAV:   5    -0.152308781842E+03    0.17206E-04   -0.12580E-04  3296   0.544E-02    0.256E-02
DAV:   6    -0.152308758673E+03    0.23169E-04   -0.42072E-05  2824   0.370E-02    0.146E-02
DAV:   7    -0.152308712915E+03    0.45758E-04   -0.16450E-05  2192   0.584E-02    0.920E-03
DAV:   8    -0.152308668091E+03    0.44824E-04   -0.55348E-05  3152   0.789E-02    0.926E-03
DAV:   9    -0.152308619586E+03    0.48506E-04   -0.43902E-05  2912   0.988E-02    0.774E-03
DAV:  10    -0.152308577962E+03    0.41624E-04   -0.67941E-05  3396   0.130E-01    0.874E-03
DAV:  11    -0.152308573977E+03    0.39847E-05   -0.90453E-05  3072   0.631E-02
  11 F= -.15230857E+03 E0= -.15230711E+03  d E =-.158647E-02
       N       E                     dE             d eps       ncg     rms          rms(c)
DAV:   1    -0.152308737076E+03   -0.15911E-03   -0.54482E-01  2880   0.324E+00    0.989E-02
DAV:   2    -0.152309856983E+03   -0.11199E-02   -0.12631E-02  3276   0.454E-01    0.554E-02
DAV:   3    -0.152309775269E+03    0.81714E-04   -0.17633E-04  3360   0.775E-02    0.397E-02
DAV:   4    -0.152309690247E+03    0.85022E-04   -0.14696E-04  3236   0.917E-02    0.171E-02
DAV:   5    -0.152309658805E+03    0.31441E-04   -0.88572E-05  3460   0.787E-02    0.180E-02
DAV:   6    -0.152309640364E+03    0.18441E-04   -0.85793E-05  3088   0.630E-02    0.881E-03
DAV:   7    -0.152309622786E+03    0.17579E-04   -0.16243E-05  2316   0.462E-02    0.764E-03
DAV:   8    -0.152309598853E+03    0.23932E-04   -0.13869E-05  2268   0.672E-02    0.917E-03
DAV:   9    -0.152309582697E+03    0.16157E-04   -0.20087E-05  2468   0.559E-02    0.954E-03
DAV:  10    -0.152309558631E+03    0.24066E-04   -0.32035E-05  2668   0.917E-02    0.670E-03
DAV:  11    -0.152309545677E+03    0.12954E-04   -0.31458E-05  2732   0.865E-02    0.107E-02
DAV:  12    -0.152309538725E+03    0.69511E-05   -0.42982E-05  2856   0.497E-02
  12 F= -.15230954E+03 E0= -.15230809E+03  d E =-.964748E-03
       N       E                     dE             d eps       ncg     rms          rms(c)
DAV:   1    -0.152309422310E+03    0.12337E-03   -0.15682E-01  2904   0.174E+00    0.516E-02
DAV:   2    -0.152309756546E+03   -0.33424E-03   -0.36720E-03  3252   0.246E-01    0.316E-02
DAV:   3    -0.152309734689E+03    0.21857E-04   -0.49683E-05  3200   0.383E-02    0.217E-02
DAV:   4    -0.152309714036E+03    0.20652E-04   -0.49012E-05  3048   0.425E-02    0.910E-03
DAV:   5    -0.152309708696E+03    0.53400E-05   -0.16104E-05  1932   0.303E-02    0.842E-03
DAV:   6    -0.152309700662E+03    0.80343E-05   -0.21308E-05  2356   0.462E-02
  13 F= -.15230970E+03 E0= -.15230826E+03  d E =-.112668E-02
       N       E                     dE             d eps       ncg     rms          rms(c)
DAV:   1    -0.152309734580E+03   -0.25884E-04   -0.51182E-01  2936   0.312E+00    0.926E-02
DAV:   2    -0.152310822761E+03   -0.10882E-02   -0.11722E-02  3124   0.430E-01    0.530E-02
DAV:   3    -0.152310756091E+03    0.66671E-04   -0.10543E-04  3392   0.503E-02    0.358E-02
DAV:   4    -0.152310705339E+03    0.50751E-04   -0.14465E-04  3232   0.720E-02    0.102E-02
DAV:   5    -0.152310703716E+03    0.16233E-05   -0.59684E-05  2972   0.348E-02    0.101E-02
DAV:   6    -0.152310700644E+03    0.30726E-05   -0.77416E-06  1672   0.130E-02
  14 F= -.15231070E+03 E0= -.15230927E+03  d E =-.999981E-03
       N       E                     dE             d eps       ncg     rms          rms(c)
DAV:   1    -0.152306819692E+03    0.38840E-02   -0.25330E+00  2920   0.695E+00    0.205E-01
DAV:   2    -0.152312142213E+03   -0.53225E-02   -0.58027E-02  3164   0.958E-01    0.118E-01
DAV:   3    -0.152311764776E+03    0.37744E-03   -0.51230E-04  3384   0.120E-01    0.807E-02
DAV:   4    -0.152311393957E+03    0.37082E-03   -0.64361E-04  3344   0.189E-01    0.249E-02
DAV:   5    -0.152311318408E+03    0.75550E-04   -0.43244E-04  3240   0.118E-01    0.240E-02
DAV:   6    -0.152311282813E+03    0.35595E-04   -0.98273E-05  3160   0.463E-02    0.172E-02
DAV:   7    -0.152311211815E+03    0.70998E-04   -0.16185E-05  2120   0.481E-02    0.130E-02
DAV:   8    -0.152310973493E+03    0.23832E-03   -0.13518E-04  3848   0.184E-01    0.238E-02
DAV:   9    -0.152310891068E+03    0.82425E-04   -0.91918E-05  3572   0.994E-02    0.234E-02
DAV:  10    -0.152310750892E+03    0.14018E-03   -0.60561E-04  4832   0.352E-01    0.562E-02
DAV:  11    -0.152310595739E+03    0.15515E-03   -0.33610E-04  4052   0.277E-01    0.476E-02
DAV:  12    -0.152310531399E+03    0.64341E-04   -0.35580E-04  3360   0.148E-01    0.292E-02
DAV:  13    -0.152310506158E+03    0.25241E-04   -0.13890E-04  3296   0.647E-02    0.148E-02
DAV:  14    -0.152310495878E+03    0.10280E-04   -0.17671E-05  2268   0.513E-02    0.659E-03
DAV:  15    -0.152310489888E+03    0.59899E-05   -0.12379E-05  2132   0.762E-02
  15 F= -.15231049E+03 E0= -.15230905E+03  d E =-.789226E-03
       N       E                     dE             d eps       ncg     rms          rms(c)
DAV:   1    -0.152310182292E+03    0.31359E-03   -0.49021E-01  3056   0.305E+00    0.904E-02
DAV:   2    -0.152311232534E+03   -0.10502E-02   -0.11448E-02  3148   0.423E-01    0.531E-02
DAV:   3    -0.152311161586E+03    0.70948E-04   -0.10293E-04  3356   0.525E-02    0.369E-02
DAV:   4    -0.152311095096E+03    0.66489E-04   -0.15615E-04  3224   0.852E-02    0.112E-02
DAV:   5    -0.152311087503E+03    0.75935E-05   -0.84739E-05  3152   0.457E-02    0.124E-02
DAV:   6    -0.152311083213E+03    0.42898E-05   -0.12447E-05  1728   0.156E-02
  16 F= -.15231108E+03 E0= -.15230965E+03  d E =-.138255E-02
       N       E                     dE             d eps       ncg     rms          rms(c)
DAV:   1    -0.152310888340E+03    0.19916E-03   -0.19915E-01  3008   0.194E+00    0.594E-02
DAV:   2    -0.152311290823E+03   -0.40248E-03   -0.46099E-03  3188   0.270E-01    0.328E-02
DAV:   3    -0.152311248663E+03    0.42161E-04   -0.44147E-05  2852   0.420E-02    0.228E-02
DAV:   4    -0.152311191615E+03    0.57048E-04   -0.47370E-05  2896   0.698E-02    0.876E-03
DAV:   5    -0.152311159433E+03    0.32182E-04   -0.51373E-05  3144   0.606E-02    0.801E-03
DAV:   6    -0.152311145199E+03    0.14234E-04   -0.31736E-05  2600   0.334E-02    0.688E-03
DAV:   7    -0.152311118361E+03    0.26838E-04   -0.45061E-06  2044   0.367E-02    0.476E-03
DAV:   8    -0.152311012081E+03    0.10628E-03   -0.93249E-05  3636   0.195E-01    0.176E-02
DAV:   9    -0.152311003898E+03    0.81834E-05   -0.65787E-05  2952   0.434E-02
  17 F= -.15231100E+03 E0= -.15230957E+03  d E =-.130324E-02
       N       E                     dE             d eps       ncg     rms          rms(c)
DAV:   1    -0.152311164403E+03   -0.15232E-03   -0.36144E-01  2912   0.257E+00    0.768E-02
DAV:   2    -0.152311846509E+03   -0.68211E-03   -0.76990E-03  3244   0.347E-01    0.421E-02
DAV:   3    -0.152311800840E+03    0.45669E-04   -0.96551E-05  3344   0.504E-02    0.290E-02
DAV:   4    -0.152311760768E+03    0.40071E-04   -0.12332E-04  3240   0.669E-02    0.123E-02
DAV:   5    -0.152311755697E+03    0.50714E-05   -0.52907E-05  3044   0.370E-02    0.144E-02
DAV:   6    -0.152311753206E+03    0.24906E-05   -0.10280E-05  1652   0.145E-02
  18 F= -.15231175E+03 E0= -.15231031E+03  d E =-.749309E-03
       N       E                     dE             d eps       ncg     rms          rms(c)
DAV:   1    -0.152310130043E+03    0.16257E-02   -0.12558E+00  2904   0.479E+00    0.144E-01
DAV:   2    -0.152312517690E+03   -0.23876E-02   -0.27134E-02  3260   0.655E-01    0.800E-02
DAV:   3    -0.152312365488E+03    0.15220E-03   -0.40680E-04  3376   0.985E-02    0.566E-02
DAV:   4    -0.152312249628E+03    0.11586E-03   -0.35529E-04  3272   0.109E-01    0.246E-02
DAV:   5    -0.152312226408E+03    0.23221E-04   -0.17087E-04  3408   0.755E-02    0.247E-02
DAV:   6    -0.152312214688E+03    0.11720E-04   -0.59701E-05  3076   0.384E-02    0.155E-02
DAV:   7    -0.152312206009E+03    0.86787E-05   -0.11373E-05  1928   0.171E-02
  19 F= -.15231221E+03 E0= -.15231074E+03  d E =-.120211E-02
       N       E                     dE             d eps       ncg     rms          rms(c)
DAV:   1    -0.152312264805E+03   -0.50117E-04   -0.32852E-01  2880   0.245E+00    0.754E-02
DAV:   2    -0.152312890482E+03   -0.62568E-03   -0.73171E-03  3296   0.343E-01    0.426E-02
DAV:   3    -0.152312845753E+03    0.44729E-04   -0.13502E-04  3392   0.518E-02    0.308E-02
DAV:   4    -0.152312800916E+03    0.44837E-04   -0.83681E-05  3224   0.463E-02    0.137E-02
DAV:   5    -0.152312774830E+03    0.26086E-04   -0.31268E-05  2504   0.485E-02    0.136E-02
DAV:   6    -0.152312752976E+03    0.21854E-04   -0.18989E-05  2288   0.524E-02    0.964E-03
DAV:   7    -0.152312733046E+03    0.19929E-04   -0.31870E-05  2680   0.580E-02    0.796E-03
DAV:   8    -0.152312710404E+03    0.22643E-04   -0.64176E-06  2028   0.537E-02    0.595E-03
DAV:   9    -0.152312665833E+03    0.44570E-04   -0.39147E-05  2944   0.119E-01    0.793E-03
DAV:  10    -0.152312641293E+03    0.24540E-04   -0.53780E-05  3084   0.102E-01    0.113E-02
DAV:  11    -0.152312626370E+03    0.14924E-04   -0.62575E-05  3268   0.110E-01    0.528E-03
DAV:  12    -0.152312628124E+03   -0.17546E-05   -0.64667E-05  2968   0.684E-02
  20 F= -.15231263E+03 E0= -.15231114E+03  d E =-.422115E-03
       N       E                     dE             d eps       ncg     rms          rms(c)
DAV:   1    -0.152312600912E+03    0.25458E-04   -0.46589E-02  2960   0.922E-01    0.287E-02
DAV:   2    -0.152312689315E+03   -0.88403E-04   -0.10180E-03  3312   0.127E-01    0.167E-02
DAV:   3    -0.152312683178E+03    0.61366E-05   -0.16815E-05  2092   0.195E-02    0.116E-02
DAV:   4    -0.152312678408E+03    0.47698E-05   -0.11651E-05  1776   0.171E-02    0.441E-03
DAV:   5    -0.152312677238E+03    0.11704E-05   -0.46266E-06  1736   0.133E-02    0.397E-03
DAV:   6    -0.152312676196E+03    0.10421E-05   -0.23601E-06  1720   0.145E-02
  21 F= -.15231268E+03 E0= -.15231118E+03  d E =-.470186E-03
       N       E                     dE             d eps       ncg     rms          rms(c)
DAV:   1    -0.152312229706E+03    0.44753E-03   -0.58510E-01  3008   0.326E+00    0.971E-02
DAV:   2    -0.152313401720E+03   -0.11720E-02   -0.12899E-02  3316   0.449E-01    0.580E-02
DAV:   3    -0.152313316985E+03    0.84735E-04   -0.12835E-04  3392   0.622E-02    0.404E-02
DAV:   4    -0.152313239903E+03    0.77082E-04   -0.22711E-04  3248   0.936E-02    0.149E-02
DAV:   5    -0.152313237418E+03    0.24856E-05   -0.10415E-04  3112   0.498E-02    0.158E-02
DAV:   6    -0.152313234141E+03    0.32763E-05   -0.17696E-05  1768   0.186E-02
  22 F= -.15231323E+03 E0= -.15231172E+03  d E =-.557946E-03
       N       E                     dE             d eps       ncg     rms          rms(c)
DAV:   1    -0.152313089565E+03    0.14785E-03   -0.94341E-02  2960   0.131E+00    0.421E-02
DAV:   2    -0.152313264781E+03   -0.17522E-03   -0.21315E-03  3312   0.190E-01    0.244E-02
DAV:   3    -0.152313243697E+03    0.21084E-04   -0.49924E-05  3156   0.411E-02    0.178E-02
DAV:   4    -0.152313221082E+03    0.22615E-04   -0.18682E-05  2144   0.343E-02    0.942E-03
DAV:   5    -0.152313194631E+03    0.26451E-04   -0.15273E-05  2172   0.549E-02    0.680E-03
DAV:   6    -0.152313179001E+03    0.15630E-04   -0.22296E-05  2540   0.475E-02    0.592E-03
DAV:   7    -0.152313148751E+03    0.30251E-04   -0.51817E-05  3272   0.107E-01    0.136E-02
DAV:   8    -0.152313123068E+03    0.25683E-04   -0.24466E-05  2536   0.847E-02    0.128E-02
DAV:   9    -0.152313109067E+03    0.14001E-04   -0.28211E-05  2644   0.623E-02    0.889E-03
DAV:  10    -0.152313094263E+03    0.14804E-04   -0.11186E-05  2160   0.891E-02    0.475E-03
DAV:  11    -0.152313093498E+03    0.76491E-06   -0.46368E-05  2932   0.541E-02
  23 F= -.15231309E+03 E0= -.15231158E+03  d E =-.417302E-03
       N       E                     dE             d eps       ncg     rms          rms(c)
DAV:   1    -0.152313099784E+03   -0.55214E-05   -0.30604E-02  3040   0.746E-01    0.239E-02
DAV:   2    -0.152313160008E+03   -0.60224E-04   -0.66980E-04  3300   0.103E-01    0.127E-02
DAV:   3    -0.152313155690E+03    0.43185E-05   -0.88568E-06  1864   0.178E-02    0.834E-03
DAV:   4    -0.152313152091E+03    0.35986E-05   -0.62600E-06  1900   0.190E-02    0.314E-03
DAV:   5    -0.152313151291E+03    0.80006E-06   -0.51695E-06  1676   0.156E-02    0.292E-03
DAV:   6    -0.152313151212E+03    0.79503E-07   -0.29796E-06  1616   0.790E-03
  24 F= -.15231315E+03 E0= -.15231164E+03  d E =-.475016E-03
       N       E                     dE             d eps       ncg     rms          rms(c)
DAV:   1    -0.152313156482E+03   -0.51904E-05   -0.31155E-03  2960   0.238E-01    0.781E-03
DAV:   2    -0.152313162053E+03   -0.55712E-05   -0.70190E-05  3024   0.343E-02    0.439E-03
DAV:   3    -0.152313161148E+03    0.90549E-06   -0.13320E-06  1640   0.855E-03    0.315E-03
DAV:   4    -0.152313159797E+03    0.13505E-05   -0.83675E-07  1788   0.119E-02    0.139E-03
DAV:   5    -0.152313158885E+03    0.91247E-06   -0.11888E-06  1708   0.124E-02    0.151E-03
DAV:   6    -0.152313158508E+03    0.37636E-06   -0.14948E-06  1692   0.881E-03
  25 F= -.15231316E+03 E0= -.15231165E+03  d E =-.482312E-03
       N       E                     dE             d eps       ncg     rms          rms(c)
DAV:   1    -0.152313158695E+03    0.18929E-06   -0.14525E-03  3040   0.165E-01    0.533E-03
DAV:   2    -0.152313162096E+03   -0.34002E-05   -0.41653E-05  2784   0.268E-02    0.465E-03
DAV:   3    -0.152313161591E+03    0.50500E-06   -0.11831E-06  1640   0.538E-03    0.333E-03
DAV:   4    -0.152313160935E+03    0.65566E-06   -0.93363E-07  1608   0.517E-03    0.140E-03
DAV:   5    -0.152313160587E+03    0.34833E-06   -0.32412E-07  1632   0.531E-03    0.113E-03
DAV:   6    -0.152313160095E+03    0.49189E-06   -0.26811E-07  1700   0.954E-03
  26 F= -.15231316E+03 E0= -.15231165E+03  d E =-.483899E-03
       N       E                     dE             d eps       ncg     rms          rms(c)
DAV:   1    -0.152313159322E+03    0.12648E-05   -0.34557E-04  2848   0.822E-02    0.306E-03
DAV:   2    -0.152313160420E+03   -0.10978E-05   -0.13387E-05  1708   0.154E-02    0.262E-03
DAV:   3    -0.152313160270E+03    0.14977E-06   -0.80032E-07  1608   0.385E-03    0.199E-03
DAV:   4    -0.152313159944E+03    0.32611E-06   -0.81193E-07  1620   0.424E-03    0.952E-04
DAV:   5    -0.152313159894E+03    0.50039E-07   -0.11022E-07  1580   0.239E-03    0.673E-04
DAV:   6    -0.152313159756E+03    0.13731E-06   -0.62897E-08  1560   0.369E-03
  27 F= -.15231316E+03 E0= -.15231165E+03  d E =-.483561E-03
       N       E                     dE             d eps       ncg     rms          rms(c)
DAV:   1    -0.152313125216E+03    0.34678E-04   -0.12853E-01  2976   0.156E+00    0.489E-02
DAV:   2    -0.152313396031E+03   -0.27082E-03   -0.31425E-03  3292   0.228E-01    0.309E-02
DAV:   3    -0.152313374945E+03    0.21086E-04   -0.58791E-05  3188   0.405E-02    0.235E-02
DAV:   4    -0.152313356277E+03    0.18668E-04   -0.47777E-05  2836   0.416E-02    0.102E-02
DAV:   5    -0.152313348492E+03    0.77852E-05   -0.21681E-05  2336   0.374E-02    0.847E-03
DAV:   6    -0.152313344661E+03    0.38311E-05   -0.17686E-05  2204   0.303E-02
  28 F= -.15231334E+03 E0= -.15231184E+03  d E =-.184905E-03
