 vasp.5.3.5 31Mar14 (build Apr 08 2024 10:12:10) complex                        
  
 executed on             LinuxIFC date 2024.07.29  11:17:04
 running on    8 total cores
 distrk:  each k-point on    8 cores,    1 groups
 distr:  one band on NCORES_PER_BAND=   4 cores,    2 groups


--------------------------------------------------------------------------------------------------------


 INCAR:
 POTCAR:    PAW_PBE O 08Apr2002                   
 POTCAR:    PAW_PBE Mg 13Apr2007                  
 POTCAR:    PAW_PBE Al 04Jan2001                  
 POTCAR:    PAW_PBE O 08Apr2002                   
   VRHFIN =O: s2p4                                                              
   LEXCH  = PE                                                                  
   EATOM  =   432.3788 eV,   31.7789 Ry                                         
                                                                                
   TITEL  = PAW_PBE O 08Apr2002                                                 
   LULTRA =        F    use ultrasoft PP ?                                      
   IUNSCR =        1    unscreen: 0-lin 1-nonlin 2-no                           
   RPACOR =    1.200    partial core radius                                     
   POMASS =   16.000; ZVAL   =    6.000    mass and valenz                      
   RCORE  =    1.520    outmost cutoff radius                                   
   RWIGS  =    1.550; RWIGS  =    0.820    wigner-seitz radius (au A)           
   ENMAX  =  400.000; ENMIN  =  300.000 eV                                      
   ICORE  =        2    local potential                                         
   LCOR   =        T    correct aug charges                                     
   LPAW   =        T    paw PP                                                  
   EAUG   =  605.392                                                            
   DEXC   =    0.000                                                            
   RMAX   =    1.553    core radius for proj-oper                               
   RAUG   =    1.300    factor for augmentation sphere                          
   RDEP   =    1.550    radius for radial grids                                 
   RDEPT  =    1.329    core radius for aug-charge                              
                                                                                
   Atomic configuration                                                         
    4 entries                                                                   
     n  l   j            E        occ.                                          
     1  0  0.50      -514.6923   2.0000                                         
     2  0  0.50       -23.9615   2.0000                                         
     2  1  0.50        -9.0305   4.0000                                         
     3  2  1.50        -9.5241   0.0000                                         
   Description                                                                  
     l       E           TYP  RCUT    TYP  RCUT                                 
     0    -23.9615318     23  1.200                                             
     0     -9.5240782     23  1.200                                             
     1     -9.0304911     23  1.520                                             
     1      8.1634956     23  1.520                                             
     2     -9.5240782      7  1.500                                             
  local pseudopotential read in
  partial core-charges read in
  partial kinetic energy density read in
  kinetic energy density of atom read in
  atomic valenz-charges read in
  non local Contribution for L=           0  read in
    real space projection operators read in
  non local Contribution for L=           0  read in
    real space projection operators read in
  non local Contribution for L=           1  read in
    real space projection operators read in
  non local Contribution for L=           1  read in
    real space projection operators read in
    PAW grid and wavefunctions read in
 
   number of l-projection  operators is LMAX  =           4
   number of lm-projection operators is LMMAX =           8
 
 POTCAR:    PAW_PBE Mg 13Apr2007                  
   VRHFIN =Mg: s2p0                                                             
   LEXCH  = PE                                                                  
   EATOM  =    23.0369 eV,    1.6932 Ry                                         
                                                                                
   TITEL  = PAW_PBE Mg 13Apr2007                                                
   LULTRA =        F    use ultrasoft PP ?                                      
   IUNSCR =        1    unscreen: 0-lin 1-nonlin 2-no                           
   RPACOR =    1.500    partial core radius                                     
   POMASS =   24.305; ZVAL   =    2.000    mass and valenz                      
   RCORE  =    2.000    outmost cutoff radius                                   
   RWIGS  =    2.880; RWIGS  =    1.524    wigner-seitz radius (au A)           
   ENMAX  =  200.000; ENMIN  =  100.000 eV                                      
   RCLOC  =    1.506    cutoff for local pot                                    
   LCOR   =        T    correct aug charges                                     
   LPAW   =        T    paw PP                                                  
   EAUG   =  454.734                                                            
   DEXC   =    0.000                                                            
   RMAX   =    2.045    core radius for proj-oper                               
   RAUG   =    1.300    factor for augmentation sphere                          
   RDEP   =    2.025    radius for radial grids                                 
   RDEPT  =    1.942    core radius for aug-charge                              
                                                                                
   Atomic configuration                                                         
    6 entries                                                                   
     n  l   j            E        occ.                                          
     1  0  0.50     -1259.6230   2.0000                                         
     2  0  0.50       -79.8442   2.0000                                         
     2  1  1.50       -46.6121   6.0000                                         
     3  0  0.50        -4.7055   2.0000                                         
     3  1  0.50        -1.3660   0.0000                                         
     3  2  1.50        -1.3606   0.0000                                         
   Description                                                                  
     l       E           TYP  RCUT    TYP  RCUT                                 
     0     -4.7054661     23  2.000                                             
     0     27.2116520     23  2.000                                             
     1      1.3605826     23  2.000                                             
     1     27.2116520     23  2.000                                             
     2     -1.3605826     23  2.000                                             
  local pseudopotential read in
  partial core-charges read in
  partial kinetic energy density read in
  atomic valenz-charges read in
  non local Contribution for L=           0  read in
    real space projection operators read in
  non local Contribution for L=           0  read in
    real space projection operators read in
  non local Contribution for L=           1  read in
    real space projection operators read in
  non local Contribution for L=           1  read in
    real space projection operators read in
  non local Contribution for L=           2  read in
    real space projection operators read in
    PAW grid and wavefunctions read in
 
   number of l-projection  operators is LMAX  =           5
   number of lm-projection operators is LMMAX =          13
 
 POTCAR:    PAW_PBE Al 04Jan2001                  
   VRHFIN =Al: s2p1                                                             
   LEXCH  = PE                                                                  
   EATOM  =    53.5387 eV,    3.9350 Ry                                         
                                                                                
   TITEL  = PAW_PBE Al 04Jan2001                                                
   LULTRA =        F    use ultrasoft PP ?                                      
   IUNSCR =        1    unscreen: 0-lin 1-nonlin 2-no                           
   RPACOR =    1.500    partial core radius                                     
   POMASS =   26.981; ZVAL   =    3.000    mass and valenz                      
   RCORE  =    1.900    outmost cutoff radius                                   
   RWIGS  =    2.650; RWIGS  =    1.402    wigner-seitz radius (au A)           
   ENMAX  =  240.300; ENMIN  =  180.225 eV                                      
   ICORE  =        2    local potential                                         
   LCOR   =        T    correct aug charges                                     
   LPAW   =        T    paw PP                                                  
   EAUG   =  291.052                                                            
   DEXC   =    0.000                                                            
   RMAX   =    1.939    core radius for proj-oper                               
   RAUG   =    1.300    factor for augmentation sphere                          
   RDEP   =    1.966    radius for radial grids                                 
   RDEPT  =    1.856    core radius for aug-charge                              
                                                                                
   Atomic configuration                                                         
    6 entries                                                                   
     n  l   j            E        occ.                                          
     1  0  0.50     -1511.1048   2.0000                                         
     2  0  0.50      -108.1629   2.0000                                         
     2  1  1.50       -69.6402   6.0000                                         
     3  0  0.50        -7.7528   2.0000                                         
     3  1  1.50        -2.7121   1.0000                                         
     3  2  2.50        -2.7212   0.0000                                         
   Description                                                                  
     l       E           TYP  RCUT    TYP  RCUT                                 
     0     -7.7528455     23  1.900                                             
     0     -3.3096929     23  1.900                                             
     1     -2.7120682     23  1.900                                             
     1     13.6058260     23  1.900                                             
     2     -2.7211652      7  1.900                                             
  local pseudopotential read in
  partial core-charges read in
  partial kinetic energy density read in
  atomic valenz-charges read in
  non local Contribution for L=           0  read in
    real space projection operators read in
  non local Contribution for L=           0  read in
    real space projection operators read in
  non local Contribution for L=           1  read in
    real space projection operators read in
  non local Contribution for L=           1  read in
    real space projection operators read in
    PAW grid and wavefunctions read in
 
   number of l-projection  operators is LMAX  =           4
   number of lm-projection operators is LMMAX =           8
 

 ----------------------------------------------------------------------------- 
|                                                                             |
|  ADVICE TO THIS USER RUNNING 'VASP/VAMP'   (HEAR YOUR MASTER'S VOICE ...):  |
|                                                                             |
|      You have a (more or less) 'large supercell' and for larger cells       |
|      it might be more efficient to use real space projection opertators     |
|      So try LREAL= Auto  in the INCAR   file.                               |
|      Mind: At the moment your POTCAR file does not contain real space       |
|       projectors, and has to be modified,  BUT if you                       |
|      want to do an extremely  accurate calculation you might also keep the  |
|      reciprocal projection scheme          (i.e. LREAL=.FALSE.)             |
|                                                                             |
 ----------------------------------------------------------------------------- 

  PAW_PBE O 08Apr2002                   :
 energy of atom  1       EATOM= -432.3788
 kinetic energy error for atom=    0.0208 (will be added to EATOM!!)
  PAW_PBE Mg 13Apr2007                  :
 energy of atom  2       EATOM=  -23.0369
 kinetic energy error for atom=    0.0000 (will be added to EATOM!!)
  PAW_PBE Al 04Jan2001                  :
 energy of atom  3       EATOM=  -53.5387
 kinetic energy error for atom=    0.0002 (will be added to EATOM!!)
 
 
 POSCAR: Layer                                   
  positions in direct lattice
  velocities in cartesian coordinates
 exchange correlation table for  LEXCH =        8
   RHO(1)=    0.500       N(1)  =     2000
   RHO(2)=  100.500       N(2)  =     4000
 


--------------------------------------------------------------------------------------------------------


 ion  position               nearest neighbor table
   1  0.333  0.667  0.226-  12 2.15  12 2.15  12 2.15  23 2.28  23 2.28  23 2.28
   2  0.000  0.000  0.346-  19 2.13  19 2.13  19 2.13  16 2.13  16 2.13  16 2.13
   3  0.333  0.667  0.406-  16 2.13  16 2.13  16 2.13  13 2.13  13 2.13  13 2.13
   4  0.000  0.000  0.525-  20 2.13  20 2.13  20 2.13  17 2.13  17 2.13  17 2.13
   5  0.333  0.667  0.584-  14 2.13  14 2.13  14 2.13  17 2.13  17 2.13  17 2.13
   6  0.000  0.000  0.703-  18 2.13  18 2.13  18 2.13  21 2.13  21 2.13  21 2.13
   7  0.333  0.667  0.763-  15 2.13  15 2.13  15 2.13  18 2.13  18 2.13  18 2.13
   8  0.667  0.333  0.286-  12 2.13  12 2.13  12 2.13  19 2.13  19 2.13  19 2.13
   9  0.667  0.333  0.465-  13 2.13  13 2.13  13 2.13  20 2.13  20 2.13  20 2.13
  10  0.667  0.333  0.644-  21 2.13  21 2.13  21 2.13  14 2.13  14 2.13  14 2.13
  11  0.667  0.333  0.823-  15 2.15  15 2.15  15 2.15  26 2.28  26 2.28  26 2.28
  12  0.000  0.000  0.257-   8 2.13   8 2.13   8 2.13   1 2.15   1 2.15   1 2.15  23 2.80  19 3.05
                            19 3.05  19 3.05
  13  0.000  0.000  0.435-   9 2.13   9 2.13   9 2.13   3 2.13   3 2.13   3 2.13  20 3.05  20 3.05
                            20 3.05  16 3.05  16 3.05  16 3.05
  14  0.000  0.000  0.614-   5 2.13   5 2.13   5 2.13  10 2.13  10 2.13  10 2.13  17 3.05  17 3.05
                            17 3.05  21 3.05  21 3.05  21 3.05
  15  0.000  0.000  0.792-   7 2.13   7 2.13   7 2.13  11 2.15  11 2.15  11 2.15  26 2.80  18 3.05
                            18 3.05  18 3.05
  16  0.667  0.333  0.376-   3 2.13   3 2.13   3 2.13   2 2.13   2 2.13   2 2.13  13 3.05  13 3.05
                            13 3.05  19 3.05  19 3.05  19 3.05
  17  0.667  0.333  0.554-   4 2.13   4 2.13   4 2.13   5 2.13   5 2.13   5 2.13  14 3.05  14 3.05
                            14 3.05  20 3.05  20 3.05  20 3.05
  18  0.667  0.333  0.733-   6 2.13   6 2.13   6 2.13   7 2.13   7 2.13   7 2.13  15 3.05  15 3.05
                            15 3.05  21 3.05  21 3.05  21 3.05
  19  0.333  0.667  0.316-   2 2.13   2 2.13   2 2.13   8 2.13   8 2.13   8 2.13  12 3.05  12 3.05
                            12 3.05  16 3.05  16 3.05  16 3.05
  20  0.333  0.667  0.495-   4 2.13   4 2.13   4 2.13   9 2.13   9 2.13   9 2.13  13 3.05  13 3.05
                            13 3.05  17 3.05  17 3.05  17 3.05
  21  0.333  0.667  0.673-  10 2.13  10 2.13  10 2.13   6 2.13   6 2.13   6 2.13  14 3.05  14 3.05
                            14 3.05  18 3.05  18 3.05  18 3.05
  22  0.000  0.000  0.025-  27 2.93  27 2.93  27 2.93  25 2.93  25 2.93  25 2.93
  23  0.000  0.000  0.191-   1 2.28   1 2.28   1 2.28  12 2.80  24 2.86  24 2.86  24 2.86
  24  0.667  0.333  0.137-  23 2.86  23 2.86  23 2.86  25 2.95  25 2.95  25 2.95
  25  0.333  0.667  0.080-  22 2.93  22 2.93  22 2.93  24 2.95  24 2.95  24 2.95
  26  0.000  0.000  0.858-  11 2.28  11 2.28  11 2.28  15 2.80  28 2.86  28 2.86  28 2.86
  27  0.667  0.333  0.969-  22 2.93  22 2.93  22 2.93  28 2.95  28 2.95  28 2.95
  28  0.333  0.667  0.912-  26 2.86  26 2.86  26 2.86  27 2.95  27 2.95  27 2.95
 
  LATTYP: Found a hexagonal cell.
 ALAT       =     2.9737040142
 C/A-ratio  =    14.2730862735
  
  Lattice vectors:
  
 A1 = (   2.5753034102,  -1.4868516771,   0.0000000000)
 A2 = (   0.0000000000,   2.9737033542,   0.0000000000)
 A3 = (  -0.0000000000,   0.0000000000,  42.4439339466)


Analysis of symmetry for initial positions (statically):
=====================================================================
 Subroutine PRICEL returns:
 Original cell was already a primitive cell.
 

 Routine SETGRP: Setting up the symmetry group for a 
 hexagonal supercell.


 Subroutine GETGRP returns: Found  6 space group operations
 (whereof  6 operations were pure point group operations)
 out of a pool of 24 trial point group operations.


The static configuration has the point symmetry C_3v.


Analysis of symmetry for dynamics (positions and initial velocities):
=====================================================================
 Subroutine PRICEL returns:
 Original cell was already a primitive cell.
 

 Routine SETGRP: Setting up the symmetry group for a 
 hexagonal supercell.


 Subroutine GETGRP returns: Found  6 space group operations
 (whereof  6 operations were pure point group operations)
 out of a pool of 24 trial point group operations.


The dynamic configuration has the point symmetry C_3v.


Analysis of constrained symmetry for selective dynamics:
=====================================================================
 Subroutine PRICEL returns:
 Original cell was already a primitive cell.
 

 Routine SETGRP: Setting up the symmetry group for a 
 hexagonal supercell.


 Subroutine GETGRP returns: Found  6 space group operations
 (whereof  6 operations were pure point group operations)
 out of a pool of 24 trial point group operations.


The constrained configuration has the point symmetry C_3v.
 
 
 KPOINTS: K-Spacing Value to Generate K-Mesh: 0.02

Automatic generation of k-mesh.
Space group operators:
 irot       det(A)        alpha          n_x          n_y          n_z        tau_x        tau_y        tau_z
    1     1.000000     0.000000     1.000000     0.000000     0.000000     0.000000     0.000000     0.000000
    2     1.000000   120.000000     0.000000     0.000000    -1.000000     0.000000     0.000000     0.000000
    3     1.000000   120.000000    -0.000000     0.000000     1.000000     0.000000     0.000000     0.000000
    4    -1.000000   180.000000    -0.866025     0.500000    -0.000000     0.000000     0.000000     0.000000
    5    -1.000000   180.000000     0.000000     1.000000     0.000000     0.000000     0.000000     0.000000
    6    -1.000000   180.000000    -0.866025    -0.500000    -0.000000     0.000000     0.000000     0.000000
 
 Subroutine IBZKPT returns following result:
 ===========================================
 
 Found     21 irreducible k-points:
 
 Following reciprocal coordinates:
            Coordinates               Weight
  0.000000  0.000000  0.000000      1.000000
  0.076923  0.000000  0.000000      6.000000
  0.153846  0.000000  0.000000      6.000000
  0.230769  0.000000  0.000000      6.000000
  0.307692  0.000000  0.000000      6.000000
  0.384615  0.000000  0.000000      6.000000
  0.461538  0.000000  0.000000      6.000000
  0.076923  0.076923  0.000000      6.000000
  0.153846  0.076923  0.000000     12.000000
  0.230769  0.076923 -0.000000     12.000000
  0.307692  0.076923  0.000000     12.000000
  0.384615  0.076923  0.000000     12.000000
  0.461538  0.076923  0.000000      6.000000
  0.153846  0.153846  0.000000      6.000000
  0.230769  0.153846  0.000000     12.000000
  0.307692  0.153846  0.000000     12.000000
  0.384615  0.153846  0.000000     12.000000
  0.230769  0.230769  0.000000      6.000000
  0.307692  0.230769  0.000000     12.000000
  0.384615  0.230769  0.000000      6.000000
  0.307692  0.307692  0.000000      6.000000
 
 Following cartesian coordinates:
            Coordinates               Weight
  0.000000  0.000000  0.000000      1.000000
  0.029870  0.000000  0.000000      6.000000
  0.059739  0.000000  0.000000      6.000000
  0.089609  0.000000  0.000000      6.000000
  0.119478  0.000000  0.000000      6.000000
  0.149348  0.000000  0.000000      6.000000
  0.179217  0.000000  0.000000      6.000000
  0.044804  0.025868  0.000000      6.000000
  0.074674  0.025868  0.000000     12.000000
  0.104543  0.025868  0.000000     12.000000
  0.134413  0.025868  0.000000     12.000000
  0.164282  0.025868  0.000000     12.000000
  0.194152  0.025868  0.000000      6.000000
  0.089609  0.051736  0.000000      6.000000
  0.119478  0.051736  0.000000     12.000000
  0.149348  0.051736  0.000000     12.000000
  0.179217  0.051736  0.000000     12.000000
  0.134413  0.077603  0.000000      6.000000
  0.164282  0.077603  0.000000     12.000000
  0.194152  0.077603  0.000000      6.000000
  0.179217  0.103471  0.000000      6.000000
 


--------------------------------------------------------------------------------------------------------




 Dimension of arrays:
   k-points           NKPTS =     21   k-points in BZ     NKDIM =     21   number of bands    NBANDS=     68
   number of dos      NEDOS =    301   number of ions     NIONS =     28
   non local maximal  LDIM  =      5   non local SUM 2l+1 LMDIM =     13
   total plane-waves  NPLWV = 184320
   max r-space proj   IRMAX =      1   max aug-charges    IRDMAX= 192887
   dimension x,y,z NGX =    24 NGY =   24 NGZ =  320
   dimension x,y,z NGXF=    48 NGYF=   48 NGZF=  640
   support grid    NGXF=    96 NGYF=   96 NGZF= 1280
   ions per type =              11  10   7
 NGX,Y,Z   is equivalent  to a cutoff of  13.42, 13.42, 12.53 a.u.
 NGXF,Y,Z  is equivalent  to a cutoff of  26.83, 26.83, 25.07 a.u.


 I would recommend the setting:
   dimension x,y,z NGX =    22 NGY =   22 NGZ =  316
 SYSTEM =  unknown system                          
 POSCAR =  Layer                                   

 Startparameter for this run:
   NWRITE =      2    write-flag & timer
   PREC   = accura    normal or accurate (medium, high low for compatibility)
   ISTART =      0    job   : 0-new  1-cont  2-samecut
   ICHARG =      2    charge: 1-file 2-atom 10-const
   ISPIN  =      1    spin polarized calculation?
   LNONCOLLINEAR =      F non collinear calculations
   LSORBIT =      F    spin-orbit coupling
   INIWAV =      1    electr: 0-lowe 1-rand  2-diag
   LASPH  =      F    aspherical Exc in radial PAW
   METAGGA=      F    non-selfconsistent MetaGGA calc.

 Electronic Relaxation 1
   ENCUT  =  520.0 eV  38.22 Ry    6.18 a.u.   5.53  5.53 78.92*2*pi/ulx,y,z
   ENINI  =  520.0     initial cutoff
   ENAUG  =  605.4 eV  augmentation charge cutoff
   NELM   =    100;   NELMIN=  6; NELMDL=  0     # of ELM steps 
   EDIFF  = 0.1E-04   stopping-criterion for ELM
   LREAL  =      F    real-space projection
   NLSPLINE    = F    spline interpolate recip. space projectors
   LCOMPAT=      F    compatible to vasp.4.4
   GGA_COMPAT  = T    GGA compatible to vasp.4.4-vasp.4.6
   LMAXPAW     = -100 max onsite density
   LMAXMIX     =    2 max onsite mixed and CHGCAR
   VOSKOWN=      0    Vosko Wilk Nusair interpolation
   ROPT   =    0.00000   0.00000   0.00000
 Ionic relaxation
   EDIFFG = -.2E-01   stopping-criterion for IOM
   NSW    =    500    number of steps for IOM
   NBLOCK =      1;   KBLOCK =    500    inner block; outer block 
   IBRION =      2    ionic relax: 0-MD 1-quasi-New 2-CG
   NFREE  =      1    steps in history (QN), initial steepest desc. (CG)
   ISIF   =      2    stress and relaxation
   IWAVPR =     11    prediction:  0-non 1-charg 2-wave 3-comb
   ISYM   =      2    0-nonsym 1-usesym 2-fastsym
   LCORR  =      T    Harris-Foulkes like correction to forces

   POTIM  = 0.5000    time-step for ionic-motion
   TEIN   =    0.0    initial temperature
   TEBEG  =    0.0;   TEEND  =   0.0 temperature during run
   SMASS  =  -3.00    Nose mass-parameter (am)
   estimated Nose-frequenzy (Omega)   =  0.10E-29 period in steps =****** mass=  -0.202E-27a.u.
   SCALEE = 1.0000    scale energy and forces
   NPACO  =    256;   APACO  = 16.0  distance and # of slots for P.C.
   PSTRESS=    0.0 pullay stress

  Mass of Ions in am
   POMASS =  16.00 24.30 26.98
  Ionic Valenz
   ZVAL   =   6.00  2.00  3.00
  Atomic Wigner-Seitz radii
   RWIGS  =  -1.00 -1.00 -1.00
  virtual crystal weights 
   VCA    =   1.00  1.00  1.00
   NELECT =     107.0000    total number of electrons
   NUPDOWN=      -1.0000    fix difference up-down

 DOS related values:
   EMIN   =  10.00;   EMAX   =-10.00  energy-range for DOS
   EFERMI =   0.00
   ISMEAR =     0;   SIGMA  =   0.05  broadening in eV -4-tet -1-fermi 0-gaus

 Electronic relaxation 2 (details)
   IALGO  =     38    algorithm
   LDIAG  =      T    sub-space diagonalisation (order eigenvalues)
   LSUBROT=      F    optimize rotation matrix (better conditioning)
   TURBO    =      0    0=normal 1=particle mesh
   IRESTART =      0    0=no restart 2=restart with 2 vectors
   NREBOOT  =      0    no. of reboots
   NMIN     =      0    reboot dimension
   EREF     =   0.00    reference energy to select bands
   IMIX   =      4    mixing-type and parameters
     AMIX     =   0.40;   BMIX     =  1.00
     AMIX_MAG =   1.60;   BMIX_MAG =  1.00
     AMIN     =   0.01
     WC   =   100.;   INIMIX=   1;  MIXPRE=   1;  MAXMIX= -45

 Intra band minimization:
   WEIMIN = 0.0010     energy-eigenvalue tresh-hold
   EBREAK =  0.37E-07  absolut break condition
   DEPER  =   0.30     relativ break condition  

   TIME   =   0.40     timestep for ELM

  volume/ion in A,a.u.               =      11.61        78.34
  Fermi-wavevector in a.u.,A,eV,Ry     =   1.130374  2.136097 17.384784  1.277746
  Thomas-Fermi vector in A             =   2.267070
 
 Write flags
   LWAVE  =      F    write WAVECAR
   LCHARG =      T    write CHGCAR
   LVTOT  =      F    write LOCPOT, total local potential
   LVHAR  =      F    write LOCPOT, Hartree potential only
   LELF   =      F    write electronic localiz. function (ELF)
   LORBIT =      0    0 simple, 1 ext, 2 COOP (PROOUT)


 Dipole corrections
   LMONO  =      F    monopole corrections only (constant potential shift)
   LDIPOL =      F    correct potential (dipole corrections)
   IDIPOL =      0    1-x, 2-y, 3-z, 4-all directions 
   EPSILON=  1.0000000 bulk dielectric constant

 Exchange correlation treatment:
   GGA     =    --    GGA type
   LEXCH   =     8    internal setting for exchange type
   VOSKOWN=      0    Vosko Wilk Nusair interpolation
   LHFCALC =     F    Hartree Fock is set to
   LHFONE  =     F    Hartree Fock one center treatment
   AEXX    =    0.0000 exact exchange contribution

 Linear response parameters
   LEPSILON=     F    determine dielectric tensor
   LRPA    =     F    only Hartree local field effects (RPA)
   LNABLA  =     F    use nabla operator in PAW spheres
   LVEL    =     F    velocity operator in full k-point grid
   LINTERFAST=   F  fast interpolation
   KINTER  =     0    interpolate to denser k-point grid
   CSHIFT  =0.1000    complex shift for real part using Kramers Kronig
   OMEGAMAX=  -1.0    maximum frequency
   DEG_THRESHOLD= 0.2000000E-02 threshold for treating states as degnerate
   RTIME   =    0.100 relaxation time in fs

 Orbital magnetization related:
   ORBITALMAG=     F  switch on orbital magnetization
   LCHIMAG   =     F  perturbation theory with respect to B field
   DQ        =  0.001000  dq finite difference perturbation B field



--------------------------------------------------------------------------------------------------------


 conjugate gradient relaxation of ions
   using selective dynamics as specified on POSCAR
 charge density and potential will be updated during run
 non-spin polarized calculation
 Variant of blocked Davidson
 Davidson routine will perform the subspace rotation
 perform sub-space diagonalisation
    after iterative eigenvector-optimisation
 modified Broyden-mixing scheme, WC =      100.0
 initial mixing is a Kerker type mixing with AMIX =  0.4000 and BMIX =      1.0000
 Hartree-type preconditioning will be used
 using additional bands           14
 reciprocal scheme for non local part
 use partial core corrections
 calculate Harris-corrections to forces 
   (improved forces if not selfconsistent)
 use gradient corrections 
 use of overlap-Matrix (Vanderbilt PP)
 Gauss-broadening in eV      SIGMA  =   0.05


--------------------------------------------------------------------------------------------------------


  energy-cutoff  :      520.00
  volume of cell :      325.04
      direct lattice vectors                 reciprocal lattice vectors
     2.575303410 -1.486851677  0.000000000     0.388303761  0.000000000  0.000000000
     0.000000000  2.973703354  0.000000000     0.194151881  0.336281021  0.000000000
    -0.000000000  0.000000000 42.443933947     0.000000000  0.000000000  0.023560493

  length of vectors
     2.973704014  2.973703354 42.443933947     0.388303761  0.388303847  0.023560493


 
 k-points in units of 2pi/SCALE and weight: K-Spacing Value to Generate K-Mesh: 0.02
   0.00000000  0.00000000  0.00000000       0.006
   0.02986952  0.00000000  0.00000000       0.036
   0.05973904  0.00000000  0.00000000       0.036
   0.08960856  0.00000000  0.00000000       0.036
   0.11947808  0.00000000  0.00000000       0.036
   0.14934760  0.00000000  0.00000000       0.036
   0.17921712  0.00000000  0.00000000       0.036
   0.04480428  0.02586777  0.00000000       0.036
   0.07467380  0.02586777  0.00000000       0.071
   0.10454332  0.02586777  0.00000000       0.071
   0.13441284  0.02586777  0.00000000       0.071
   0.16428236  0.02586777  0.00000000       0.071
   0.19415188  0.02586777  0.00000000       0.036
   0.08960856  0.05173554  0.00000000       0.036
   0.11947808  0.05173554  0.00000000       0.071
   0.14934760  0.05173554  0.00000000       0.071
   0.17921712  0.05173554  0.00000000       0.071
   0.13441284  0.07760331  0.00000000       0.036
   0.16428236  0.07760331  0.00000000       0.071
   0.19415188  0.07760331  0.00000000       0.036
   0.17921712  0.10347108  0.00000000       0.036
 
 k-points in reciprocal lattice and weights: K-Spacing Value to Generate K-Mesh: 0.02
   0.00000000  0.00000000  0.00000000       0.006
   0.07692308  0.00000000  0.00000000       0.036
   0.15384615  0.00000000  0.00000000       0.036
   0.23076923  0.00000000  0.00000000       0.036
   0.30769231  0.00000000  0.00000000       0.036
   0.38461538  0.00000000  0.00000000       0.036
   0.46153846  0.00000000  0.00000000       0.036
   0.07692308  0.07692308  0.00000000       0.036
   0.15384615  0.07692308  0.00000000       0.071
   0.23076923  0.07692308 -0.00000000       0.071
   0.30769231  0.07692308  0.00000000       0.071
   0.38461538  0.07692308  0.00000000       0.071
   0.46153846  0.07692308  0.00000000       0.036
   0.15384615  0.15384615  0.00000000       0.036
   0.23076923  0.15384615  0.00000000       0.071
   0.30769231  0.15384615  0.00000000       0.071
   0.38461538  0.15384615  0.00000000       0.071
   0.23076923  0.23076923  0.00000000       0.036
   0.30769231  0.23076923  0.00000000       0.071
   0.38461538  0.23076923  0.00000000       0.036
   0.30769231  0.30769231  0.00000000       0.036
 
 position of ions in fractional coordinates (direct lattice) 
   0.33333300  0.66666700  0.22622484
   0.00000000  0.00000000  0.34599307
   0.33333300  0.66666700  0.40550288
   0.00000000  0.00000000  0.52454219
   0.33333300  0.66666700  0.58407294
   0.00000000  0.00000000  0.70308412
   0.33333300  0.66666700  0.76260981
   0.66666700  0.33333300  0.28647068
   0.66666700  0.33333300  0.46500946
   0.66666700  0.33333300  0.64357655
   0.66666700  0.33333300  0.82286501
   0.00000000  0.00000000  0.25677337
   0.00000000  0.00000000  0.43527383
   0.00000000  0.00000000  0.61381035
   0.00000000  0.00000000  0.79230547
   0.66666700  0.33333300  0.37576598
   0.66666700  0.33333300  0.55430701
   0.66666700  0.33333300  0.73283301
   0.33333300  0.66666700  0.31625450
   0.33333300  0.66666700  0.49477992
   0.33333300  0.66666700  0.67331708
   0.00000000  0.00000000  0.02454007
   0.00000000  0.00000000  0.19088988
   0.66666700  0.33333300  0.13693227
   0.33333300  0.66666700  0.08035123
   0.00000000  0.00000000  0.85818494
   0.66666700  0.33333300  0.96872990
   0.33333300  0.66666700  0.91215062
 
 position of ions in cartesian coordinates  (Angst):
   0.85843361  1.48685316  9.60187234
  -0.00000000  0.00000000 14.68530712
   0.85843361  1.48685316 17.21113724
  -0.00000000  0.00000000 22.26363421
   0.85843361  1.48685316 24.79035334
  -0.00000000  0.00000000 29.84165605
   0.85843361  1.48685316 32.36816033
   1.71686980 -0.00000149 12.15894241
   1.71686980 -0.00000149 19.73683080
   1.71686980 -0.00000149 27.31592052
   1.71686980 -0.00000149 34.92562834
  -0.00000000  0.00000000 10.89847203
  -0.00000000  0.00000000 18.47473370
  -0.00000000  0.00000000 26.05252581
  -0.00000000  0.00000000 33.62856100
   1.71686980 -0.00000149 15.94898657
   1.71686980 -0.00000149 23.52697020
   1.71686980 -0.00000149 31.10431591
   0.85843361  1.48685316 13.42308496
   0.85843361  1.48685316 21.00040617
   0.85843361  1.48685316 28.57822576
  -0.00000000  0.00000000  1.04157730
  -0.00000000  0.00000000  8.10211751
   1.71686980 -0.00000149  5.81194435
   0.85843361  1.48685316  3.41042230
  -0.00000000  0.00000000 36.42474479
   1.71686980 -0.00000149 41.11670805
   0.85843361  1.48685316 38.71526082
 


--------------------------------------------------------------------------------------------------------


 k-point  1 :   0.0000 0.0000 0.0000  plane waves:    8869
 k-point  2 :   0.0769 0.0000 0.0000  plane waves:    8885
 k-point  3 :   0.1538 0.0000 0.0000  plane waves:    8851
 k-point  4 :   0.2308 0.0000 0.0000  plane waves:    8788
 k-point  5 :   0.3077 0.0000 0.0000  plane waves:    8754
 k-point  6 :   0.3846 0.0000 0.0000  plane waves:    8720
 k-point  7 :   0.4615 0.0000 0.0000  plane waves:    8648
 k-point  8 :   0.0769 0.0769 0.0000  plane waves:    8873
 k-point  9 :   0.1538 0.0769 0.0000  plane waves:    8805
 k-point 10 :   0.2308 0.0769-0.0000  plane waves:    8769
 k-point 11 :   0.3077 0.0769 0.0000  plane waves:    8748
 k-point 12 :   0.3846 0.0769 0.0000  plane waves:    8692
 k-point 13 :   0.4615 0.0769 0.0000  plane waves:    8642
 k-point 14 :   0.1538 0.1538 0.0000  plane waves:    8759
 k-point 15 :   0.2308 0.1538 0.0000  plane waves:    8763
 k-point 16 :   0.3077 0.1538 0.0000  plane waves:    8729
 k-point 17 :   0.3846 0.1538 0.0000  plane waves:    8689
 k-point 18 :   0.2308 0.2308 0.0000  plane waves:    8733
 k-point 19 :   0.3077 0.2308 0.0000  plane waves:    8726
 k-point 20 :   0.3846 0.2308 0.0000  plane waves:    8716
 k-point 21 :   0.3077 0.3077 0.0000  plane waves:    8758

 maximum and minimum number of plane-waves per node :      2232     2147

 maximum number of plane-waves:      8885
 maximum index in each direction: 
   IXMAX=    5   IYMAX=    5   IZMAX=   78
   IXMIN=   -5   IYMIN=   -5   IZMIN=  -78

 NGX is ok and might be reduce to  22
 NGY is ok and might be reduce to  22
 NGZ is ok and might be reduce to 314

 parallel 3D FFT for wavefunctions:
    minimum data exchange during FFTs selected (reduces bandwidth)
 parallel 3D FFT for charge:
    minimum data exchange during FFTs selected (reduces bandwidth)


 total amount of memory used by VASP on root node   148921. kBytes
========================================================================

   base      :      30000. kBytes
   nonl-proj :      15484. kBytes
   fftplans  :      55171. kBytes
   grid      :      22118. kBytes
   one-center:         56. kBytes
   wavefun   :      26092. kBytes
 
     INWAV:  cpu time    0.00: real time    0.00
 Broyden mixing: mesh for mixing (old mesh)
   NGX = 11   NGY = 11   NGZ =157
  (NGX  = 48   NGY  = 48   NGZ  =640)
  gives a total of  18997 points

 initial charge density was supplied:
 charge density of overlapping atoms calculated
 number of electron     107.0000000 magnetization 
 keeping initial charge density in first step


--------------------------------------------------------------------------------------------------------


 Maximum index for augmentation-charges        23156 (set IRDMAX)


--------------------------------------------------------------------------------------------------------


 First call to EWALD:  gamma=   0.258
 Maximum number of real-space cells 7x 7x 1
 Maximum number of reciprocal cells 1x 1x14

 FEWALD executed in parallel
    FEWALD:  cpu time    0.00: real time    0.00


----------------------------------------- Iteration    1(   1)  ---------------------------------------


    POTLOK:  cpu time    0.11: real time    0.11
    SETDIJ:  cpu time    0.11: real time    0.11
     EDDAV:  cpu time    4.67: real time    4.71
       DOS:  cpu time    0.00: real time    0.00
    --------------------------------------------
      LOOP:  cpu time    4.89: real time    4.92

 eigenvalue-minimisations  :  2872
 total energy-change (2. order) : 0.5515300E+03  (-0.4879988E+04)
 number of electron     107.0000000 magnetization 
 augmentation part      107.0000000 magnetization 

 Free energy of the ion-electron system (eV)
  ---------------------------------------------------
  alpha Z        PSCENC =       155.35669026
  Ewald energy   TEWEN  =      9443.36940754
  -Hartree energ DENC   =    -15135.46760478
  -exchange      EXHF   =         0.00000000
  -V(xc)+E(xc)   XCENC  =      -362.38476405
  PAW double counting   =      4928.51229836    -4205.98855578
  entropy T*S    EENTRO =        -0.00362410
  eigenvalues    EBANDS =       367.06043463
  atomic energy  EATOM  =      5361.07568887
  ---------------------------------------------------
  free energy    TOTEN  =       551.52997095 eV

  energy without entropy =      551.53359505  energy(sigma->0) =      551.53178300


--------------------------------------------------------------------------------------------------------




----------------------------------------- Iteration    1(   2)  ---------------------------------------


     EDDAV:  cpu time    5.37: real time    5.38
       DOS:  cpu time    0.00: real time    0.00
    --------------------------------------------
      LOOP:  cpu time    5.37: real time    5.38

 eigenvalue-minimisations  :  3664
 total energy-change (2. order) :-0.6634450E+03  (-0.6344574E+03)
 number of electron     107.0000000 magnetization 
 augmentation part      107.0000000 magnetization 

 Free energy of the ion-electron system (eV)
  ---------------------------------------------------
  alpha Z        PSCENC =       155.35669026
  Ewald energy   TEWEN  =      9443.36940754
  -Hartree energ DENC   =    -15135.46760478
  -exchange      EXHF   =         0.00000000
  -V(xc)+E(xc)   XCENC  =      -362.38476405
  PAW double counting   =      4928.51229836    -4205.98855578
  entropy T*S    EENTRO =        -0.00115093
  eigenvalues    EBANDS =      -296.38705809
  atomic energy  EATOM  =      5361.07568887
  ---------------------------------------------------
  free energy    TOTEN  =      -111.91504859 eV

  energy without entropy =     -111.91389767  energy(sigma->0) =     -111.91447313


--------------------------------------------------------------------------------------------------------




----------------------------------------- Iteration    1(   3)  ---------------------------------------


     EDDAV:  cpu time    4.97: real time    4.97
       DOS:  cpu time    0.00: real time    0.00
    --------------------------------------------
      LOOP:  cpu time    4.97: real time    4.98

 eigenvalue-minimisations  :  3312
 total energy-change (2. order) :-0.5663615E+02  (-0.5630744E+02)
 number of electron     107.0000000 magnetization 
 augmentation part      107.0000000 magnetization 

 Free energy of the ion-electron system (eV)
  ---------------------------------------------------
  alpha Z        PSCENC =       155.35669026
  Ewald energy   TEWEN  =      9443.36940754
  -Hartree energ DENC   =    -15135.46760478
  -exchange      EXHF   =         0.00000000
  -V(xc)+E(xc)   XCENC  =      -362.38476405
  PAW double counting   =      4928.51229836    -4205.98855578
  entropy T*S    EENTRO =        -0.00341046
  eigenvalues    EBANDS =      -353.02095254
  atomic energy  EATOM  =      5361.07568887
  ---------------------------------------------------
  free energy    TOTEN  =      -168.55120257 eV

  energy without entropy =     -168.54779212  energy(sigma->0) =     -168.54949735


--------------------------------------------------------------------------------------------------------




----------------------------------------- Iteration    1(   4)  ---------------------------------------


     EDDAV:  cpu time    4.93: real time    4.94
       DOS:  cpu time    0.00: real time    0.00
    --------------------------------------------
      LOOP:  cpu time    4.94: real time    4.94

 eigenvalue-minimisations  :  3328
 total energy-change (2. order) :-0.7116699E+00  (-0.7102955E+00)
 number of electron     107.0000000 magnetization 
 augmentation part      107.0000000 magnetization 

 Free energy of the ion-electron system (eV)
  ---------------------------------------------------
  alpha Z        PSCENC =       155.35669026
  Ewald energy   TEWEN  =      9443.36940754
  -Hartree energ DENC   =    -15135.46760478
  -exchange      EXHF   =         0.00000000
  -V(xc)+E(xc)   XCENC  =      -362.38476405
  PAW double counting   =      4928.51229836    -4205.98855578
  entropy T*S    EENTRO =        -0.00397290
  eigenvalues    EBANDS =      -353.73206000
  atomic energy  EATOM  =      5361.07568887
  ---------------------------------------------------
  free energy    TOTEN  =      -169.26287248 eV

  energy without entropy =     -169.25889958  energy(sigma->0) =     -169.26088603


--------------------------------------------------------------------------------------------------------




----------------------------------------- Iteration    1(   5)  ---------------------------------------


     EDDAV:  cpu time    5.16: real time    5.16
       DOS:  cpu time    0.00: real time    0.00
    CHARGE:  cpu time    0.39: real time    0.39
    MIXING:  cpu time    0.00: real time    0.00
    --------------------------------------------
      LOOP:  cpu time    5.56: real time    5.56

 eigenvalue-minimisations  :  3440
 total energy-change (2. order) :-0.1089505E-01  (-0.1088656E-01)
 number of electron     107.0000001 magnetization 
 augmentation part        8.4975222 magnetization 

 Broyden mixing:
  rms(total) = 0.23895E+01    rms(broyden)= 0.23890E+01
  rms(prec ) = 0.24449E+01
  weight for this iteration     100.00

 Free energy of the ion-electron system (eV)
  ---------------------------------------------------
  alpha Z        PSCENC =       155.35669026
  Ewald energy   TEWEN  =      9443.36940754
  -Hartree energ DENC   =    -15135.46760478
  -exchange      EXHF   =         0.00000000
  -V(xc)+E(xc)   XCENC  =      -362.38476405
  PAW double counting   =      4928.51229836    -4205.98855578
  entropy T*S    EENTRO =        -0.00399519
  eigenvalues    EBANDS =      -353.74293276
  atomic energy  EATOM  =      5361.07568887
  ---------------------------------------------------
  free energy    TOTEN  =      -169.27376752 eV

  energy without entropy =     -169.26977234  energy(sigma->0) =     -169.27176993


--------------------------------------------------------------------------------------------------------




----------------------------------------- Iteration    1(   6)  ---------------------------------------


    POTLOK:  cpu time    0.10: real time    0.10
    SETDIJ:  cpu time    0.11: real time    0.11
     EDDAV:  cpu time    5.10: real time    5.11
       DOS:  cpu time    0.00: real time    0.00
    CHARGE:  cpu time    0.39: real time    0.39
    MIXING:  cpu time    0.01: real time    0.01
    --------------------------------------------
      LOOP:  cpu time    5.71: real time    5.71

 eigenvalue-minimisations  :  3352
 total energy-change (2. order) : 0.1666763E+02  (-0.9636239E+01)
 number of electron     107.0000002 magnetization 
 augmentation part        6.8672232 magnetization 

 Broyden mixing:
  rms(total) = 0.82387E+00    rms(broyden)= 0.82289E+00
  rms(prec ) = 0.83392E+00
  weight for this iteration     100.00

 eigenvalues of (default mixing * dielectric matrix)
  average eigenvalue GAMMA=   0.8352
  0.8352

 Free energy of the ion-electron system (eV)
  ---------------------------------------------------
  alpha Z        PSCENC =       155.35669026
  Ewald energy   TEWEN  =      9443.36940754
  -Hartree energ DENC   =    -15341.15715035
  -exchange      EXHF   =         0.00000000
  -V(xc)+E(xc)   XCENC  =      -347.96132375
  PAW double counting   =      5845.15797614    -5126.34384097
  entropy T*S    EENTRO =        -0.00574244
  eigenvalues    EBANDS =      -142.09784305
  atomic energy  EATOM  =      5361.07568887
  ---------------------------------------------------
  free energy    TOTEN  =      -152.60613775 eV

  energy without entropy =     -152.60039531  energy(sigma->0) =     -152.60326653


--------------------------------------------------------------------------------------------------------




----------------------------------------- Iteration    1(   7)  ---------------------------------------


    POTLOK:  cpu time    0.10: real time    0.10
    SETDIJ:  cpu time    0.10: real time    0.10
     EDDAV:  cpu time    4.76: real time    4.77
       DOS:  cpu time    0.00: real time    0.00
    CHARGE:  cpu time    0.38: real time    0.38
    MIXING:  cpu time    0.01: real time    0.01
    --------------------------------------------
      LOOP:  cpu time    5.36: real time    5.37

 eigenvalue-minimisations  :  3140
 total energy-change (2. order) : 0.1790396E+00  (-0.2144183E+00)
 number of electron     107.0000002 magnetization 
 augmentation part        6.9195850 magnetization 

 Broyden mixing:
  rms(total) = 0.49524E+00    rms(broyden)= 0.49523E+00
  rms(prec ) = 0.50085E+00
  weight for this iteration     100.00

 eigenvalues of (default mixing * dielectric matrix)
  average eigenvalue GAMMA=   1.5571
  0.9758  2.1383

 Free energy of the ion-electron system (eV)
  ---------------------------------------------------
  alpha Z        PSCENC =       155.35669026
  Ewald energy   TEWEN  =      9443.36940754
  -Hartree energ DENC   =    -15334.45394201
  -exchange      EXHF   =         0.00000000
  -V(xc)+E(xc)   XCENC  =      -347.72099988
  PAW double counting   =      6183.55412575    -5464.21595714
  entropy T*S    EENTRO =        -0.00294129
  eigenvalues    EBANDS =      -149.38917031
  atomic energy  EATOM  =      5361.07568887
  ---------------------------------------------------
  free energy    TOTEN  =      -152.42709820 eV

  energy without entropy =     -152.42415691  energy(sigma->0) =     -152.42562755


--------------------------------------------------------------------------------------------------------




----------------------------------------- Iteration    1(   8)  ---------------------------------------


    POTLOK:  cpu time    0.10: real time    0.10
    SETDIJ:  cpu time    0.10: real time    0.10
     EDDAV:  cpu time    4.98: real time    4.99
       DOS:  cpu time    0.00: real time    0.00
    CHARGE:  cpu time    0.40: real time    0.40
    MIXING:  cpu time    0.01: real time    0.01
    --------------------------------------------
      LOOP:  cpu time    5.59: real time    5.60

 eigenvalue-minimisations  :  3336
 total energy-change (2. order) : 0.9665342E-01  (-0.7270584E-01)
 number of electron     107.0000002 magnetization 
 augmentation part        6.9859175 magnetization 

 Broyden mixing:
  rms(total) = 0.11610E+00    rms(broyden)= 0.11603E+00
  rms(prec ) = 0.12157E+00
  weight for this iteration     100.00

 eigenvalues of (default mixing * dielectric matrix)
  average eigenvalue GAMMA=   1.4332
  2.3312  0.9842  0.9842

 Free energy of the ion-electron system (eV)
  ---------------------------------------------------
  alpha Z        PSCENC =       155.35669026
  Ewald energy   TEWEN  =      9443.36940754
  -Hartree energ DENC   =    -15337.74297070
  -exchange      EXHF   =         0.00000000
  -V(xc)+E(xc)   XCENC  =      -346.29421298
  PAW double counting   =      6702.36889097    -5982.63651504
  entropy T*S    EENTRO =        -0.00352693
  eigenvalues    EBANDS =      -147.82389676
  atomic energy  EATOM  =      5361.07568887
  ---------------------------------------------------
  free energy    TOTEN  =      -152.33044477 eV

  energy without entropy =     -152.32691784  energy(sigma->0) =     -152.32868131


--------------------------------------------------------------------------------------------------------




----------------------------------------- Iteration    1(   9)  ---------------------------------------


    POTLOK:  cpu time    0.10: real time    0.10
    SETDIJ:  cpu time    0.11: real time    0.11
     EDDAV:  cpu time    4.95: real time    4.96
       DOS:  cpu time    0.00: real time    0.00
    CHARGE:  cpu time    0.39: real time    0.39
    MIXING:  cpu time    0.01: real time    0.01
    --------------------------------------------
      LOOP:  cpu time    5.56: real time    5.56

 eigenvalue-minimisations  :  3312
 total energy-change (2. order) : 0.2680613E-01  (-0.1518200E-01)
 number of electron     107.0000002 magnetization 
 augmentation part        6.9474737 magnetization 

 Broyden mixing:
  rms(total) = 0.48317E-01    rms(broyden)= 0.48304E-01
  rms(prec ) = 0.50444E-01
  weight for this iteration     100.00

 eigenvalues of (default mixing * dielectric matrix)
  average eigenvalue GAMMA=   1.4381
  2.4620  0.9179  0.9179  1.4545

 Free energy of the ion-electron system (eV)
  ---------------------------------------------------
  alpha Z        PSCENC =       155.35669026
  Ewald energy   TEWEN  =      9443.36940754
  -Hartree energ DENC   =    -15343.55678997
  -exchange      EXHF   =         0.00000000
  -V(xc)+E(xc)   XCENC  =      -345.70129774
  PAW double counting   =      6735.95877028    -6016.31193058
  entropy T*S    EENTRO =        -0.00298709
  eigenvalues    EBANDS =      -142.49119022
  atomic energy  EATOM  =      5361.07568887
  ---------------------------------------------------
  free energy    TOTEN  =      -152.30363864 eV

  energy without entropy =     -152.30065155  energy(sigma->0) =     -152.30214510


--------------------------------------------------------------------------------------------------------




----------------------------------------- Iteration    1(  10)  ---------------------------------------


    POTLOK:  cpu time    0.10: real time    0.10
    SETDIJ:  cpu time    0.10: real time    0.10
     EDDAV:  cpu time    4.80: real time    4.81
       DOS:  cpu time    0.00: real time    0.00
    CHARGE:  cpu time    0.38: real time    0.38
    MIXING:  cpu time    0.01: real time    0.01
    --------------------------------------------
      LOOP:  cpu time    5.40: real time    5.41

 eigenvalue-minimisations  :  3168
 total energy-change (2. order) :-0.2923225E-02  (-0.6658070E-02)
 number of electron     107.0000002 magnetization 
 augmentation part        6.9330140 magnetization 

 Broyden mixing:
  rms(total) = 0.35250E-01    rms(broyden)= 0.35226E-01
  rms(prec ) = 0.39254E-01
  weight for this iteration     100.00

 eigenvalues of (default mixing * dielectric matrix)
  average eigenvalue GAMMA=   1.3046
  2.4951  1.3803  0.9832  0.8322  0.8322

 Free energy of the ion-electron system (eV)
  ---------------------------------------------------
  alpha Z        PSCENC =       155.35669026
  Ewald energy   TEWEN  =      9443.36940754
  -Hartree energ DENC   =    -15344.49951984
  -exchange      EXHF   =         0.00000000
  -V(xc)+E(xc)   XCENC  =      -345.49126253
  PAW double counting   =      6720.27980060    -6000.65143675
  entropy T*S    EENTRO =        -0.00343726
  eigenvalues    EBANDS =      -141.74249277
  atomic energy  EATOM  =      5361.07568887
  ---------------------------------------------------
  free energy    TOTEN  =      -152.30656187 eV

  energy without entropy =     -152.30312461  energy(sigma->0) =     -152.30484324


--------------------------------------------------------------------------------------------------------




----------------------------------------- Iteration    1(  11)  ---------------------------------------


    POTLOK:  cpu time    0.10: real time    0.10
    SETDIJ:  cpu time    0.10: real time    0.10
     EDDAV:  cpu time    5.24: real time    5.25
       DOS:  cpu time    0.00: real time    0.00
    CHARGE:  cpu time    0.38: real time    0.38
    MIXING:  cpu time    0.01: real time    0.01
    --------------------------------------------
      LOOP:  cpu time    5.84: real time    5.85

 eigenvalue-minimisations  :  3584
 total energy-change (2. order) : 0.2239495E-02  (-0.8769706E-03)
 number of electron     107.0000002 magnetization 
 augmentation part        6.9404500 magnetization 

 Broyden mixing:
  rms(total) = 0.19808E-01    rms(broyden)= 0.19807E-01
  rms(prec ) = 0.22252E-01
  weight for this iteration     100.00

 eigenvalues of (default mixing * dielectric matrix)
  average eigenvalue GAMMA=   1.3931
  2.5758  1.9431  1.0124  1.0124  1.0721  0.7428

 Free energy of the ion-electron system (eV)
  ---------------------------------------------------
  alpha Z        PSCENC =       155.35669026
  Ewald energy   TEWEN  =      9443.36940754
  -Hartree energ DENC   =    -15343.62428881
  -exchange      EXHF   =         0.00000000
  -V(xc)+E(xc)   XCENC  =      -345.51345192
  PAW double counting   =      6712.06219629    -5992.42470190
  entropy T*S    EENTRO =        -0.00319198
  eigenvalues    EBANDS =      -142.60267072
  atomic energy  EATOM  =      5361.07568887
  ---------------------------------------------------
  free energy    TOTEN  =      -152.30432237 eV

  energy without entropy =     -152.30113040  energy(sigma->0) =     -152.30272638


--------------------------------------------------------------------------------------------------------




----------------------------------------- Iteration    1(  12)  ---------------------------------------


    POTLOK:  cpu time    0.10: real time    0.10
    SETDIJ:  cpu time    0.10: real time    0.10
     EDDAV:  cpu time    5.03: real time    5.04
       DOS:  cpu time    0.00: real time    0.00
    CHARGE:  cpu time    0.39: real time    0.39
    MIXING:  cpu time    0.01: real time    0.01
    --------------------------------------------
      LOOP:  cpu time    5.63: real time    5.64

 eigenvalue-minimisations  :  3368
 total energy-change (2. order) : 0.3588222E-03  (-0.9261294E-03)
 number of electron     107.0000002 magnetization 
 augmentation part        6.9405115 magnetization 

 Broyden mixing:
  rms(total) = 0.15026E-01    rms(broyden)= 0.15018E-01
  rms(prec ) = 0.17165E-01
  weight for this iteration     100.00

 eigenvalues of (default mixing * dielectric matrix)
  average eigenvalue GAMMA=   1.3917
  2.8302  2.4968  0.9220  0.9220  0.9699  0.9699  0.6311

 Free energy of the ion-electron system (eV)
  ---------------------------------------------------
  alpha Z        PSCENC =       155.35669026
  Ewald energy   TEWEN  =      9443.36940754
  -Hartree energ DENC   =    -15343.11782948
  -exchange      EXHF   =         0.00000000
  -V(xc)+E(xc)   XCENC  =      -345.46053516
  PAW double counting   =      6686.21671879    -5966.58880785
  entropy T*S    EENTRO =        -0.00317099
  eigenvalues    EBANDS =      -143.15212553
  atomic energy  EATOM  =      5361.07568887
  ---------------------------------------------------
  free energy    TOTEN  =      -152.30396355 eV

  energy without entropy =     -152.30079256  energy(sigma->0) =     -152.30237806


--------------------------------------------------------------------------------------------------------




----------------------------------------- Iteration    1(  13)  ---------------------------------------


    POTLOK:  cpu time    0.10: real time    0.10
    SETDIJ:  cpu time    0.10: real time    0.10
     EDDAV:  cpu time    6.13: real time    6.13
       DOS:  cpu time    0.00: real time    0.00
    CHARGE:  cpu time    0.39: real time    0.39
    MIXING:  cpu time    0.01: real time    0.01
    --------------------------------------------
      LOOP:  cpu time    6.73: real time    6.73

 eigenvalue-minimisations  :  4368
 total energy-change (2. order) : 0.8244697E-03  (-0.1364140E-03)
 number of electron     107.0000002 magnetization 
 augmentation part        6.9431549 magnetization 

 Broyden mixing:
  rms(total) = 0.78227E-02    rms(broyden)= 0.78220E-02
  rms(prec ) = 0.10650E-01
  weight for this iteration     100.00

 eigenvalues of (default mixing * dielectric matrix)
  average eigenvalue GAMMA=   1.3727
  2.8750  2.4651  1.0323  1.0323  1.0355  0.9430  0.9430  0.6555

 Free energy of the ion-electron system (eV)
  ---------------------------------------------------
  alpha Z        PSCENC =       155.35669026
  Ewald energy   TEWEN  =      9443.36940754
  -Hartree energ DENC   =    -15342.49046988
  -exchange      EXHF   =         0.00000000
  -V(xc)+E(xc)   XCENC  =      -345.46406150
  PAW double counting   =      6672.89773372    -5953.26728753
  entropy T*S    EENTRO =        -0.00316346
  eigenvalues    EBANDS =      -143.77767711
  atomic energy  EATOM  =      5361.07568887
  ---------------------------------------------------
  free energy    TOTEN  =      -152.30313908 eV

  energy without entropy =     -152.29997562  energy(sigma->0) =     -152.30155735


--------------------------------------------------------------------------------------------------------




----------------------------------------- Iteration    1(  14)  ---------------------------------------


    POTLOK:  cpu time    0.10: real time    0.10
    SETDIJ:  cpu time    0.11: real time    0.11
     EDDAV:  cpu time    5.10: real time    5.11
       DOS:  cpu time    0.00: real time    0.00
    CHARGE:  cpu time    0.39: real time    0.39
    MIXING:  cpu time    0.01: real time    0.01
    --------------------------------------------
      LOOP:  cpu time    5.71: real time    5.72

 eigenvalue-minimisations  :  3460
 total energy-change (2. order) : 0.3460183E-03  (-0.1423786E-03)
 number of electron     107.0000002 magnetization 
 augmentation part        6.9420017 magnetization 

 Broyden mixing:
  rms(total) = 0.26458E-02    rms(broyden)= 0.26395E-02
  rms(prec ) = 0.70480E-02
  weight for this iteration     100.00

 eigenvalues of (default mixing * dielectric matrix)
  average eigenvalue GAMMA=   1.3391
  2.9541  2.5265  0.9055  0.9055  1.1774  1.1178  0.8788  0.8788  0.7078

 Free energy of the ion-electron system (eV)
  ---------------------------------------------------
  alpha Z        PSCENC =       155.35669026
  Ewald energy   TEWEN  =      9443.36940754
  -Hartree energ DENC   =    -15342.23953488
  -exchange      EXHF   =         0.00000000
  -V(xc)+E(xc)   XCENC  =      -345.45862794
  PAW double counting   =      6672.59101592    -5952.96114010
  entropy T*S    EENTRO =        -0.00314663
  eigenvalues    EBANDS =      -144.03314613
  atomic energy  EATOM  =      5361.07568887
  ---------------------------------------------------
  free energy    TOTEN  =      -152.30279306 eV

  energy without entropy =     -152.29964644  energy(sigma->0) =     -152.30121975


--------------------------------------------------------------------------------------------------------




----------------------------------------- Iteration    1(  15)  ---------------------------------------


    POTLOK:  cpu time    0.10: real time    0.10
    SETDIJ:  cpu time    0.11: real time    0.11
     EDDAV:  cpu time    5.80: real time    5.81
       DOS:  cpu time    0.00: real time    0.00
    CHARGE:  cpu time    0.39: real time    0.39
    MIXING:  cpu time    0.01: real time    0.01
    --------------------------------------------
      LOOP:  cpu time    6.42: real time    6.42

 eigenvalue-minimisations  :  4080
 total energy-change (2. order) : 0.7051898E-03  (-0.5359606E-04)
 number of electron     107.0000002 magnetization 
 augmentation part        6.9428668 magnetization 

 Broyden mixing:
  rms(total) = 0.39898E-02    rms(broyden)= 0.39892E-02
  rms(prec ) = 0.63478E-02
  weight for this iteration     100.00

 eigenvalues of (default mixing * dielectric matrix)
  average eigenvalue GAMMA=   1.4671
  3.2407  2.5180  2.5180  0.9505  0.9505  1.0258  1.0258  0.8808  0.8808  0.6803

 Free energy of the ion-electron system (eV)
  ---------------------------------------------------
  alpha Z        PSCENC =       155.35669026
  Ewald energy   TEWEN  =      9443.36940754
  -Hartree energ DENC   =    -15341.25744957
  -exchange      EXHF   =         0.00000000
  -V(xc)+E(xc)   XCENC  =      -345.46358649
  PAW double counting   =      6671.01716275    -5951.38260332
  entropy T*S    EENTRO =        -0.00313268
  eigenvalues    EBANDS =      -145.01426525
  atomic energy  EATOM  =      5361.07568887
  ---------------------------------------------------
  free energy    TOTEN  =      -152.30208787 eV

  energy without entropy =     -152.29895520  energy(sigma->0) =     -152.30052153


--------------------------------------------------------------------------------------------------------




----------------------------------------- Iteration    1(  16)  ---------------------------------------


    POTLOK:  cpu time    0.10: real time    0.10
    SETDIJ:  cpu time    0.11: real time    0.11
     EDDAV:  cpu time    5.47: real time    5.47
       DOS:  cpu time    0.00: real time    0.00
    CHARGE:  cpu time    0.38: real time    0.38
    MIXING:  cpu time    0.01: real time    0.01
    --------------------------------------------
      LOOP:  cpu time    6.07: real time    6.08

 eigenvalue-minimisations  :  3768
 total energy-change (2. order) : 0.4648591E-03  (-0.5210275E-04)
 number of electron     107.0000002 magnetization 
 augmentation part        6.9425919 magnetization 

 Broyden mixing:
  rms(total) = 0.49928E-02    rms(broyden)= 0.49923E-02
  rms(prec ) = 0.63261E-02
  weight for this iteration     100.00

 eigenvalues of (default mixing * dielectric matrix)
  average eigenvalue GAMMA=   1.5612
  4.0783  2.8373  2.4630  0.9445  0.9445  1.3251  1.0947  1.0160  0.8956  0.8956
  0.6789

 Free energy of the ion-electron system (eV)
  ---------------------------------------------------
  alpha Z        PSCENC =       155.35669026
  Ewald energy   TEWEN  =      9443.36940754
  -Hartree energ DENC   =    -15340.55086839
  -exchange      EXHF   =         0.00000000
  -V(xc)+E(xc)   XCENC  =      -345.45720925
  PAW double counting   =      6674.07982729    -5954.44406273
  entropy T*S    EENTRO =        -0.00311383
  eigenvalues    EBANDS =      -145.72798278
  atomic energy  EATOM  =      5361.07568887
  ---------------------------------------------------
  free energy    TOTEN  =      -152.30162301 eV

  energy without entropy =     -152.29850918  energy(sigma->0) =     -152.30006610


--------------------------------------------------------------------------------------------------------




----------------------------------------- Iteration    1(  17)  ---------------------------------------


    POTLOK:  cpu time    0.10: real time    0.10
    SETDIJ:  cpu time    0.11: real time    0.11
     EDDAV:  cpu time    6.22: real time    6.22
       DOS:  cpu time    0.00: real time    0.00
    CHARGE:  cpu time    0.38: real time    0.38
    MIXING:  cpu time    0.01: real time    0.01
    --------------------------------------------
      LOOP:  cpu time    6.82: real time    6.82

 eigenvalue-minimisations  :  4448
 total energy-change (2. order) : 0.3620104E-03  (-0.7492744E-04)
 number of electron     107.0000002 magnetization 
 augmentation part        6.9422641 magnetization 

 Broyden mixing:
  rms(total) = 0.19178E-02    rms(broyden)= 0.19158E-02
  rms(prec ) = 0.34461E-02
  weight for this iteration     100.00

 eigenvalues of (default mixing * dielectric matrix)
  average eigenvalue GAMMA=   1.5993
  4.5033  2.9598  2.5045  1.6732  0.9394  0.9394  1.1353  1.1353  0.6823  0.9210
  0.8990  0.8990

 Free energy of the ion-electron system (eV)
  ---------------------------------------------------
  alpha Z        PSCENC =       155.35669026
  Ewald energy   TEWEN  =      9443.36940754
  -Hartree energ DENC   =    -15339.84484694
  -exchange      EXHF   =         0.00000000
  -V(xc)+E(xc)   XCENC  =      -345.45210680
  PAW double counting   =      6674.89276685    -5955.25895743
  entropy T*S    EENTRO =        -0.00310885
  eigenvalues    EBANDS =      -146.43679451
  atomic energy  EATOM  =      5361.07568887
  ---------------------------------------------------
  free energy    TOTEN  =      -152.30126100 eV

  energy without entropy =     -152.29815215  energy(sigma->0) =     -152.29970658


--------------------------------------------------------------------------------------------------------




----------------------------------------- Iteration    1(  18)  ---------------------------------------


    POTLOK:  cpu time    0.10: real time    0.10
    SETDIJ:  cpu time    0.11: real time    0.11
     EDDAV:  cpu time    5.19: real time    5.20
       DOS:  cpu time    0.00: real time    0.00
    CHARGE:  cpu time    0.38: real time    0.38
    MIXING:  cpu time    0.01: real time    0.01
    --------------------------------------------
      LOOP:  cpu time    5.79: real time    5.80

 eigenvalue-minimisations  :  3592
 total energy-change (2. order) : 0.9445006E-04  (-0.7739113E-04)
 number of electron     107.0000002 magnetization 
 augmentation part        6.9417589 magnetization 

 Broyden mixing:
  rms(total) = 0.25876E-02    rms(broyden)= 0.25863E-02
  rms(prec ) = 0.34910E-02
  weight for this iteration     100.00

 eigenvalues of (default mixing * dielectric matrix)
  average eigenvalue GAMMA=   1.6463
  5.0974  3.3030  2.5653  2.0370  0.9344  0.9344  1.2211  1.2211  0.9175  0.9175
  0.9222  0.6927  0.6385

 Free energy of the ion-electron system (eV)
  ---------------------------------------------------
  alpha Z        PSCENC =       155.35669026
  Ewald energy   TEWEN  =      9443.36940754
  -Hartree energ DENC   =    -15339.43902369
  -exchange      EXHF   =         0.00000000
  -V(xc)+E(xc)   XCENC  =      -345.45024624
  PAW double counting   =      6674.99243155    -5955.36029251
  entropy T*S    EENTRO =        -0.00310518
  eigenvalues    EBANDS =      -146.84271716
  atomic energy  EATOM  =      5361.07568887
  ---------------------------------------------------
  free energy    TOTEN  =      -152.30116655 eV

  energy without entropy =     -152.29806137  energy(sigma->0) =     -152.29961396


--------------------------------------------------------------------------------------------------------




----------------------------------------- Iteration    1(  19)  ---------------------------------------


    POTLOK:  cpu time    0.10: real time    0.10
    SETDIJ:  cpu time    0.11: real time    0.11
     EDDAV:  cpu time    6.00: real time    6.00
       DOS:  cpu time    0.00: real time    0.00
    CHARGE:  cpu time    0.38: real time    0.38
    MIXING:  cpu time    0.01: real time    0.01
    --------------------------------------------
      LOOP:  cpu time    6.60: real time    6.61

 eigenvalue-minimisations  :  4416
 total energy-change (2. order) : 0.1673668E-03  (-0.1729153E-04)
 number of electron     107.0000002 magnetization 
 augmentation part        6.9421297 magnetization 

 Broyden mixing:
  rms(total) = 0.12716E-02    rms(broyden)= 0.12713E-02
  rms(prec ) = 0.21720E-02
  weight for this iteration     100.00

 eigenvalues of (default mixing * dielectric matrix)
  average eigenvalue GAMMA=   1.8200
  7.7521  3.0991  2.6235  2.4730  0.9410  0.9410  1.2541  1.0908  1.0908  0.6799
  0.9023  0.9023  0.8651  0.8651

 Free energy of the ion-electron system (eV)
  ---------------------------------------------------
  alpha Z        PSCENC =       155.35669026
  Ewald energy   TEWEN  =      9443.36940754
  -Hartree energ DENC   =    -15339.01552844
  -exchange      EXHF   =         0.00000000
  -V(xc)+E(xc)   XCENC  =      -345.45346634
  PAW double counting   =      6675.53456906    -5955.90270666
  entropy T*S    EENTRO =        -0.00310197
  eigenvalues    EBANDS =      -147.26255151
  atomic energy  EATOM  =      5361.07568887
  ---------------------------------------------------
  free energy    TOTEN  =      -152.30099919 eV

  energy without entropy =     -152.29789721  energy(sigma->0) =     -152.29944820


--------------------------------------------------------------------------------------------------------




----------------------------------------- Iteration    1(  20)  ---------------------------------------


    POTLOK:  cpu time    0.10: real time    0.10
    SETDIJ:  cpu time    0.10: real time    0.10
     EDDAV:  cpu time    5.11: real time    5.12
       DOS:  cpu time    0.00: real time    0.00
    CHARGE:  cpu time    0.38: real time    0.38
    MIXING:  cpu time    0.01: real time    0.01
    --------------------------------------------
      LOOP:  cpu time    5.71: real time    5.71

 eigenvalue-minimisations  :  3720
 total energy-change (2. order) : 0.8298704E-04  (-0.1511187E-04)
 number of electron     107.0000002 magnetization 
 augmentation part        6.9423094 magnetization 

 Broyden mixing:
  rms(total) = 0.10634E-02    rms(broyden)= 0.10629E-02
  rms(prec ) = 0.16590E-02
  weight for this iteration     100.00

 eigenvalues of (default mixing * dielectric matrix)
  average eigenvalue GAMMA=   1.7907
  8.1295  3.1328  2.7481  2.5231  1.2267  1.2267  0.9488  0.9488  1.1568  0.8946
  0.8946  0.9712  0.8886  0.6796  0.4912

 Free energy of the ion-electron system (eV)
  ---------------------------------------------------
  alpha Z        PSCENC =       155.35669026
  Ewald energy   TEWEN  =      9443.36940754
  -Hartree energ DENC   =    -15338.67976890
  -exchange      EXHF   =         0.00000000
  -V(xc)+E(xc)   XCENC  =      -345.45294966
  PAW double counting   =      6674.86037085    -5955.22880192
  entropy T*S    EENTRO =        -0.00310104
  eigenvalues    EBANDS =      -147.59845221
  atomic energy  EATOM  =      5361.07568887
  ---------------------------------------------------
  free energy    TOTEN  =      -152.30091620 eV

  energy without entropy =     -152.29781516  energy(sigma->0) =     -152.29936568


--------------------------------------------------------------------------------------------------------




----------------------------------------- Iteration    1(  21)  ---------------------------------------


    POTLOK:  cpu time    0.10: real time    0.10
    SETDIJ:  cpu time    0.10: real time    0.10
     EDDAV:  cpu time    5.43: real time    5.43
       DOS:  cpu time    0.00: real time    0.00
    CHARGE:  cpu time    0.38: real time    0.38
    MIXING:  cpu time    0.01: real time    0.01
    --------------------------------------------
      LOOP:  cpu time    6.02: real time    6.03

 eigenvalue-minimisations  :  3992
 total energy-change (2. order) : 0.6764193E-04  (-0.1305372E-04)
 number of electron     107.0000002 magnetization 
 augmentation part        6.9422211 magnetization 

 Broyden mixing:
  rms(total) = 0.10967E-02    rms(broyden)= 0.10962E-02
  rms(prec ) = 0.13671E-02
  weight for this iteration     100.00

 eigenvalues of (default mixing * dielectric matrix)
  average eigenvalue GAMMA=   1.9796
  7.0261  7.0261  2.8125  2.2609  2.2609  0.9428  0.9428  1.1158  1.1158  1.1012
  1.1012  0.9212  0.9212  0.8091  0.6823  0.6342

 Free energy of the ion-electron system (eV)
  ---------------------------------------------------
  alpha Z        PSCENC =       155.35669026
  Ewald energy   TEWEN  =      9443.36940754
  -Hartree energ DENC   =    -15338.37644899
  -exchange      EXHF   =         0.00000000
  -V(xc)+E(xc)   XCENC  =      -345.45035630
  PAW double counting   =      6674.28134588    -5954.64979315
  entropy T*S    EENTRO =        -0.00310032
  eigenvalues    EBANDS =      -147.90428235
  atomic energy  EATOM  =      5361.07568887
  ---------------------------------------------------
  free energy    TOTEN  =      -152.30084856 eV

  energy without entropy =     -152.29774824  energy(sigma->0) =     -152.29929840


--------------------------------------------------------------------------------------------------------




----------------------------------------- Iteration    1(  22)  ---------------------------------------


    POTLOK:  cpu time    0.10: real time    0.10
    SETDIJ:  cpu time    0.10: real time    0.10
     EDDAV:  cpu time    5.33: real time    5.33
       DOS:  cpu time    0.00: real time    0.00
    CHARGE:  cpu time    0.38: real time    0.38
    MIXING:  cpu time    0.01: real time    0.01
    --------------------------------------------
      LOOP:  cpu time    5.92: real time    5.93

 eigenvalue-minimisations  :  3916
 total energy-change (2. order) : 0.3713582E-04  (-0.1553644E-04)
 number of electron     107.0000002 magnetization 
 augmentation part        6.9423205 magnetization 

 Broyden mixing:
  rms(total) = 0.56364E-03    rms(broyden)= 0.56289E-03
  rms(prec ) = 0.62387E-03
  weight for this iteration     100.00

 eigenvalues of (default mixing * dielectric matrix)
  average eigenvalue GAMMA=   2.1784
 11.7950  6.2143  2.8966  2.4002  2.4002  1.2550  1.2550  0.9429  0.9429  1.0977
  1.0977  0.9179  0.9179  0.8135  0.8135  0.6780  0.5953

 Free energy of the ion-electron system (eV)
  ---------------------------------------------------
  alpha Z        PSCENC =       155.35669026
  Ewald energy   TEWEN  =      9443.36940754
  -Hartree energ DENC   =    -15338.15823862
  -exchange      EXHF   =         0.00000000
  -V(xc)+E(xc)   XCENC  =      -345.45065107
  PAW double counting   =      6675.48273568    -5955.85036892
  entropy T*S    EENTRO =        -0.00309999
  eigenvalues    EBANDS =      -148.12297517
  atomic energy  EATOM  =      5361.07568887
  ---------------------------------------------------
  free energy    TOTEN  =      -152.30081142 eV

  energy without entropy =     -152.29771143  energy(sigma->0) =     -152.29926143


--------------------------------------------------------------------------------------------------------




----------------------------------------- Iteration    1(  23)  ---------------------------------------


    POTLOK:  cpu time    0.10: real time    0.10
    SETDIJ:  cpu time    0.10: real time    0.10
     EDDAV:  cpu time    4.46: real time    4.46
       DOS:  cpu time    0.00: real time    0.00
    CHARGE:  cpu time    0.38: real time    0.38
    MIXING:  cpu time    0.01: real time    0.01
    --------------------------------------------
      LOOP:  cpu time    5.06: real time    5.06

 eigenvalue-minimisations  :  3096
 total energy-change (2. order) :-0.2747210E-04  (-0.3161399E-04)
 number of electron     107.0000002 magnetization 
 augmentation part        6.9424018 magnetization 

 Broyden mixing:
  rms(total) = 0.14015E-02    rms(broyden)= 0.14009E-02
  rms(prec ) = 0.14235E-02
  weight for this iteration     100.00

 eigenvalues of (default mixing * dielectric matrix)
  average eigenvalue GAMMA=   2.1359
 12.7000  6.4506  2.8790  2.4526  2.4526  1.2808  1.2808  0.9425  0.9425  1.0639
  1.0639  0.9305  0.9305  0.8045  0.8045  0.6782  0.5916  0.1968

 Free energy of the ion-electron system (eV)
  ---------------------------------------------------
  alpha Z        PSCENC =       155.35669026
  Ewald energy   TEWEN  =      9443.36940754
  -Hartree energ DENC   =    -15338.14311281
  -exchange      EXHF   =         0.00000000
  -V(xc)+E(xc)   XCENC  =      -345.45136738
  PAW double counting   =      6675.12495398    -5955.49247572
  entropy T*S    EENTRO =        -0.00310094
  eigenvalues    EBANDS =      -148.13752270
  atomic energy  EATOM  =      5361.07568887
  ---------------------------------------------------
  free energy    TOTEN  =      -152.30083889 eV

  energy without entropy =     -152.29773796  energy(sigma->0) =     -152.29928843


--------------------------------------------------------------------------------------------------------




----------------------------------------- Iteration    1(  24)  ---------------------------------------


    POTLOK:  cpu time    0.10: real time    0.10
    SETDIJ:  cpu time    0.10: real time    0.10
     EDDAV:  cpu time    3.69: real time    3.70
       DOS:  cpu time    0.00: real time    0.00
    --------------------------------------------
      LOOP:  cpu time    3.89: real time    3.90

 eigenvalue-minimisations  :  2352
 total energy-change (2. order) :-0.1074686E-06  (-0.2301292E-05)
 number of electron     107.0000002 magnetization 
 augmentation part        6.9424018 magnetization 

 Free energy of the ion-electron system (eV)
  ---------------------------------------------------
  alpha Z        PSCENC =       155.35669026
  Ewald energy   TEWEN  =      9443.36940754
  -Hartree energ DENC   =    -15338.16004297
  -exchange      EXHF   =         0.00000000
  -V(xc)+E(xc)   XCENC  =      -345.45110478
  PAW double counting   =      6675.38560818    -5955.75332060
  entropy T*S    EENTRO =        -0.00310109
  eigenvalues    EBANDS =      -148.12066441
  atomic energy  EATOM  =      5361.07568887
  ---------------------------------------------------
  free energy    TOTEN  =      -152.30083900 eV

  energy without entropy =     -152.29773791  energy(sigma->0) =     -152.29928845


--------------------------------------------------------------------------------------------------------




 average (electrostatic) potential at core
  the test charge radii are     0.7215  1.0714  1.0406
  (the norm of the test charge is              1.0000)
       1 -69.7094       2 -69.6529       3 -69.6639       4 -69.6754       5 -69.6753
       6 -69.6574       7 -69.6676       8 -69.6590       9 -69.6738      10 -69.6664
      11 -69.7142      12 -35.2421      13 -35.2633      14 -35.2650      15 -35.2498
      16 -35.2564      17 -35.2709      18 -35.2603      19 -35.2533      20 -35.2703
      21 -35.2596      22 -73.7311      23 -74.5832      24 -73.7427      25 -73.6871
      26 -74.5841      27 -73.6871      28 -73.7428
 
 
 
 E-fermi :   7.0296     XC(G=0): -10.5536     alpha+bet :-13.0807


 k-point     1 :       0.0000    0.0000    0.0000
  band No.  band energies     occupation 
      1     -13.9884      2.00000
      2     -13.9258      2.00000
      3     -13.8364      2.00000
      4     -13.7202      2.00000
      5     -13.5831      2.00000
      6     -13.4392      2.00000
      7     -13.2974      2.00000
[...]
     23       0.3431      2.00000
     24       0.4641      2.00000
     25       0.6237      2.00000
     26       0.7630      2.00000
     27       0.9072      2.00000
     28       0.9752      2.00000
     29       1.0182      2.00000
     30       1.0836      2.00000
     31       1.1352      2.00000
     32       1.1960      2.00000
     33       1.2106      2.00000
     34       1.3058      2.00000
     35       1.3932      2.00000
     36       1.4789      2.00000
     37       1.6236      2.00000
     38       1.6790      2.00000
     39       1.7811      2.00000
     40       1.8588      2.00000
     41       1.9101      2.00000
     42       2.0077      2.00000
     43       2.0642      2.00000
     44       2.1133      2.00000
     45       2.1611      2.00000
     46       2.2437      2.00000
     47       2.7066      2.00000
     48       3.5934      2.00000
     49       4.7076      2.00000
     50       4.8872      2.00000
     51       5.1961      2.00000
     52       5.5890      2.00000
     53       6.1780      2.00000
     54       6.4841      2.00000
     55       6.6764      2.00000
     56       6.9110      1.99831
     57       7.3252      0.00000
     58       7.8240      0.00000
     59       8.1543      0.00000
     60       8.4899      0.00000
     61       9.3281      0.00000
     62       9.4646      0.00000
     63       9.6863      0.00000
     64      10.6626      0.00000
     65      10.8278      0.00000
     66      11.3399      0.00000
     67      12.0321      0.00000
     68      12.1376      0.00000

 k-point    20 :       0.3846    0.2308    0.0000
  band No.  band energies     occupation 
      1     -12.6796      2.00000
      2     -12.6684      2.00000
      3     -12.6582      2.00000
      4     -12.6413      2.00000
      5     -12.6231      2.00000
      6     -12.6031      2.00000
      7     -12.5850      2.00000
      8     -12.5690      2.00000
      9     -12.5546      2.00000
     10     -12.4198      2.00000
     11     -12.4180      2.00000
     12      -0.8213      2.00000
     13      -0.7560      2.00000
     14      -0.6569      2.00000
     15      -0.5380      2.00000
     16      -0.4194      2.00000
     17      -0.3811      2.00000
     18      -0.3579      2.00000
     19      -0.3240      2.00000
     20      -0.3205      2.00000
     21      -0.2643      2.00000
     22      -0.2597      2.00000
     23       0.5543      2.00000
     24       0.5752      2.00000
     25       0.6225      2.00000
     26       0.6749      2.00000
     27       0.6843      2.00000
     28       0.7307      2.00000
     29       0.7409      2.00000
     30       0.8375      2.00000
     31       0.9985      2.00000
     32       1.1395      2.00000
     33       1.2514      2.00000
     34       1.3365      2.00000
     35       1.3511      2.00000
     36       1.6411      2.00000
     37       1.6790      2.00000
     38       1.7350      2.00000
     39       1.7782      2.00000
     40       1.8657      2.00000
     41       1.9883      2.00000
     42       2.0610      2.00000
     43       2.1027      2.00000
     44       2.1111      2.00000
     45       3.1246      2.00000
     46       3.1524      2.00000
     47       3.4586      2.00000
     48       3.5385      2.00000
     49       3.9824      2.00000
     50       4.1433      2.00000
     51       4.7859      2.00000
     52       5.0532      2.00000
     53       5.9919      2.00000
     54       6.3441      2.00000
     55       6.4845      2.00000
     56       6.6542      2.00000
     57       6.9635      1.90237
     58       7.6266      0.00000
     59       8.0137      0.00000
     60       8.4013      0.00000
     61       9.2660      0.00000
     62       9.3863      0.00000
     63       9.3873      0.00000
     64      10.5834      0.00000
     65      10.7884      0.00000
     66      10.8933      0.00000
     67      12.0171      0.00000
     68      12.2257      0.00000

 k-point    21 :       0.3077    0.3077    0.0000
  band No.  band energies     occupation 
      1     -12.6461      2.00000
      2     -12.6358      2.00000
      3     -12.6284      2.00000
      4     -12.6159      2.00000
      5     -12.6029      2.00000
      6     -12.5895      2.00000
      7     -12.5776      2.00000
      8     -12.5675      2.00000
      9     -12.5563      2.00000
     10     -12.4030      2.00000
     11     -12.4012      2.00000
     12      -0.4672      2.00000
     13      -0.4603      2.00000
     14      -0.4196      2.00000
     15      -0.3928      2.00000
     16      -0.3464      2.00000
     17      -0.2909      2.00000
     18      -0.2649      2.00000
     19      -0.1564      2.00000
     20      -0.0559      2.00000
     21      -0.0027      2.00000
     22       0.0221      2.00000
     23       0.1088      2.00000
     24       0.2308      2.00000
     25       0.3107      2.00000
     26       0.3668      2.00000
     27       0.4422      2.00000
     28       0.4974      2.00000
     29       0.5366      2.00000
     30       0.6595      2.00000
     31       0.6761      2.00000
     32       0.8000      2.00000
     33       0.8067      2.00000
     34       1.3410      2.00000
     35       1.3480      2.00000
     36       1.6462      2.00000
     37       1.7540      2.00000
     38       1.8381      2.00000
     39       1.8610      2.00000
     40       1.8889      2.00000
     41       1.9286      2.00000
     42       1.9294      2.00000
     43       1.9830      2.00000
     44       2.0722      2.00000
     45       3.0171      2.00000
     46       3.3887      2.00000
     47       3.9392      2.00000
     48       4.6235      2.00000
     49       4.6263      2.00000
     50       4.7845      2.00000
     51       4.9495      2.00000
     52       4.9782      2.00000
     53       5.4104      2.00000
     54       5.4940      2.00000
     55       5.7653      2.00000
     56       6.2183      2.00000
     57       6.9692      1.86551
     58       7.6342      0.00000
     59       7.7413      0.00000
     60       8.0150      0.00000
     61       8.9730      0.00000
     62       9.0863      0.00000
     63       9.3313      0.00000
     64      10.4851      0.00000
     65      10.5494      0.00000
     66      10.9143      0.00000
     67      11.9748      0.00000
     68      12.0054      0.00000


--------------------------------------------------------------------------------------------------------


 soft charge-density along one line, spin component           1
         0         1         2         3         4         5         6         7         8         9
 total charge-density along one line
 
 pseudopotential strength for first ion, spin component:           1
 12.111   0.000 -14.731   0.000  -0.000   0.000  -0.007   0.000   0.000   0.000   0.000   0.000   0.008   0.000  -0.000   0.000
-14.731   0.000  17.936   0.000   0.000   0.000   0.008   0.000  -0.000   0.000  -0.000   0.000  -0.011   0.000   0.000   0.000
 -0.000   0.000   0.000   0.000  -8.245   0.000  -0.000   0.000   0.000   0.000   9.859   0.000   0.000   0.000  -0.000   0.000
 -0.007   0.000   0.008   0.000  -0.000   0.000  -8.256   0.000   0.000   0.000   0.000   0.000   9.874   0.000  -0.000   0.000
  0.000   0.000  -0.000   0.000   0.000   0.000   0.000   0.000  -8.245   0.000  -0.000   0.000  -0.000   0.000   9.859   0.000
  0.000   0.000  -0.000   0.000   9.859   0.000   0.000   0.000  -0.000   0.000 -11.625   0.000  -0.000   0.000   0.000   0.000
  0.008   0.000  -0.011   0.000   0.000   0.000   9.874   0.000  -0.000   0.000  -0.000   0.000 -11.645   0.000   0.000   0.000
 -0.000   0.000   0.000   0.000  -0.000   0.000  -0.000   0.000   9.859   0.000   0.000   0.000   0.000   0.000 -11.625   0.000
 total augmentation occupancy for first ion, spin component:           1
  2.519   0.323   0.000   0.038  -0.000   0.000   0.005  -0.000
  0.323   0.083   0.000   0.021  -0.000   0.000  -0.008   0.000
  0.000   0.000   2.065   0.000   0.000   0.231   0.000   0.000
  0.038   0.021   0.000   2.061  -0.000   0.000   0.241  -0.000
 -0.000  -0.000   0.000  -0.000   2.065   0.000  -0.000   0.231
  0.000   0.000   0.231   0.000   0.000   0.030   0.000   0.000
  0.005  -0.008   0.000   0.241  -0.000   0.000   0.035  -0.000
 -0.000   0.000   0.000  -0.000   0.231   0.000  -0.000   0.030


------------------------ aborting loop because EDIFF is reached ----------------------------------------


    CHARGE:  cpu time    0.38: real time    0.38
    FORLOC:  cpu time    0.03: real time    0.03
    FORNL :  cpu time    3.36: real time    3.37
    STRESS:  cpu time    4.42: real time    4.42
    FORCOR:  cpu time    0.13: real time    0.13
    FORHAR:  cpu time    0.06: real time    0.06
    MIXING:  cpu time    0.00: real time    0.00
    OFIELD:  cpu time    0.00: real time    0.00

  FORCE on cell =-STRESS in cart. coord.  units (eV):
  Direction    XX          YY          ZZ          XY          YZ          ZX
  --------------------------------------------------------------------------------------
  Alpha Z   155.35669   155.35669   155.35669
  Ewald   12908.06646 12908.06696-15811.12560    -0.00017     0.00001    -0.00014
  Hartree 14866.68978 14866.68969-13834.84593    -0.00000     0.00000     0.00004
  E(xc)    -450.85852  -450.85853  -450.72919    -0.00000     0.00000    -0.00000
  Local  -29117.07123-29117.07066 28309.38699    -0.00019    -0.00001     0.00004
  n-local   -75.66873   -92.17256   -82.03371     3.47541    -1.66451     4.70572
  augment    67.21515    67.21488    66.24311     0.00019    -0.00000     0.00000
  Kinetic  1654.68038  1646.10405  1632.97096    -2.66015    -0.00931     0.41885
  Fock        0.00000     0.00000     0.00000     0.00000     0.00000     0.00000
  -------------------------------------------------------------------------------------
  Total      -4.12975    -4.12975   -14.77668     0.00000     0.00000     0.00000
  in kB     -20.35602   -20.35600   -72.83596     0.00000     0.00000     0.00000
  external pressure =      -37.85 kB  Pullay stress =        0.00 kB


 VOLUME and BASIS-vectors are now :
 -----------------------------------------------------------------------------
  energy-cutoff  :      520.00
  volume of cell :      325.04
      direct lattice vectors                 reciprocal lattice vectors
     2.575303410 -1.486851677  0.000000000     0.388303761  0.000000000  0.000000000
     0.000000000  2.973703354  0.000000000     0.194151881  0.336281021  0.000000000
    -0.000000000  0.000000000 42.443933947     0.000000000  0.000000000  0.023560493

  length of vectors
     2.973704014  2.973703354 42.443933947     0.388303761  0.388303847  0.023560493


 FORCES acting on ions
    electron-ion (+dipol)            ewald-force                    non-local-force                 convergence-correction
 -----------------------------------------------------------------------------------------------
   0.106E-02 -.183E-02 0.116E+04   0.505E-04 -.594E-04 -.117E+04   -.578E-16 0.000E+00 0.262E+01   0.352E-09 -.465E-09 0.156E-02
   0.281E-08 0.484E-09 0.708E+03   0.813E-08 -.981E-08 -.708E+03   -.746E-19 -.678E-20 0.313E-02   -.970E-09 0.173E-08 -.465E-01
   0.105E-02 -.182E-02 0.472E+03   0.549E-04 -.951E-04 -.472E+03   -.543E-19 -.128E-19 0.387E-02   -.116E-07 0.197E-07 -.800E-01
   -.141E-09 -.155E-10 0.541E-01   0.447E-08 -.504E-08 -.142E-02   -.281E-18 0.339E-20 0.132E-01   -.483E-09 0.580E-09 -.625E-01
   0.105E-02 -.182E-02 -.236E+03   0.549E-04 -.951E-04 0.236E+03   -.874E-19 -.678E-20 0.363E-02   0.797E-08 -.142E-07 -.163E-01
   -.341E-08 -.372E-09 -.708E+03   -.351E-07 0.406E-07 0.708E+03   0.213E-18 0.136E-19 -.992E-02   0.138E-08 -.212E-08 0.473E-01
   0.105E-02 -.183E-02 -.944E+03   0.548E-04 -.946E-04 0.944E+03   0.147E-17 0.000E+00 -.780E-01   -.884E-08 0.153E-07 0.429E-01
   -.105E-02 0.183E-02 0.944E+03   -.548E-04 0.945E-04 -.944E+03   -.965E-18 0.000E+00 0.584E-01   -.784E-09 0.155E-08 -.191E-01
   -.105E-02 0.182E-02 0.236E+03   -.549E-04 0.951E-04 -.236E+03   -.331E-18 -.271E-19 0.159E-01   -.359E-08 0.625E-08 -.867E-01
   -.105E-02 0.182E-02 -.472E+03   -.549E-04 0.951E-04 0.472E+03   -.782E-19 -.339E-20 0.295E-02   0.888E-08 -.151E-07 0.299E-01
   -.106E-02 0.183E-02 -.116E+04   -.505E-04 0.594E-04 0.117E+04   0.302E-16 -.833E-16 -.264E+01   -.142E-09 0.479E-09 0.291E-01
   -.597E-06 0.315E-06 0.352E+03   0.885E-06 -.112E-05 -.352E+03   0.102E-17 0.000E+00 -.443E-01   0.822E-09 -.146E-08 -.290E-02
   0.381E-07 -.475E-07 0.118E+03   -.457E-07 0.516E-07 -.118E+03   -.200E-18 0.542E-19 0.681E-02   -.392E-10 -.480E-10 -.295E-01
   -.483E-08 -.909E-08 -.118E+03   0.453E-07 -.512E-07 0.118E+03   0.113E-18 0.108E-18 -.519E-02   -.501E-09 0.989E-09 0.352E-02
   0.549E-06 -.233E-06 -.352E+03   -.884E-06 0.112E-05 0.352E+03   -.101E-17 0.347E-17 0.416E-01   -.423E-09 0.699E-09 0.125E-01
   0.424E-04 -.735E-04 0.197E+03   -.474E-04 0.821E-04 -.197E+03   -.987E-19 0.000E+00 0.493E-02   -.143E-08 0.258E-08 -.224E-01
   0.424E-04 -.735E-04 -.393E+02   -.474E-04 0.821E-04 0.393E+02   -.482E-19 -.136E-19 0.214E-02   -.208E-08 0.364E-08 -.134E-01
   0.424E-04 -.734E-04 -.275E+03   -.474E-04 0.821E-04 0.275E+03   0.313E-20 0.271E-19 0.103E-02   -.870E-09 0.155E-08 0.159E-01
   -.424E-04 0.734E-04 0.275E+03   0.474E-04 -.821E-04 -.275E+03   0.169E-18 -.163E-18 -.577E-02   0.126E-08 -.221E-08 -.970E-02
   -.424E-04 0.734E-04 0.394E+02   0.474E-04 -.822E-04 -.393E+02   -.311E-19 -.271E-19 0.160E-02   0.179E-08 -.318E-08 -.260E-01
   -.424E-04 0.735E-04 -.197E+03   0.474E-04 -.821E-04 0.197E+03   0.136E-18 0.108E-18 -.788E-02   0.214E-08 -.376E-08 0.155E-01
   -.343E-09 0.610E-09 -.688E-02   -.297E-09 0.293E-09 -.104E-01   0.154E-19 0.678E-20 -.526E-03   0.330E-11 -.207E-11 0.176E-01
   0.888E-05 -.263E-05 0.618E+03   -.217E-04 0.228E-04 -.624E+03   -.121E-15 -.139E-16 0.583E+01   0.143E-08 -.256E-08 0.113E-02
   0.160E-04 -.277E-04 0.435E+03   -.309E-05 0.513E-05 -.436E+03   -.748E-18 0.199E-16 0.212E+00   -.300E-10 0.668E-10 0.935E-02
   -.153E-04 0.264E-04 0.214E+03   0.272E-05 -.461E-05 -.215E+03   -.606E-17 0.000E+00 0.243E+00   0.105E-11 -.805E-11 0.168E-01
   -.888E-05 0.262E-05 -.618E+03   0.217E-04 -.228E-04 0.623E+03   0.692E-16 -.139E-16 -.583E+01   -.466E-09 0.847E-09 0.140E-01
   0.153E-04 -.264E-04 -.214E+03   -.272E-05 0.461E-05 0.215E+03   0.519E-17 0.173E-17 -.242E+00   0.105E-10 -.144E-10 0.151E-01
   -.160E-04 0.277E-04 -.435E+03   0.309E-05 -.513E-05 0.436E+03   0.750E-18 0.330E-16 -.212E+00   0.147E-10 -.268E-10 0.132E-01
 -----------------------------------------------------------------------------------------------
   -.151E-07 0.947E-08 0.145E+00   0.101E-12 0.221E-13 0.568E-12   -.807E-16 -.528E-16 -.128E-01   -.616E-08 0.110E-07 -.130E+00
 
 
 POSITION                                       TOTAL-FORCE (eV/Angst)
 -----------------------------------------------------------------------------------
      0.85843      1.48685      9.66862        -0.000000     -0.000000      0.008664
     -0.00000     -0.00000     14.72454         0.000000      0.000000     -0.002302
      0.85843      1.48685     17.23766         0.000000      0.000000     -0.002933
     -0.00000     -0.00000     22.26359        -0.000000      0.000000      0.003330
      0.85843      1.48685     24.77660         0.000000     -0.000000      0.002443
     -0.00000     -0.00000     29.80247        -0.000000      0.000000      0.003841
      0.85843      1.48685     32.31621        -0.000000     -0.000000      0.000067
      1.71687     -0.00000     12.21091         0.000000      0.000000     -0.004700
      1.71687     -0.00000     19.75058         0.000000      0.000000      0.003419
      1.71687     -0.00000     27.28945         0.000000     -0.000000      0.005989
      1.71687     -0.00000     34.85852         0.000000     -0.000000     -0.014857
     -0.00000     -0.00000     10.95591        -0.000000      0.000000      0.018052
     -0.00000     -0.00000     18.49362        -0.000000      0.000000      0.003001
     -0.00000     -0.00000     26.03352         0.000000      0.000000     -0.006642
     -0.00000     -0.00000     33.57123         0.000000      0.000000     -0.011238
      1.71687     -0.00000     15.98071        -0.000000      0.000000      0.005423
      1.71687     -0.00000     23.52001        -0.000000      0.000000      0.000490
      1.71687     -0.00000     31.05925        -0.000000      0.000000     -0.000472
      0.85843      1.48685     13.46808        -0.000000      0.000000      0.001830
      0.85843      1.48685     21.00708         0.000000      0.000000     -0.007139
      0.85843      1.48685     28.54660         0.000000      0.000000     -0.007587
     -0.00000     -0.00000      1.04167        -0.000000      0.000000     -0.000317
     -0.00000     -0.00000      8.17525        -0.000000      0.000000      0.003777
      1.71687     -0.00000      5.86123        -0.000000      0.000000      0.003367
      0.85843      1.48685      3.43262         0.000000      0.000000     -0.011226
     -0.00000     -0.00000     36.35199         0.000000      0.000000     -0.001863
      1.71687     -0.00000     41.09458        -0.000000      0.000000      0.011027
      0.85843      1.48685     38.66599         0.000000      0.000000     -0.003444
 -----------------------------------------------------------------------------------
    total drift:                               -0.000000      0.000000      0.002810


--------------------------------------------------------------------------------------------------------



  FREE ENERGIE OF THE ION-ELECTRON SYSTEM (eV)
  ---------------------------------------------------
  free  energy   TOTEN  =      -152.31334466 eV

  energy  without entropy=     -152.31033684  energy(sigma->0) =     -152.31184075
 
 d Force = 0.1947669E-03[ 0.589E-04, 0.331E-03]  d Energy = 0.1849048E-03 0.986E-05
 d Force =-0.1196362E+02[-0.120E+02,-0.120E+02]  d Ewald  =-0.1196362E+02 0.269E-07


--------------------------------------------------------------------------------------------------------


    POTLOK:  cpu time    0.20: real time    0.20


--------------------------------------------------------------------------------------------------------


 Conjugate gradient step on ions:
 trial-energy change:   -0.000185  1 .order   -0.000195   -0.000331   -0.000059
  (g-gl).g = 0.307E-03      g.g   = 0.321E-03  gl.gl    = 0.811E-03
 g(Force)  = 0.321E-03   g(Stress)= 0.000E+00 ortho     =-0.343E-04
 gamma     =   0.37907
 trial     =   1.07523
 opt step  =   1.30809  (harmonic =   1.30809) maximal distance =0.00313446
 next E    =  -152.313361   (d E  =  -0.00020)


--------------------------------------------------------------------------------------------------------


  
 reached required accuracy - stopping structural energy minimisation
     LOOP+:  cpu time   36.88: real time   36.92
    4ORBIT:  cpu time    0.00: real time    0.00

 total amount of memory used by VASP on root node   148921. kBytes
========================================================================

   base      :      30000. kBytes
   nonl-proj :      15484. kBytes
   fftplans  :      55171. kBytes
   grid      :      22118. kBytes
   one-center:         56. kBytes
   wavefun   :      26092. kBytes
 
  
  
 General timing and accounting informations for this job:
 ========================================================
  
                  Total CPU time used (sec):     1379.995
                            User time (sec):     1364.281
                          System time (sec):       15.714
                         Elapsed time (sec):     1381.411
  
                   Maximum memory used (kb):      254304.
                   Average memory used (kb):           0.
  
                          Minor page faults:       338848
                          Major page faults:            0
                 Voluntary context switches:          220
