       N       E                     dE             d eps       ncg     rms          rms(c)
DAV:   1     0.773077186531E+03    0.77308E+03   -0.45162E+04  8080   0.126E+03
DAV:   2    -0.491078226951E+02   -0.82219E+03   -0.78684E+03 10360   0.282E+02
DAV:   3    -0.166742079345E+03   -0.11763E+03   -0.11680E+03  9270   0.112E+02
DAV:   4    -0.170109305803E+03   -0.33672E+01   -0.33592E+01  9640   0.218E+01
DAV:   5    -0.170198675940E+03   -0.89370E-01   -0.89313E-01 10220   0.327E+00    0.248E+01
DAV:   6    -0.155194376797E+03    0.15004E+02   -0.10109E+02  9640   0.347E+01    0.252E+01
DAV:   7    -0.157742510673E+03   -0.25481E+01   -0.24834E+02  9440   0.153E+01    0.118E+01
DAV:   8    -0.154625629919E+03    0.31169E+01   -0.35805E+00  9450   0.716E+00    0.756E+00
DAV:   9    -0.150675128307E+03    0.39505E+01   -0.21533E+00 10600   0.128E+01    0.426E+00
DAV:  10    -0.155103205937E+03   -0.44281E+01   -0.42568E+01  9500   0.102E+01    0.227E+01
DAV:  11    -0.149960235015E+03    0.51430E+01   -0.50692E+01  9160   0.502E+00    0.431E+00
DAV:  12    -0.149715291652E+03    0.24494E+00   -0.33762E-01  9550   0.230E+00    0.505E+00
DAV:  13    -0.149329981815E+03    0.38531E+00   -0.64371E-02  9240   0.130E+00    0.314E+00
DAV:  14    -0.149261547462E+03    0.68434E-01   -0.58020E-02  9460   0.525E-01    0.205E+00
DAV:  15    -0.149259113826E+03    0.24336E-02   -0.17028E-03  9070   0.148E-01    0.204E+00
DAV:  16    -0.149261812043E+03   -0.26982E-02   -0.10231E-04  9820   0.379E-02    0.209E+00
DAV:  17    -0.149216979162E+03    0.44833E-01   -0.13870E-01 12070   0.498E-01    0.953E-01
DAV:  18    -0.149555055957E+03   -0.33808E+00   -0.25644E+00 11020   0.106E+00    0.764E+00
DAV:  19    -0.149419967131E+03    0.13509E+00   -0.65326E-02  8950   0.565E-01    0.643E+00
DAV:  20    -0.149228584539E+03    0.19138E+00   -0.37137E+00 10300   0.997E-01    0.200E+00
DAV:  21    -0.149230169454E+03   -0.15849E-02   -0.97275E-03  8970   0.531E-01    0.194E+00
DAV:  22    -0.149190359491E+03    0.39810E-01   -0.68566E-02  9690   0.510E-01    0.922E-01
DAV:  23    -0.149200335355E+03   -0.99759E-02   -0.21603E-02  9080   0.442E-01    0.145E+00
DAV:  24    -0.149202490007E+03   -0.21547E-02   -0.21212E-03  8850   0.131E-01    0.158E+00
DAV:  25    -0.149203088211E+03   -0.59820E-03   -0.49353E-05  9520   0.266E-02    0.160E+00
DAV:  26    -0.149204880418E+03   -0.17922E-02   -0.93911E-05  8970   0.398E-02    0.165E+00
DAV:  27    -0.149196253977E+03    0.86264E-02   -0.70023E-03  9570   0.139E-01    0.123E+00
DAV:  28    -0.149186744285E+03    0.95097E-02   -0.16285E-02 10610   0.311E-01    0.667E-01
DAV:  29    -0.149197949895E+03   -0.11206E-01   -0.31336E-02  9460   0.306E-01    0.891E-01
DAV:  30    -0.149192478838E+03    0.54711E-02   -0.11162E-02  9080   0.135E-01    0.430E-01
DAV:  31    -0.149183753809E+03    0.87250E-02   -0.63408E-03  9520   0.413E-01    0.329E-01
DAV:  32    -0.149181731853E+03    0.20220E-02   -0.29335E-03  9940   0.263E-01    0.293E-01
DAV:  33    -0.149182924227E+03   -0.11924E-02   -0.33706E-03  9980   0.205E-01    0.128E-01
DAV:  34    -0.149185247477E+03   -0.23233E-02   -0.36819E-03  9920   0.167E-01    0.300E-01
DAV:  35    -0.149187908689E+03   -0.26612E-02   -0.34317E-04  9110   0.100E-01    0.422E-01
DAV:  36    -0.149183805060E+03    0.41036E-02   -0.57976E-04  9230   0.108E-01    0.277E-01
DAV:  37    -0.149179675642E+03    0.41294E-02   -0.16904E-03  9900   0.125E-01    0.130E-01
DAV:  38    -0.149179894733E+03   -0.21909E-03   -0.37210E-04  9080   0.913E-02    0.980E-02
DAV:  39    -0.149177910902E+03    0.19838E-02   -0.63382E-03  9660   0.113E-01    0.323E-01
DAV:  40    -0.149177539043E+03    0.37186E-03   -0.35095E-04  9530   0.101E-01    0.197E-01
DAV:  41    -0.149177512488E+03    0.26555E-04   -0.23787E-04 10170   0.111E-01    0.144E-01
DAV:  42    -0.149179402822E+03   -0.18903E-02   -0.13680E-03 10110   0.121E-01    0.196E-01
DAV:  43    -0.149180615686E+03   -0.12129E-02   -0.63488E-04  9240   0.705E-02    0.215E-01
DAV:  44    -0.149179053085E+03    0.15626E-02   -0.84412E-05  8430   0.339E-02    0.121E-01
DAV:  45    -0.149177678402E+03    0.13747E-02   -0.14144E-03  8180   0.458E-02    0.847E-02
DAV:  46    -0.149177505500E+03    0.17290E-03   -0.48303E-05  9050   0.330E-02    0.883E-02
DAV:  47    -0.149177064682E+03    0.44082E-03   -0.46669E-05  8510   0.494E-02    0.135E-01
DAV:  48    -0.149177471812E+03   -0.40713E-03   -0.50542E-05  8520   0.374E-02    0.895E-02
DAV:  49    -0.149178181253E+03   -0.70944E-03   -0.65208E-05  8530   0.501E-02    0.407E-02
DAV:  50    -0.149178737889E+03   -0.55664E-03   -0.76316E-04  9070   0.456E-02    0.114E-01
DAV:  51    -0.149178039335E+03    0.69855E-03   -0.35439E-04  7640   0.223E-02    0.313E-02
DAV:  52    -0.149178173328E+03   -0.13399E-03   -0.91041E-06  6020   0.162E-02    0.218E-02
DAV:  53    -0.149178093574E+03    0.79754E-04   -0.73592E-06  6080   0.127E-02    0.272E-02
DAV:  54    -0.149178400391E+03   -0.30682E-03   -0.70303E-05  5900   0.143E-02    0.841E-02
DAV:  55    -0.149178232176E+03    0.16821E-03   -0.24570E-04  6210   0.106E-02    0.141E-02
DAV:  56    -0.149178353215E+03   -0.12104E-03   -0.27504E-06  5600   0.989E-03    0.914E-03
DAV:  57    -0.149178285422E+03    0.67793E-04   -0.29215E-06  5780   0.772E-03    0.181E-02
DAV:  58    -0.149178317662E+03   -0.32240E-04   -0.14519E-06  5240   0.391E-03    0.170E-02
DAV:  59    -0.149178313630E+03    0.40313E-05   -0.41485E-06  5600   0.904E-03
   1 F= -.14917831E+03 E0= -.14917831E+03  d E =0.000000E+00
