 vasp.5.4.4.18Apr17-6-g9f103f2a35 (build Nov 15 2019 10:10:58) complex          
  
 executed on             LinuxIFC date 2024.07.31  11:39:30
 running on   20 total cores
 distrk:  each k-point on   20 cores,    1 groups
 distr:  one band on NCORES_PER_BAND=   4 cores,    5 groups


--------------------------------------------------------------------------------------------------------


 INCAR:
 POTCAR:    PAW_PBE O 08Apr2002                   
 POTCAR:    PAW_PBE Mg 13Apr2007                  
 POTCAR:    PAW_PBE Al 04Jan2001                  
 POTCAR:    PAW_PBE O 08Apr2002                   
   VRHFIN =O: s2p4                                                              
   LEXCH  = PE                                                                  
   EATOM  =   432.3788 eV,   31.7789 Ry                                         
                                                                                
   TITEL  = PAW_PBE O 08Apr2002                                                 
   LULTRA =        F    use ultrasoft PP ?                                      
   IUNSCR =        1    unscreen: 0-lin 1-nonlin 2-no                           
   RPACOR =    1.200    partial core radius                                     
   POMASS =   16.000; ZVAL   =    6.000    mass and valenz                      
   RCORE  =    1.520    outmost cutoff radius                                   
   RWIGS  =    1.550; RWIGS  =    0.820    wigner-seitz radius (au A)           
   ENMAX  =  400.000; ENMIN  =  300.000 eV                                      
   ICORE  =        2    local potential                                         
   LCOR   =        T    correct aug charges                                     
   LPAW   =        T    paw PP                                                  
   EAUG   =  605.392                                                            
   DEXC   =    0.000                                                            
   RMAX   =    1.553    core radius for proj-oper                               
   RAUG   =    1.300    factor for augmentation sphere                          
   RDEP   =    1.550    radius for radial grids                                 
   RDEPT  =    1.329    core radius for aug-charge                              
                                                                                
   Atomic configuration                                                         
    4 entries                                                                   
     n  l   j            E        occ.                                          
     1  0  0.50      -514.6923   2.0000                                         
     2  0  0.50       -23.9615   2.0000                                         
     2  1  0.50        -9.0305   4.0000                                         
     3  2  1.50        -9.5241   0.0000                                         
   Description                                                                  
     l       E           TYP  RCUT    TYP  RCUT                                 
     0    -23.9615318     23  1.200                                             
     0     -9.5240782     23  1.200                                             
     1     -9.0304911     23  1.520                                             
     1      8.1634956     23  1.520                                             
     2     -9.5240782      7  1.500                                             
  local pseudopotential read in
  partial core-charges read in
  partial kinetic energy density read in
  kinetic energy density of atom read in
  atomic valenz-charges read in
  non local Contribution for L=           0  read in
    real space projection operators read in
  non local Contribution for L=           0  read in
    real space projection operators read in
  non local Contribution for L=           1  read in
    real space projection operators read in
  non local Contribution for L=           1  read in
    real space projection operators read in
    PAW grid and wavefunctions read in
 
   number of l-projection  operators is LMAX  =           4
   number of lm-projection operators is LMMAX =           8
 
 POTCAR:    PAW_PBE Mg 13Apr2007                  
   VRHFIN =Mg: s2p0                                                             
   LEXCH  = PE                                                                  
   EATOM  =    23.0369 eV,    1.6932 Ry                                         
                                                                                
   TITEL  = PAW_PBE Mg 13Apr2007                                                
   LULTRA =        F    use ultrasoft PP ?                                      
   IUNSCR =        1    unscreen: 0-lin 1-nonlin 2-no                           
   RPACOR =    1.500    partial core radius                                     
   POMASS =   24.305; ZVAL   =    2.000    mass and valenz                      
   RCORE  =    2.000    outmost cutoff radius                                   
   RWIGS  =    2.880; RWIGS  =    1.524    wigner-seitz radius (au A)           
   ENMAX  =  200.000; ENMIN  =  100.000 eV                                      
   RCLOC  =    1.506    cutoff for local pot                                    
   LCOR   =        T    correct aug charges                                     
   LPAW   =        T    paw PP                                                  
   EAUG   =  454.734                                                            
   DEXC   =    0.000                                                            
   RMAX   =    2.045    core radius for proj-oper                               
   RAUG   =    1.300    factor for augmentation sphere                          
   RDEP   =    2.025    radius for radial grids                                 
   RDEPT  =    1.942    core radius for aug-charge                              
                                                                                
   Atomic configuration                                                         
    6 entries                                                                   
     n  l   j            E        occ.                                          
     1  0  0.50     -1259.6230   2.0000                                         
     2  0  0.50       -79.8442   2.0000                                         
     2  1  1.50       -46.6121   6.0000                                         
     3  0  0.50        -4.7055   2.0000                                         
     3  1  0.50        -1.3660   0.0000                                         
     3  2  1.50        -1.3606   0.0000                                         
   Description                                                                  
     l       E           TYP  RCUT    TYP  RCUT                                 
     0     -4.7054661     23  2.000                                             
     0     27.2116520     23  2.000                                             
     1      1.3605826     23  2.000                                             
     1     27.2116520     23  2.000                                             
     2     -1.3605826     23  2.000                                             
  local pseudopotential read in
  partial core-charges read in
  partial kinetic energy density read in
  atomic valenz-charges read in
  non local Contribution for L=           0  read in
    real space projection operators read in
  non local Contribution for L=           0  read in
    real space projection operators read in
  non local Contribution for L=           1  read in
    real space projection operators read in
  non local Contribution for L=           1  read in
    real space projection operators read in
  non local Contribution for L=           2  read in
    real space projection operators read in
    PAW grid and wavefunctions read in
 
   number of l-projection  operators is LMAX  =           5
   number of lm-projection operators is LMMAX =          13
 
 POTCAR:    PAW_PBE Al 04Jan2001                  
   VRHFIN =Al: s2p1                                                             
   LEXCH  = PE                                                                  
   EATOM  =    53.5387 eV,    3.9350 Ry                                         
                                                                                
   TITEL  = PAW_PBE Al 04Jan2001                                                
   LULTRA =        F    use ultrasoft PP ?                                      
   IUNSCR =        1    unscreen: 0-lin 1-nonlin 2-no                           
   RPACOR =    1.500    partial core radius                                     
   POMASS =   26.981; ZVAL   =    3.000    mass and valenz                      
   RCORE  =    1.900    outmost cutoff radius                                   
   RWIGS  =    2.650; RWIGS  =    1.402    wigner-seitz radius (au A)           
   ENMAX  =  240.300; ENMIN  =  180.225 eV                                      
   ICORE  =        2    local potential                                         
   LCOR   =        T    correct aug charges                                     
   LPAW   =        T    paw PP                                                  
   EAUG   =  291.052                                                            
   DEXC   =    0.000                                                            
   RMAX   =    1.939    core radius for proj-oper                               
   RAUG   =    1.300    factor for augmentation sphere                          
   RDEP   =    1.966    radius for radial grids                                 
   RDEPT  =    1.856    core radius for aug-charge                              
                                                                                
   Atomic configuration                                                         
    6 entries                                                                   
     n  l   j            E        occ.                                          
     1  0  0.50     -1511.1048   2.0000                                         
     2  0  0.50      -108.1629   2.0000                                         
     2  1  1.50       -69.6402   6.0000                                         
     3  0  0.50        -7.7528   2.0000                                         
     3  1  1.50        -2.7121   1.0000                                         
     3  2  2.50        -2.7212   0.0000                                         
   Description                                                                  
     l       E           TYP  RCUT    TYP  RCUT                                 
     0     -7.7528455     23  1.900                                             
     0     -3.3096929     23  1.900                                             
     1     -2.7120682     23  1.900                                             
     1     13.6058260     23  1.900                                             
     2     -2.7211652      7  1.900                                             
  local pseudopotential read in
  partial core-charges read in
  partial kinetic energy density read in
  atomic valenz-charges read in
  non local Contribution for L=           0  read in
    real space projection operators read in
  non local Contribution for L=           0  read in
    real space projection operators read in
  non local Contribution for L=           1  read in
    real space projection operators read in
  non local Contribution for L=           1  read in
    real space projection operators read in
    PAW grid and wavefunctions read in
 
   number of l-projection  operators is LMAX  =           4
   number of lm-projection operators is LMMAX =           8
 

 ----------------------------------------------------------------------------- 
|                                                                             |
|  ADVICE TO THIS USER RUNNING 'VASP/VAMP'   (HEAR YOUR MASTER'S VOICE ...):  |
|                                                                             |
|      You have a (more or less) 'large supercell' and for larger cells       |
|      it might be more efficient to use real space projection opertators     |
|      So try LREAL= Auto  in the INCAR   file.                               |
|      Mind:          For very  accurate calculation you might also keep the  |
|      reciprocal projection scheme          (i.e. LREAL=.FALSE.)             |
|                                                                             |
 ----------------------------------------------------------------------------- 

  PAW_PBE O 08Apr2002                   :
 energy of atom  1       EATOM= -432.3788
 kinetic energy error for atom=    0.0208 (will be added to EATOM!!)
  PAW_PBE Mg 13Apr2007                  :
 energy of atom  2       EATOM=  -23.0369
 kinetic energy error for atom=    0.0000 (will be added to EATOM!!)
  PAW_PBE Al 04Jan2001                  :
 energy of atom  3       EATOM=  -53.5387
 kinetic energy error for atom=    0.0002 (will be added to EATOM!!)
 
 
 POSCAR: Layer26                                 
  positions in direct lattice
  velocities in cartesian coordinates
 exchange correlation table for  LEXCH =        8
   RHO(1)=    0.500       N(1)  =     2000
   RHO(2)=  100.500       N(2)  =     4000

 VTST: version 3.2, (02/03/18)

 CHAIN: initializing optimizer
 
 OPT: Using VASP Dynamics algorithm
 CHAIN: Read ICHAIN            0
 
 POSCAR: Layer26                                 
  positions in direct lattice
  velocities in cartesian coordinates
 


--------------------------------------------------------------------------------------------------------


 ion  position               nearest neighbor table
   1  0.333  0.667  0.432-  12 2.20  12 2.20  12 2.20  24 2.21  24 2.21  24 2.21
   2  0.000  0.000  0.501-  19 2.08  19 2.08  19 2.08  16 2.17  16 2.17  16 2.17
   3  0.333  0.667  0.536-  16 2.08  16 2.08  16 2.08  13 2.17  13 2.17  13 2.17
   4  0.000  0.000  0.604-  20 2.08  20 2.08  20 2.08  17 2.17  17 2.17  17 2.17
   5  0.333  0.667  0.639-  17 2.08  17 2.08  17 2.08  14 2.17  14 2.17  14 2.17
   6  0.000  0.000  0.707-  21 2.08  21 2.08  21 2.08  18 2.17  18 2.17  18 2.17
   7  0.333  0.667  0.741-  18 2.06  18 2.06  18 2.06  15 2.21  15 2.21  15 2.21
   8  0.667  0.333  0.467-  12 2.08  12 2.08  12 2.08  19 2.17  19 2.17  19 2.17
   9  0.667  0.333  0.570-  13 2.08  13 2.08  13 2.08  20 2.17  20 2.17  20 2.17
  10  0.667  0.333  0.673-  14 2.08  14 2.08  14 2.08  21 2.17  21 2.17  21 2.17
  11  0.667  0.333  0.774-  15 1.97  15 1.97  15 1.97
  12  0.000  0.000  0.451-   8 2.08   8 2.08   8 2.08   1 2.20   1 2.20   1 2.20  24 2.73  19 3.01
                            19 3.01  19 3.01
  13  0.000  0.000  0.554-   9 2.08   9 2.08   9 2.08   3 2.17   3 2.17   3 2.17  16 3.01  16 3.01
                            16 3.01  20 3.01  20 3.01  20 3.01
  14  0.000  0.000  0.657-  10 2.08  10 2.08  10 2.08   5 2.17   5 2.17   5 2.17  21 3.01  21 3.01
                            21 3.01  17 3.01  17 3.01  17 3.01
  15  0.000  0.000  0.761-  11 1.97  11 1.97  11 1.97   7 2.21   7 2.21   7 2.21  18 3.05  18 3.05
                            18 3.05
  16  0.667  0.333  0.520-   3 2.08   3 2.08   3 2.08   2 2.17   2 2.17   2 2.17  19 3.01  19 3.01
                            19 3.01  13 3.01  13 3.01  13 3.01
  17  0.667  0.333  0.623-   5 2.08   5 2.08   5 2.08   4 2.17   4 2.17   4 2.17  14 3.01  14 3.01
                            14 3.01  20 3.01  20 3.01  20 3.01
  18  0.667  0.333  0.726-   7 2.06   7 2.06   7 2.06   6 2.17   6 2.17   6 2.17  21 3.01  21 3.01
                            21 3.01  15 3.05  15 3.05  15 3.05
  19  0.333  0.667  0.485-   2 2.08   2 2.08   2 2.08   8 2.17   8 2.17   8 2.17  12 3.01  12 3.01
                            12 3.01  16 3.01  16 3.01  16 3.01
  20  0.333  0.667  0.588-   4 2.08   4 2.08   4 2.08   9 2.17   9 2.17   9 2.17  17 3.01  17 3.01
                            17 3.01  13 3.01  13 3.01  13 3.01
  21  0.333  0.667  0.691-   6 2.08   6 2.08   6 2.08  10 2.17  10 2.17  10 2.17  14 3.01  14 3.01
                            14 3.01  18 3.01  18 3.01  18 3.01
  22  0.000  0.000  0.227-  27 2.84  27 2.84  27 2.84
  23  0.000  0.000  0.321-  25 2.82  25 2.82  25 2.82  28 2.83  28 2.83  28 2.83
  24  0.000  0.000  0.413-   1 2.21   1 2.21   1 2.21  12 2.73  26 2.75  26 2.75  26 2.75
  25  0.667  0.333  0.290-  27 2.81  27 2.81  27 2.81  23 2.82  23 2.82  23 2.82
  26  0.667  0.333  0.383-  24 2.75  24 2.75  24 2.75  28 2.83  28 2.83  28 2.83
  27  0.333  0.667  0.259-  25 2.81  25 2.81  25 2.81  22 2.84  22 2.84  22 2.84
  28  0.333  0.667  0.352-  23 2.83  23 2.83  23 2.83  26 2.83  26 2.83  26 2.83
 
  LATTYP: Found a hexagonal cell.
 ALAT       =     2.9934728877
 C/A-ratio  =    23.9760431236
  
  Lattice vectors:
  
 A1 = (   2.5924236677,  -1.4967362682,   0.0000000000)
 A2 = (   0.0000000000,   2.9934725364,   0.0000000000)
 A3 = (   0.0000000000,   0.0000000000,  71.7716350437)


Analysis of symmetry for initial positions (statically):
=====================================================================
 Subroutine PRICEL returns:
 Original cell was already a primitive cell.
 

 Routine SETGRP: Setting up the symmetry group for a 
 hexagonal supercell.


 Subroutine GETGRP returns: Found  6 space group operations
 (whereof  6 operations were pure point group operations)
 out of a pool of 24 trial point group operations.


The static configuration has the point symmetry C_3v.


Analysis of symmetry for dynamics (positions and initial velocities):
=====================================================================
 Subroutine PRICEL returns:
 Original cell was already a primitive cell.
 

 Routine SETGRP: Setting up the symmetry group for a 
 hexagonal supercell.


 Subroutine GETGRP returns: Found  6 space group operations
 (whereof  6 operations were pure point group operations)
 out of a pool of 24 trial point group operations.


The dynamic configuration has the point symmetry C_3v.


Analysis of constrained symmetry for selective dynamics:
=====================================================================
 Subroutine PRICEL returns:
 Original cell was already a primitive cell.
 

 Routine SETGRP: Setting up the symmetry group for a 
 hexagonal supercell.


 Subroutine GETGRP returns: Found  6 space group operations
 (whereof  6 operations were pure point group operations)
 out of a pool of 24 trial point group operations.


The constrained configuration has the point symmetry C_3v.


 Subroutine INISYM returns: Found  6 space group operations
 (whereof  6 operations are pure point group operations),
 and found     1 'primitive' translations

 
 
 KPOINTS: K-Spacing Value to Generate K-Mesh: 0.02

Automatic generation of k-mesh.
Space group operators:
 irot       det(A)        alpha          n_x          n_y          n_z        tau_x        tau_y        tau_z
    1     1.000000     0.000001     1.000000     0.000000     0.000000     0.000000     0.000000     0.000000
    2     1.000000   120.000000    -0.000000    -0.000000    -1.000000     0.000000     0.000000     0.000000
    3     1.000000   120.000000     0.000000    -0.000000     1.000000     0.000000     0.000000     0.000000
    4    -1.000000   180.000000    -0.866025     0.500000     0.000000     0.000000     0.000000     0.000000
    5    -1.000000   180.000000     0.000000     1.000000     0.000000     0.000000     0.000000     0.000000
    6    -1.000000   180.000000    -0.866025    -0.500000     0.000000     0.000000     0.000000     0.000000
 
 Subroutine IBZKPT returns following result:
 ===========================================
 
 Found     56 irreducible k-points:
 
 Following reciprocal coordinates:
            Coordinates               Weight
  0.000000  0.000000  0.000000      1.000000
  0.043478  0.000000 -0.000000      6.000000
  0.086957  0.000000 -0.000000      6.000000
  0.130435  0.000000  0.000000      6.000000
  0.173913  0.000000  0.000000      6.000000
  0.217391  0.000000  0.000000      6.000000
  0.260870  0.000000  0.000000      6.000000
  0.304348  0.000000  0.000000      6.000000
  0.347826  0.000000  0.000000      6.000000
  0.391304  0.000000 -0.000000      6.000000
  0.434783  0.000000  0.000000      6.000000
  0.478261  0.000000  0.000000      6.000000
  0.043478  0.043478 -0.000000      6.000000
  0.086957  0.043478 -0.000000     12.000000
  0.130435  0.043478  0.000000     12.000000
  0.173913  0.043478 -0.000000     12.000000
  0.217391  0.043478  0.000000     12.000000
  0.260870  0.043478  0.000000     12.000000
  0.304348  0.043478  0.000000     12.000000
  0.347826  0.043478  0.000000     12.000000
  0.391304  0.043478  0.000000     12.000000
  0.434783  0.043478  0.000000     12.000000
  0.478261  0.043478  0.000000      6.000000
  0.086957  0.086957 -0.000000      6.000000
  0.130435  0.086957  0.000000     12.000000
  0.173913  0.086957  0.000000     12.000000
  0.217391  0.086957  0.000000     12.000000
  0.260870  0.086957  0.000000     12.000000
  0.304348  0.086957  0.000000     12.000000
  0.347826  0.086957 -0.000000     12.000000
  0.391304  0.086957  0.000000     12.000000
  0.434783  0.086957  0.000000     12.000000
  0.130435  0.130435 -0.000000      6.000000
  0.173913  0.130435  0.000000     12.000000
  0.217391  0.130435  0.000000     12.000000
  0.260870  0.130435  0.000000     12.000000
  0.304348  0.130435  0.000000     12.000000
  0.347826  0.130435  0.000000     12.000000
  0.391304  0.130435  0.000000     12.000000
  0.434783  0.130435  0.000000      6.000000
  0.173913  0.173913  0.000000      6.000000
  0.217391  0.173913  0.000000     12.000000
  0.260870  0.173913 -0.000000     12.000000
  0.304348  0.173913  0.000000     12.000000
  0.347826  0.173913  0.000000     12.000000
  0.391304  0.173913  0.000000     12.000000
  0.217391  0.217391  0.000000      6.000000
  0.260870  0.217391  0.000000     12.000000
  0.304348  0.217391  0.000000     12.000000
  0.347826  0.217391  0.000000     12.000000
  0.391304  0.217391  0.000000      6.000000
  0.260870  0.260870  0.000000      6.000000
  0.304348  0.260870 -0.000000     12.000000
  0.347826  0.260870  0.000000     12.000000
  0.304348  0.304348  0.000000      6.000000
  0.347826  0.304348  0.000000      6.000000
 
 Following cartesian coordinates:
            Coordinates               Weight
  0.000000  0.000000  0.000000      1.000000
  0.016771  0.000000 -0.000000      6.000000
  0.033543  0.000000 -0.000000      6.000000
  0.050314  0.000000 -0.000000      6.000000
  0.067085  0.000000 -0.000000      6.000000
  0.083856  0.000000 -0.000000      6.000000
  0.100628  0.000000 -0.000000      6.000000
  0.117399  0.000000 -0.000000      6.000000
  0.134170  0.000000 -0.000000      6.000000
  0.150942  0.000000 -0.000000      6.000000
  0.167713  0.000000 -0.000000      6.000000
  0.184484  0.000000 -0.000000      6.000000
  0.025157  0.014524 -0.000000      6.000000
  0.041928  0.014524 -0.000000     12.000000
  0.058699  0.014524 -0.000000     12.000000
  0.075471  0.014524 -0.000000     12.000000
  0.092242  0.014524 -0.000000     12.000000
  0.109013  0.014524 -0.000000     12.000000
  0.125785  0.014524 -0.000000     12.000000
  0.142556  0.014524 -0.000000     12.000000
  0.159327  0.014524 -0.000000     12.000000
  0.176098  0.014524 -0.000000     12.000000
  0.192870  0.014524 -0.000000      6.000000
  0.050314  0.029049 -0.000000      6.000000
  0.067085  0.029049 -0.000000     12.000000
  0.083856  0.029049 -0.000000     12.000000
  0.100628  0.029049 -0.000000     12.000000
  0.117399  0.029049 -0.000000     12.000000
  0.134170  0.029049 -0.000000     12.000000
  0.150942  0.029049 -0.000000     12.000000
  0.167713  0.029049 -0.000000     12.000000
  0.184484  0.029049 -0.000000     12.000000
  0.075471  0.043573 -0.000000      6.000000
  0.092242  0.043573 -0.000000     12.000000
  0.109013  0.043573 -0.000000     12.000000
  0.125785  0.043573 -0.000000     12.000000
  0.142556  0.043573 -0.000000     12.000000
  0.159327  0.043573 -0.000000     12.000000
  0.176098  0.043573 -0.000000     12.000000
  0.192870  0.043573 -0.000000      6.000000
  0.100628  0.058097 -0.000000      6.000000
  0.117399  0.058097 -0.000000     12.000000
  0.134170  0.058097 -0.000000     12.000000
  0.150942  0.058097 -0.000000     12.000000
  0.167713  0.058097 -0.000000     12.000000
  0.184484  0.058097 -0.000000     12.000000
  0.125785  0.072622 -0.000000      6.000000
  0.142556  0.072622 -0.000000     12.000000
  0.159327  0.072622 -0.000000     12.000000
  0.176098  0.072622 -0.000000     12.000000
  0.192870  0.072622 -0.000000      6.000000
  0.150942  0.087146 -0.000000      6.000000
  0.167713  0.087146 -0.000000     12.000000
  0.184484  0.087146 -0.000000     12.000000
  0.176098  0.101670 -0.000000      6.000000
  0.192870  0.101670 -0.000000      6.000000
 
 TETIRR: Found    276 inequivalent tetrahedra from     3174


--------------------------------------------------------------------------------------------------------




 Dimension of arrays:
   k-points           NKPTS =     56   k-points in BZ     NKDIM =     56   number of bands    NBANDS=     70
   number of dos      NEDOS =    301   number of ions     NIONS =     28
   non local maximal  LDIM  =      5   non local SUM 2l+1 LMDIM =     13
   total plane-waves  NPLWV = 311040
   max r-space proj   IRMAX =      1   max aug-charges    IRDMAX= 189959
   dimension x,y,z NGX =    24 NGY =   24 NGZ =  540
   dimension x,y,z NGXF=    48 NGYF=   48 NGZF= 1080
   support grid    NGXF=    96 NGYF=   96 NGZF= 2160
   ions per type =              11  10   7
   NGX,Y,Z   is equivalent  to a cutoff of  13.33, 13.33, 12.51 a.u.
   NGXF,Y,Z  is equivalent  to a cutoff of  26.66, 26.66, 25.02 a.u.

 SYSTEM =  unknown system                          
 POSCAR =  Layer26                                 

 Startparameter for this run:
   NWRITE =      2    write-flag & timer
   PREC   = accura    normal or accurate (medium, high low for compatibility)
   ISTART =      0    job   : 0-new  1-cont  2-samecut
   ICHARG =      2    charge: 1-file 2-atom 10-const
   ISPIN  =      1    spin polarized calculation?
   LNONCOLLINEAR =      F non collinear calculations
   LSORBIT =      F    spin-orbit coupling
   INIWAV =      1    electr: 0-lowe 1-rand  2-diag
   LASPH  =      F    aspherical Exc in radial PAW
   METAGGA=      F    non-selfconsistent MetaGGA calc.

 Electronic Relaxation 1
   ENCUT  =  520.0 eV  38.22 Ry    6.18 a.u.   5.57  5.57133.45*2*pi/ulx,y,z
   ENINI  =  520.0     initial cutoff
   ENAUG  =  605.4 eV  augmentation charge cutoff
   NELM   =    100;   NELMIN=  6; NELMDL=  0     # of ELM steps 
   EDIFF  = 0.1E-04   stopping-criterion for ELM
   LREAL  =      F    real-space projection
   NLSPLINE    = F    spline interpolate recip. space projectors
   LCOMPAT=      F    compatible to vasp.4.4
   GGA_COMPAT  = T    GGA compatible to vasp.4.4-vasp.4.6
   LMAXPAW     = -100 max onsite density
   LMAXMIX     =    2 max onsite mixed and CHGCAR
   VOSKOWN=      0    Vosko Wilk Nusair interpolation
   ROPT   =    0.00000   0.00000   0.00000
 Ionic relaxation
   EDIFFG = -.2E-01   stopping-criterion for IOM
   NSW    =      0    number of steps for IOM
   NBLOCK =      1;   KBLOCK =      1    inner block; outer block 
   IBRION =     -1    ionic relax: 0-MD 1-quasi-New 2-CG
   NFREE  =      0    steps in history (QN), initial steepest desc. (CG)
   ISIF   =      4    stress and relaxation
   IWAVPR =     10    prediction:  0-non 1-charg 2-wave 3-comb
   ISYM   =      2    0-nonsym 1-usesym 2-fastsym
   LCORR  =      T    Harris-Foulkes like correction to forces

   POTIM  = 0.5000    time-step for ionic-motion
   TEIN   =    0.0    initial temperature
   TEBEG  =    0.0;   TEEND  =   0.0 temperature during run
   SMASS  =  -3.00    Nose mass-parameter (am)
   estimated Nose-frequenzy (Omega)   =  0.10E-29 period in steps =****** mass=  -0.205E-27a.u.
   SCALEE = 1.0000    scale energy and forces
   NPACO  =    256;   APACO  = 16.0  distance and # of slots for P.C.
   PSTRESS=    0.0 pullay stress

  Mass of Ions in am
   POMASS =  16.00 24.30 26.98
  Ionic Valenz
   ZVAL   =   6.00  2.00  3.00
  Atomic Wigner-Seitz radii
   RWIGS  =  -1.00 -1.00 -1.00
  virtual crystal weights 
   VCA    =   1.00  1.00  1.00
   NELECT =     107.0000    total number of electrons
   NUPDOWN=      -1.0000    fix difference up-down

 DOS related values:
   EMIN   =  10.00;   EMAX   =-10.00  energy-range for DOS
   EFERMI =   0.00
   ISMEAR =    -5;   SIGMA  =   0.05  broadening in eV -4-tet -1-fermi 0-gaus

 Electronic relaxation 2 (details)
   IALGO  =     38    algorithm
   LDIAG  =      T    sub-space diagonalisation (order eigenvalues)
   LSUBROT=      F    optimize rotation matrix (better conditioning)
   TURBO    =      0    0=normal 1=particle mesh
   IRESTART =      0    0=no restart 2=restart with 2 vectors
   NREBOOT  =      0    no. of reboots
   NMIN     =      0    reboot dimension
   EREF     =   0.00    reference energy to select bands
   IMIX   =      4    mixing-type and parameters
     AMIX     =   0.40;   BMIX     =  1.00
     AMIX_MAG =   1.60;   BMIX_MAG =  1.00
     AMIN     =   0.01
     WC   =   100.;   INIMIX=   1;  MIXPRE=   1;  MAXMIX= -45

 Intra band minimization:
   WEIMIN = 0.0000     energy-eigenvalue tresh-hold
   EBREAK =  0.36E-07  absolut break condition
   DEPER  =   0.30     relativ break condition  

   TIME   =   0.40     timestep for ELM

  volume/ion in A,a.u.               =      19.89       134.24
  Fermi-wavevector in a.u.,A,eV,Ry     =   0.944622  1.785077 12.140625  0.892311
  Thomas-Fermi vector in A             =   2.072445
 
 Write flags
   LWAVE        =      F    write WAVECAR
   LDOWNSAMPLE  =      F    k-point downsampling of WAVECAR
   LCHARG       =      T    write CHGCAR
   LVTOT        =      F    write LOCPOT, total local potential
   LVHAR        =      F    write LOCPOT, Hartree potential only
   LELF         =      F    write electronic localiz. function (ELF)
   LORBIT       =      0    0 simple, 1 ext, 2 COOP (PROOUT), +10 PAW based schemes


 Dipole corrections
   LMONO  =      F    monopole corrections only (constant potential shift)
   LDIPOL =      F    correct potential (dipole corrections)
   IDIPOL =      0    1-x, 2-y, 3-z, 4-all directions 
   EPSILON=  1.0000000 bulk dielectric constant

 Exchange correlation treatment:
   GGA     =    --    GGA type
   LEXCH   =     8    internal setting for exchange type
   VOSKOWN=      0    Vosko Wilk Nusair interpolation
   LHFCALC =     F    Hartree Fock is set to
   LHFONE  =     F    Hartree Fock one center treatment
   AEXX    =    0.0000 exact exchange contribution

 Linear response parameters
   LEPSILON=     F    determine dielectric tensor
   LRPA    =     F    only Hartree local field effects (RPA)
   LNABLA  =     F    use nabla operator in PAW spheres
   LVEL    =     F    velocity operator in full k-point grid
   LINTERFAST=   F  fast interpolation
   KINTER  =     0    interpolate to denser k-point grid
   CSHIFT  =0.1000    complex shift for real part using Kramers Kronig
   OMEGAMAX=  -1.0    maximum frequency
   DEG_THRESHOLD= 0.2000000E-02 threshold for treating states as degnerate
   RTIME   =   -0.100 relaxation time in fs
  (WPLASMAI=    0.000 imaginary part of plasma frequency in eV, 0.658/RTIME)
   DFIELD  = 0.0000000 0.0000000 0.0000000 field for delta impulse in time
 
 Orbital magnetization related:
   ORBITALMAG=     F  switch on orbital magnetization
   LCHIMAG   =     F  perturbation theory with respect to B field
   DQ        =  0.001000  dq finite difference perturbation B field
   LLRAUG    =     F  two centre corrections for induced B field



--------------------------------------------------------------------------------------------------------


 Static calculation
 charge density and potential will be updated during run
 non-spin polarized calculation
 Variant of blocked Davidson
 Davidson routine will perform the subspace rotation
 perform sub-space diagonalisation
    after iterative eigenvector-optimisation
 modified Broyden-mixing scheme, WC =      100.0
 initial mixing is a Kerker type mixing with AMIX =  0.4000 and BMIX =      1.0000
 Hartree-type preconditioning will be used
 using additional bands           16
 reciprocal scheme for non local part
 use partial core corrections
 calculate Harris-corrections to forces 
   (improved forces if not selfconsistent)
 use gradient corrections 
 use of overlap-Matrix (Vanderbilt PP)
 Fermi weights with tetrahedron method with Bloechl corrections


--------------------------------------------------------------------------------------------------------


  energy-cutoff  :      520.00
  volume of cell :      556.97
      direct lattice vectors                 reciprocal lattice vectors
     2.592423668 -1.496736268  0.000000000     0.385739419  0.000000000 -0.000000000
     0.000000000  2.993472536  0.000000000     0.192869710  0.334060189 -0.000000000
     0.000000000  0.000000000 71.771635044     0.000000000  0.000000000  0.013933081

  length of vectors
     2.993472888  2.993472536 71.771635044     0.385739419  0.385739465  0.013933081


 
 k-points in units of 2pi/SCALE and weight: K-Spacing Value to Generate K-Mesh: 0.02
   0.00000000  0.00000000  0.00000000       0.002
   0.01677128  0.00000000 -0.00000000       0.011
   0.03354256  0.00000000 -0.00000000       0.011
   0.05031384  0.00000000 -0.00000000       0.011
   0.06708512  0.00000000 -0.00000000       0.011
   0.08385640  0.00000000 -0.00000000       0.011
   0.10062767  0.00000000 -0.00000000       0.011
   0.11739895  0.00000000 -0.00000000       0.011
   0.13417023  0.00000000 -0.00000000       0.011
   0.15094151  0.00000000 -0.00000000       0.011
   0.16771279  0.00000000 -0.00000000       0.011
   0.18448407  0.00000000 -0.00000000       0.011
   0.02515692  0.01452436 -0.00000000       0.011
   0.04192820  0.01452436 -0.00000000       0.023
   0.05869948  0.01452436 -0.00000000       0.023
   0.07547076  0.01452436 -0.00000000       0.023
   0.09224204  0.01452436 -0.00000000       0.023
   0.10901331  0.01452436 -0.00000000       0.023
   0.12578459  0.01452436 -0.00000000       0.023
   0.14255587  0.01452436 -0.00000000       0.023
   0.15932715  0.01452436 -0.00000000       0.023
   0.17609843  0.01452436 -0.00000000       0.023
   0.19286971  0.01452436 -0.00000000       0.011
   0.05031384  0.02904871 -0.00000000       0.011
   0.06708512  0.02904871 -0.00000000       0.023
   0.08385640  0.02904871 -0.00000000       0.023
   0.10062767  0.02904871 -0.00000000       0.023
   0.11739895  0.02904871 -0.00000000       0.023
   0.13417023  0.02904871 -0.00000000       0.023
   0.15094151  0.02904871 -0.00000000       0.023
   0.16771279  0.02904871 -0.00000000       0.023
   0.18448407  0.02904871 -0.00000000       0.023
   0.07547076  0.04357307 -0.00000000       0.011
   0.09224204  0.04357307 -0.00000000       0.023
   0.10901331  0.04357307 -0.00000000       0.023
   0.12578459  0.04357307 -0.00000000       0.023
   0.14255587  0.04357307 -0.00000000       0.023
   0.15932715  0.04357307 -0.00000000       0.023
   0.17609843  0.04357307 -0.00000000       0.023
   0.19286971  0.04357307 -0.00000000       0.011
   0.10062767  0.05809742 -0.00000000       0.011
   0.11739895  0.05809742 -0.00000000       0.023
   0.13417023  0.05809742 -0.00000000       0.023
   0.15094151  0.05809742 -0.00000000       0.023
   0.16771279  0.05809742 -0.00000000       0.023
   0.18448407  0.05809742 -0.00000000       0.023
   0.12578459  0.07262178 -0.00000000       0.011
   0.14255587  0.07262178 -0.00000000       0.023
   0.15932715  0.07262178 -0.00000000       0.023
   0.17609843  0.07262178 -0.00000000       0.023
   0.19286971  0.07262178 -0.00000000       0.011
   0.15094151  0.08714614 -0.00000000       0.011
   0.16771279  0.08714614 -0.00000000       0.023
   0.18448407  0.08714614 -0.00000000       0.023
   0.17609843  0.10167049 -0.00000000       0.011
   0.19286971  0.10167049 -0.00000000       0.011
 
 k-points in reciprocal lattice and weights: K-Spacing Value to Generate K-Mesh: 0.02
   0.00000000  0.00000000  0.00000000       0.002
   0.04347826  0.00000000 -0.00000000       0.011
   0.08695652  0.00000000 -0.00000000       0.011
   0.13043478  0.00000000  0.00000000       0.011
   0.17391304  0.00000000  0.00000000       0.011
   0.21739130  0.00000000  0.00000000       0.011
   0.26086957  0.00000000  0.00000000       0.011
   0.30434783  0.00000000  0.00000000       0.011
   0.34782609  0.00000000  0.00000000       0.011
   0.39130435  0.00000000 -0.00000000       0.011
   0.43478261  0.00000000  0.00000000       0.011
   0.47826087  0.00000000  0.00000000       0.011
   0.04347826  0.04347826 -0.00000000       0.011
   0.08695652  0.04347826 -0.00000000       0.023
   0.13043478  0.04347826  0.00000000       0.023
   0.17391304  0.04347826 -0.00000000       0.023
   0.21739130  0.04347826  0.00000000       0.023
   0.26086957  0.04347826  0.00000000       0.023
   0.30434783  0.04347826  0.00000000       0.023
   0.34782609  0.04347826  0.00000000       0.023
   0.39130435  0.04347826  0.00000000       0.023
   0.43478261  0.04347826  0.00000000       0.023
   0.47826087  0.04347826  0.00000000       0.011
   0.08695652  0.08695652 -0.00000000       0.011
   0.13043478  0.08695652  0.00000000       0.023
   0.17391304  0.08695652  0.00000000       0.023
   0.21739130  0.08695652  0.00000000       0.023
   0.26086957  0.08695652  0.00000000       0.023
   0.30434783  0.08695652  0.00000000       0.023
   0.34782609  0.08695652 -0.00000000       0.023
   0.39130435  0.08695652  0.00000000       0.023
   0.43478261  0.08695652  0.00000000       0.023
   0.13043478  0.13043478 -0.00000000       0.011
   0.17391304  0.13043478  0.00000000       0.023
   0.21739130  0.13043478  0.00000000       0.023
   0.26086957  0.13043478  0.00000000       0.023
   0.30434783  0.13043478  0.00000000       0.023
   0.34782609  0.13043478  0.00000000       0.023
   0.39130435  0.13043478  0.00000000       0.023
   0.43478261  0.13043478  0.00000000       0.011
   0.17391304  0.17391304  0.00000000       0.011
   0.21739130  0.17391304  0.00000000       0.023
   0.26086957  0.17391304 -0.00000000       0.023
   0.30434783  0.17391304  0.00000000       0.023
   0.34782609  0.17391304  0.00000000       0.023
   0.39130435  0.17391304  0.00000000       0.023
   0.21739130  0.21739130  0.00000000       0.011
   0.26086957  0.21739130  0.00000000       0.023
   0.30434783  0.21739130  0.00000000       0.023
   0.34782609  0.21739130  0.00000000       0.023
   0.39130435  0.21739130  0.00000000       0.011
   0.26086957  0.26086957  0.00000000       0.011
   0.30434783  0.26086957 -0.00000000       0.023
   0.34782609  0.26086957  0.00000000       0.023
   0.30434783  0.30434783  0.00000000       0.011
   0.34782609  0.30434783  0.00000000       0.011
 
 position of ions in fractional coordinates (direct lattice) 
   0.33333300  0.66666700  0.43208584
   0.00000000  0.00000000  0.50141182
   0.33333300  0.66666700  0.53574308
   0.00000000  0.00000000  0.60441746
   0.33333300  0.66666700  0.63873937
   0.00000000  0.00000000  0.70726777
   0.33333300  0.66666700  0.74126373
   0.66666700  0.33333300  0.46705032
   0.66666700  0.33333300  0.57008775
   0.66666700  0.33333300  0.67303948
   0.66666700  0.33333300  0.77369142
   0.00000000  0.00000000  0.45095660
   0.00000000  0.00000000  0.55396530
   0.00000000  0.00000000  0.65693850
   0.00000000  0.00000000  0.76051145
   0.66666700  0.33333300  0.51962637
   0.66666700  0.33333300  0.62263103
   0.66666700  0.33333300  0.72557620
   0.33333300  0.66666700  0.48529017
   0.33333300  0.66666700  0.58831182
   0.33333300  0.66666700  0.69122093
   0.00000000  0.00000000  0.22724465
   0.00000000  0.00000000  0.32062857
   0.00000000  0.00000000  0.41285754
   0.66666700  0.33333300  0.28957991
   0.66666700  0.33333300  0.38312783
   0.33333300  0.66666700  0.25866693
   0.33333300  0.66666700  0.35186115
 
 position of ions in cartesian coordinates  (Angst):
   0.86414036  1.49673776 31.01150719
   0.00000000  0.00000000 35.98714628
   0.86414036  1.49673776 38.45115674
   0.00000000  0.00000000 43.38002956
   0.86414036  1.49673776 45.84336925
   0.00000000  0.00000000 50.76176454
   0.86414036  1.49673776 53.20171017
   1.72828331 -0.00000150 33.52096494
   1.72828331 -0.00000150 40.91612968
   1.72828331 -0.00000150 48.30514377
   1.72828331 -0.00000150 55.52909790
   0.00000000  0.00000000 32.36589265
   0.00000000  0.00000000 39.75899565
   0.00000000  0.00000000 47.14955041
   0.00000000  0.00000000 54.58315057
   1.72828331 -0.00000150 37.29443402
   1.72828331 -0.00000150 44.68724732
   1.72828331 -0.00000150 52.07579041
   0.86414036  1.49673776 34.83006901
   0.86414036  1.49673776 42.22410089
   0.86414036  1.49673776 49.61005646
   0.00000000  0.00000000 16.30972001
   0.00000000  0.00000000 23.01203701
   0.00000000  0.00000000 29.63146037
   1.72828331 -0.00000150 20.78362380
   1.72828331 -0.00000150 27.49771047
   0.86414036  1.49673776 18.56494833
   0.86414036  1.49673776 25.25364996
 


--------------------------------------------------------------------------------------------------------


 k-point  1 :   0.0000 0.0000 0.0000  plane waves:   15195
 k-point  2 :   0.0435 0.0000-0.0000  plane waves:   15189
 k-point  3 :   0.0870 0.0000-0.0000  plane waves:   15191
 k-point  4 :   0.1304 0.0000 0.0000  plane waves:   15161
 k-point  5 :   0.1739 0.0000 0.0000  plane waves:   15117
 k-point  6 :   0.2174 0.0000 0.0000  plane waves:   15112
 k-point  7 :   0.2609 0.0000 0.0000  plane waves:   15024
 k-point  8 :   0.3043 0.0000 0.0000  plane waves:   15020
 k-point  9 :   0.3478 0.0000 0.0000  plane waves:   14942
 k-point 10 :   0.3913 0.0000-0.0000  plane waves:   14932
 k-point 11 :   0.4348 0.0000 0.0000  plane waves:   14892
 k-point 12 :   0.4783 0.0000 0.0000  plane waves:   14922
 k-point 13 :   0.0435 0.0435-0.0000  plane waves:   15191
 k-point 14 :   0.0870 0.0435-0.0000  plane waves:   15169
 k-point 15 :   0.1304 0.0435 0.0000  plane waves:   15131
 k-point 16 :   0.1739 0.0435-0.0000  plane waves:   15114
 k-point 17 :   0.2174 0.0435 0.0000  plane waves:   15061
 k-point 18 :   0.2609 0.0435 0.0000  plane waves:   15004
 k-point 19 :   0.3043 0.0435 0.0000  plane waves:   14988
 k-point 20 :   0.3478 0.0435 0.0000  plane waves:   14964
 k-point 21 :   0.3913 0.0435 0.0000  plane waves:   14901
 k-point 22 :   0.4348 0.0435 0.0000  plane waves:   14896
 k-point 23 :   0.4783 0.0435 0.0000  plane waves:   14894
 k-point 24 :   0.0870 0.0870-0.0000  plane waves:   15147
 k-point 25 :   0.1304 0.0870 0.0000  plane waves:   15111
 k-point 26 :   0.1739 0.0870 0.0000  plane waves:   15080
 k-point 27 :   0.2174 0.0870 0.0000  plane waves:   15029
 k-point 28 :   0.2609 0.0870 0.0000  plane waves:   15006
 k-point 29 :   0.3043 0.0870 0.0000  plane waves:   14988
 k-point 30 :   0.3478 0.0870-0.0000  plane waves:   14938
 k-point 31 :   0.3913 0.0870 0.0000  plane waves:   14908
 k-point 32 :   0.4348 0.0870 0.0000  plane waves:   14859
 k-point 33 :   0.1304 0.1304-0.0000  plane waves:   15113
 k-point 34 :   0.1739 0.1304 0.0000  plane waves:   15047
 k-point 35 :   0.2174 0.1304 0.0000  plane waves:   15020
 k-point 36 :   0.2609 0.1304 0.0000  plane waves:   14994
 k-point 37 :   0.3043 0.1304 0.0000  plane waves:   14945
 k-point 38 :   0.3478 0.1304 0.0000  plane waves:   14948
 k-point 39 :   0.3913 0.1304 0.0000  plane waves:   14881
 k-point 40 :   0.4348 0.1304 0.0000  plane waves:   14858
 k-point 41 :   0.1739 0.1739 0.0000  plane waves:   15015
 k-point 42 :   0.2174 0.1739 0.0000  plane waves:   14971
 k-point 43 :   0.2609 0.1739-0.0000  plane waves:   14972
 k-point 44 :   0.3043 0.1739 0.0000  plane waves:   14964
 k-point 45 :   0.3478 0.1739 0.0000  plane waves:   14920
 k-point 46 :   0.3913 0.1739 0.0000  plane waves:   14901
 k-point 47 :   0.2174 0.2174 0.0000  plane waves:   14994
 k-point 48 :   0.2609 0.2174 0.0000  plane waves:   14988
 k-point 49 :   0.3043 0.2174 0.0000  plane waves:   14946
 k-point 50 :   0.3478 0.2174 0.0000  plane waves:   14923
 k-point 51 :   0.3913 0.2174 0.0000  plane waves:   14942
 k-point 52 :   0.2609 0.2609 0.0000  plane waves:   14952
 k-point 53 :   0.3043 0.2609-0.0000  plane waves:   14956
 k-point 54 :   0.3478 0.2609 0.0000  plane waves:   14966
 k-point 55 :   0.3043 0.3043 0.0000  plane waves:   14980
 k-point 56 :   0.3478 0.3043 0.0000  plane waves:   14990

 maximum and minimum number of plane-waves per node :      3824     3704

 maximum number of plane-waves:     15195
 maximum index in each direction: 
   IXMAX=    5   IYMAX=    5   IZMAX=  133
   IXMIN=   -6   IYMIN=   -5   IZMIN= -133


 parallel 3D FFT for wavefunctions:
    minimum data exchange during FFTs selected (reduces bandwidth)
 parallel 3D FFT for charge:
    minimum data exchange during FFTs selected (reduces bandwidth)


 total amount of memory used by VASP MPI-rank0   181969. kBytes
=======================================================================

   base      :      30000. kBytes
   nonl-proj :      68544. kBytes
   fftplans  :      21369. kBytes
   grid      :      13079. kBytes
   one-center:         56. kBytes
   wavefun   :      48921. kBytes
 
     INWAV:  cpu time    0.0000: real time    0.0001
 Broyden mixing: mesh for mixing (old mesh)
   NGX = 11   NGY = 11   NGZ =267
  (NGX  = 48   NGY  = 48   NGZ  =***)
  gives a total of  32307 points

 initial charge density was supplied:
 charge density of overlapping atoms calculated
 number of electron     107.0000000 magnetization 
 keeping initial charge density in first step


--------------------------------------------------------------------------------------------------------


 Maximum index for augmentation-charges         9804 (set IRDMAX)


--------------------------------------------------------------------------------------------------------


 First call to EWALD:  gamma=   0.215
 Maximum number of real-space cells 8x 8x 1
 Maximum number of reciprocal cells 1x 1x20

    FEWALD:  cpu time    0.0019: real time    0.0019


--------------------------------------- Iteration      1(   1)  ---------------------------------------


    POTLOK:  cpu time    0.0917: real time    0.0930
    SETDIJ:  cpu time    0.2112: real time    0.2116
     EDDAV:  cpu time   20.5000: real time   20.6627
 BZINTS: Fermi energy: 12.480122;107.000000 electrons
         Band energy: -10.810407;  BLOECHL correction: -0.072192
       DOS:  cpu time    0.0215: real time    0.0216
    --------------------------------------------
      LOOP:  cpu time   20.8244: real time   20.9889

 eigenvalue-minimisations  :  8080
 total energy-change (2. order) : 0.7730772E+03  (-0.4516228E+04)
 number of electron     107.0000000 magnetization 
 augmentation part      107.0000000 magnetization 

 Free energy of the ion-electron system (eV)
  ---------------------------------------------------
  alpha Z        PSCENC =        90.66455622
  Ewald energy   TEWEN  =    188366.27096718
  -Hartree energ DENC   =   -193393.99517739
  -exchange      EXHF   =         0.00000000
  -V(xc)+E(xc)   XCENC  =      -362.65218360
  PAW double counting   =      4928.51229836    -4205.98855578
  entropy T*S    EENTRO =         0.00000000
  eigenvalues    EBANDS =       -10.81040734
  atomic energy  EATOM  =      5361.07568887
  Solvation  Ediel_sol  =         0.00000000
  ---------------------------------------------------
  free energy    TOTEN  =       773.07718653 eV

  energy without entropy =      773.07718653  energy(sigma->0) =      773.07718653


--------------------------------------------------------------------------------------------------------




--------------------------------------- Iteration      1(   2)  ---------------------------------------


     EDDAV:  cpu time   24.9152: real time   25.0988
 BZINTS: Fermi energy:  1.276055;107.000000 electrons
         Band energy:-832.995417;  BLOECHL correction: -0.072416
       DOS:  cpu time    0.0214: real time    0.0214
    --------------------------------------------
      LOOP:  cpu time   24.9366: real time   25.1202

 eigenvalue-minimisations  : 10360
 total energy-change (2. order) :-0.8221850E+03  (-0.7868412E+03)
 number of electron     107.0000000 magnetization 
 augmentation part      107.0000000 magnetization 

 Free energy of the ion-electron system (eV)
  ---------------------------------------------------
  alpha Z        PSCENC =        90.66455622
  Ewald energy   TEWEN  =    188366.27096718
  -Hartree energ DENC   =   -193393.99517739
  -exchange      EXHF   =         0.00000000
  -V(xc)+E(xc)   XCENC  =      -362.65218360
  PAW double counting   =      4928.51229836    -4205.98855578
  entropy T*S    EENTRO =         0.00000000
  eigenvalues    EBANDS =      -832.99541657
  atomic energy  EATOM  =      5361.07568887
  Solvation  Ediel_sol  =         0.00000000
  ---------------------------------------------------
  free energy    TOTEN  =       -49.10782270 eV

  energy without entropy =      -49.10782270  energy(sigma->0) =      -49.10782270


--------------------------------------------------------------------------------------------------------




--------------------------------------- Iteration      1(   3)  ---------------------------------------


     EDDAV:  cpu time   22.2065: real time   22.3313
 BZINTS: Fermi energy:  0.705951;107.000000 electrons
         Band energy:-950.629673;  BLOECHL correction: -0.056872
       DOS:  cpu time    0.0202: real time    0.0202
    --------------------------------------------
      LOOP:  cpu time   22.2267: real time   22.3515

 eigenvalue-minimisations  :  9270
 total energy-change (2. order) :-0.1176343E+03  (-0.1168002E+03)
 number of electron     107.0000000 magnetization 
 augmentation part      107.0000000 magnetization 

 Free energy of the ion-electron system (eV)
  ---------------------------------------------------
  alpha Z        PSCENC =        90.66455622
  Ewald energy   TEWEN  =    188366.27096718
  -Hartree energ DENC   =   -193393.99517739
  -exchange      EXHF   =         0.00000000
  -V(xc)+E(xc)   XCENC  =      -362.65218360
  PAW double counting   =      4928.51229836    -4205.98855578
  entropy T*S    EENTRO =         0.00000000
  eigenvalues    EBANDS =      -950.62967322
  atomic energy  EATOM  =      5361.07568887
  Solvation  Ediel_sol  =         0.00000000
  ---------------------------------------------------
  free energy    TOTEN  =      -166.74207935 eV

  energy without entropy =     -166.74207935  energy(sigma->0) =     -166.74207935


--------------------------------------------------------------------------------------------------------




--------------------------------------- Iteration      1(   4)  ---------------------------------------


     EDDAV:  cpu time   23.6845: real time   23.7353
 BZINTS: Fermi energy:  0.678142;107.000000 electrons
         Band energy:-953.996900;  BLOECHL correction: -0.056014
       DOS:  cpu time    0.0197: real time    0.0197
    --------------------------------------------
      LOOP:  cpu time   23.7042: real time   23.7550

 eigenvalue-minimisations  :  9640
 total energy-change (2. order) :-0.3367226E+01  (-0.3359203E+01)
 number of electron     107.0000000 magnetization 
 augmentation part      107.0000000 magnetization 

 Free energy of the ion-electron system (eV)
  ---------------------------------------------------
  alpha Z        PSCENC =        90.66455622
  Ewald energy   TEWEN  =    188366.27096718
  -Hartree energ DENC   =   -193393.99517739
  -exchange      EXHF   =         0.00000000
  -V(xc)+E(xc)   XCENC  =      -362.65218360
  PAW double counting   =      4928.51229836    -4205.98855578
  entropy T*S    EENTRO =         0.00000000
  eigenvalues    EBANDS =      -953.99689968
  atomic energy  EATOM  =      5361.07568887
  Solvation  Ediel_sol  =         0.00000000
  ---------------------------------------------------
  free energy    TOTEN  =      -170.10930580 eV

  energy without entropy =     -170.10930580  energy(sigma->0) =     -170.10930580


--------------------------------------------------------------------------------------------------------




--------------------------------------- Iteration      1(   5)  ---------------------------------------


     EDDAV:  cpu time   24.2496: real time   24.2912
 BZINTS: Fermi energy:  0.677833;107.000000 electrons
         Band energy:-954.086270;  BLOECHL correction: -0.056017
       DOS:  cpu time    0.0206: real time    0.0206
    CHARGE:  cpu time    0.9257: real time    0.9273
    MIXING:  cpu time    0.0157: real time    0.0158
    --------------------------------------------
      LOOP:  cpu time   25.2116: real time   25.2550

 eigenvalue-minimisations  : 10220
 total energy-change (2. order) :-0.8937014E-01  (-0.8931287E-01)
 number of electron     107.0000000 magnetization 
 augmentation part        8.6070970 magnetization 

 Broyden mixing:
  rms(total) = 0.24801E+01    rms(broyden)= 0.24795E+01
  rms(prec ) = 0.25469E+01
  weight for this iteration     100.00

 Free energy of the ion-electron system (eV)
  ---------------------------------------------------
  alpha Z        PSCENC =        90.66455622
  Ewald energy   TEWEN  =    188366.27096718
  -Hartree energ DENC   =   -193393.99517739
  -exchange      EXHF   =         0.00000000
  -V(xc)+E(xc)   XCENC  =      -362.65218360
  PAW double counting   =      4928.51229836    -4205.98855578
  entropy T*S    EENTRO =         0.00000000
  eigenvalues    EBANDS =      -954.08626981
  atomic energy  EATOM  =      5361.07568887
  Solvation  Ediel_sol  =         0.00000000
  ---------------------------------------------------
  free energy    TOTEN  =      -170.19867594 eV

  energy without entropy =     -170.19867594  energy(sigma->0) =     -170.19867594


--------------------------------------------------------------------------------------------------------




--------------------------------------- Iteration      1(   6)  ---------------------------------------


    POTLOK:  cpu time    0.0748: real time    0.0763
    SETDIJ:  cpu time    0.1872: real time    0.1884
     EDDAV:  cpu time   23.8753: real time   24.0262
 BZINTS: Fermi energy:  0.871293;107.000000 electrons
         Band energy:-710.168819;  BLOECHL correction: -0.075534
       DOS:  cpu time    0.0195: real time    0.0195
    CHARGE:  cpu time    1.0584: real time    1.0617
    MIXING:  cpu time    0.0174: real time    0.0174
    --------------------------------------------
      LOOP:  cpu time   25.2327: real time   25.3895

 eigenvalue-minimisations  :  9640
 total energy-change (2. order) : 0.1500430E+02  (-0.1010942E+02)
 number of electron     107.0000000 magnetization 
 augmentation part        6.2167022 magnetization 

 Broyden mixing:
  rms(total) = 0.25221E+01    rms(broyden)= 0.25212E+01
  rms(prec ) = 0.31989E+01
  weight for this iteration     100.00

 eigenvalues of (default mixing * dielectric matrix)
  average eigenvalue GAMMA=   0.5076
  0.5076

 Free energy of the ion-electron system (eV)
  ---------------------------------------------------
  alpha Z        PSCENC =        90.66455622
  Ewald energy   TEWEN  =    188366.27096718
  -Hartree energ DENC   =   -193633.99288121
  -exchange      EXHF   =         0.00000000
  -V(xc)+E(xc)   XCENC  =      -347.68149555
  PAW double counting   =      5892.61596741    -5173.97836078
  entropy T*S    EENTRO =         0.00000000
  eigenvalues    EBANDS =      -710.16881894
  atomic energy  EATOM  =      5361.07568887
  Solvation  Ediel_sol  =         0.00000000
  ---------------------------------------------------
  free energy    TOTEN  =      -155.19437680 eV

  energy without entropy =     -155.19437680  energy(sigma->0) =     -155.19437680


--------------------------------------------------------------------------------------------------------




--------------------------------------- Iteration      1(   7)  ---------------------------------------


    POTLOK:  cpu time    0.0886: real time    0.0904
    SETDIJ:  cpu time    0.2499: real time    0.2511
     EDDAV:  cpu time   23.6020: real time   23.7143
 BZINTS: Fermi energy:  1.825459;107.000000 electrons
         Band energy:-766.778370;  BLOECHL correction: -0.058790
       DOS:  cpu time    0.0192: real time    0.0193
    CHARGE:  cpu time    1.0280: real time    1.0316
    MIXING:  cpu time    0.0225: real time    0.0226
    --------------------------------------------
      LOOP:  cpu time   25.0103: real time   25.1292

 eigenvalue-minimisations  :  9440
 total energy-change (2. order) :-0.2548134E+01  (-0.2483441E+02)
 number of electron     107.0000000 magnetization 
 augmentation part        7.1614527 magnetization 

 Broyden mixing:
  rms(total) = 0.11776E+01    rms(broyden)= 0.11764E+01
  rms(prec ) = 0.12852E+01
  weight for this iteration     100.00

 eigenvalues of (default mixing * dielectric matrix)
  average eigenvalue GAMMA=   0.5637
  0.8259  0.3016

 Free energy of the ion-electron system (eV)
  ---------------------------------------------------
  alpha Z        PSCENC =        90.66455622
  Ewald energy   TEWEN  =    188366.27096718
  -Hartree energ DENC   =   -193579.02806934
  -exchange      EXHF   =         0.00000000
  -V(xc)+E(xc)   XCENC  =      -349.12397891
  PAW double counting   =      6025.29108866    -5306.11439297
  entropy T*S    EENTRO =         0.00000000
  eigenvalues    EBANDS =      -766.77837039
  atomic energy  EATOM  =      5361.07568887
  Solvation  Ediel_sol  =         0.00000000
  ---------------------------------------------------
  free energy    TOTEN  =      -157.74251067 eV

  energy without entropy =     -157.74251067  energy(sigma->0) =     -157.74251067


--------------------------------------------------------------------------------------------------------




--------------------------------------- Iteration      1(   8)  ---------------------------------------


    POTLOK:  cpu time    0.0896: real time    0.0905
    SETDIJ:  cpu time    0.2176: real time    0.2181
     EDDAV:  cpu time   23.9267: real time   24.0326
 BZINTS: Fermi energy:  1.493702;107.000000 electrons
         Band energy:-750.701395;  BLOECHL correction: -0.059342
       DOS:  cpu time    0.0196: real time    0.0196
    CHARGE:  cpu time    1.0661: real time    1.0695
    MIXING:  cpu time    0.0172: real time    0.0172
    --------------------------------------------
      LOOP:  cpu time   25.3367: real time   25.4475

 eigenvalue-minimisations  :  9450
 total energy-change (2. order) : 0.3116881E+01  (-0.3580470E+00)
 number of electron     107.0000000 magnetization 
 augmentation part        7.1355768 magnetization 

 Broyden mixing:
  rms(total) = 0.75614E+00    rms(broyden)= 0.75612E+00
  rms(prec ) = 0.90546E+00
  weight for this iteration     100.00

 eigenvalues of (default mixing * dielectric matrix)
  average eigenvalue GAMMA=   1.0147
  0.3519  0.9888  1.7033

 Free energy of the ion-electron system (eV)
  ---------------------------------------------------
  alpha Z        PSCENC =        90.66455622
  Ewald energy   TEWEN  =    188366.27096718
  -Hartree energ DENC   =   -193593.09355539
  -exchange      EXHF   =         0.00000000
  -V(xc)+E(xc)   XCENC  =      -348.10575033
  PAW double counting   =      6309.22590963    -5589.96205090
  entropy T*S    EENTRO =         0.00000000
  eigenvalues    EBANDS =      -750.70139520
  atomic energy  EATOM  =      5361.07568887
  Solvation  Ediel_sol  =         0.00000000
  ---------------------------------------------------
  free energy    TOTEN  =      -154.62562992 eV

  energy without entropy =     -154.62562992  energy(sigma->0) =     -154.62562992


--------------------------------------------------------------------------------------------------------




--------------------------------------- Iteration      1(   9)  ---------------------------------------


    POTLOK:  cpu time    0.0914: real time    0.0918
    SETDIJ:  cpu time    0.2180: real time    0.2187
     EDDAV:  cpu time   27.0799: real time   27.1932
 BZINTS: Fermi energy:  0.567202;107.000000 electrons
         Band energy:-722.314790;  BLOECHL correction: -0.059499
       DOS:  cpu time    0.0192: real time    0.0192
    CHARGE:  cpu time    1.0406: real time    1.0442
    MIXING:  cpu time    0.0177: real time    0.0177
    --------------------------------------------
      LOOP:  cpu time   28.4668: real time   28.5848

 eigenvalue-minimisations  : 10600
 total energy-change (2. order) : 0.3950502E+01  (-0.2153272E+00)
 number of electron     107.0000000 magnetization 
 augmentation part        7.1035239 magnetization 

 Broyden mixing:
  rms(total) = 0.42589E+00    rms(broyden)= 0.42586E+00
  rms(prec ) = 0.64326E+00
  weight for this iteration     100.00

 eigenvalues of (default mixing * dielectric matrix)
  average eigenvalue GAMMA=   1.2013
  2.3333  0.3556  0.9794  1.1370

 Free energy of the ion-electron system (eV)
  ---------------------------------------------------
  alpha Z        PSCENC =        90.66455622
  Ewald energy   TEWEN  =    188366.27096718
  -Hartree energ DENC   =   -193619.14059959
  -exchange      EXHF   =         0.00000000
  -V(xc)+E(xc)   XCENC  =      -346.56891719
  PAW double counting   =      6607.78334753    -5888.44538142
  entropy T*S    EENTRO =         0.00000000
  eigenvalues    EBANDS =      -722.31478991
  atomic energy  EATOM  =      5361.07568887
  Solvation  Ediel_sol  =         0.00000000
  ---------------------------------------------------
  free energy    TOTEN  =      -150.67512831 eV

  energy without entropy =     -150.67512831  energy(sigma->0) =     -150.67512831


--------------------------------------------------------------------------------------------------------




--------------------------------------- Iteration      1(  10)  ---------------------------------------


    POTLOK:  cpu time    0.0921: real time    0.0936
    SETDIJ:  cpu time    0.2179: real time    0.2193
     EDDAV:  cpu time   23.9056: real time   23.9831
 BZINTS: Fermi energy:  0.770059;107.000000 electrons
         Band energy:-702.680257;  BLOECHL correction: -0.061842
       DOS:  cpu time    0.0205: real time    0.0205
    CHARGE:  cpu time    1.0512: real time    1.0541
    MIXING:  cpu time    0.0326: real time    0.0327
    --------------------------------------------
      LOOP:  cpu time   25.3198: real time   25.4033

 eigenvalue-minimisations  :  9500
 total energy-change (2. order) :-0.4428078E+01  (-0.4256760E+01)
 number of electron     107.0000000 magnetization 
 augmentation part        6.1772592 magnetization 

 Broyden mixing:
  rms(total) = 0.22690E+01    rms(broyden)= 0.22684E+01
  rms(prec ) = 0.30400E+01
  weight for this iteration     100.00

 eigenvalues of (default mixing * dielectric matrix)
  average eigenvalue GAMMA=   0.9903
  2.3066  1.1133  0.7519  0.3068  0.4729

 Free energy of the ion-electron system (eV)
  ---------------------------------------------------
  alpha Z        PSCENC =        90.66455622
  Ewald energy   TEWEN  =    188366.27096718
  -Hartree energ DENC   =   -193644.05495597
  -exchange      EXHF   =         0.00000000
  -V(xc)+E(xc)   XCENC  =      -345.76995909
  PAW double counting   =      6725.30185960    -6005.91110625
  entropy T*S    EENTRO =         0.00000000
  eigenvalues    EBANDS =      -702.68025651
  atomic energy  EATOM  =      5361.07568887
  Solvation  Ediel_sol  =         0.00000000
  ---------------------------------------------------
  free energy    TOTEN  =      -155.10320594 eV

  energy without entropy =     -155.10320594  energy(sigma->0) =     -155.10320594


--------------------------------------------------------------------------------------------------------




--------------------------------------- Iteration      1(  11)  ---------------------------------------


    POTLOK:  cpu time    0.0968: real time    0.0970
    SETDIJ:  cpu time    0.2200: real time    0.2206
     EDDAV:  cpu time   23.5065: real time   23.5461
 BZINTS: Fermi energy:  0.222384;107.000000 electrons
         Band energy:-712.946009;  BLOECHL correction: -0.060075
       DOS:  cpu time    0.0196: real time    0.0196
    CHARGE:  cpu time    1.0370: real time    1.0404
    MIXING:  cpu time    0.0243: real time    0.0245
    --------------------------------------------
      LOOP:  cpu time   24.9043: real time   24.9483

 eigenvalue-minimisations  :  9160
 total energy-change (2. order) : 0.5142971E+01  (-0.5069217E+01)
 number of electron     107.0000000 magnetization 
 augmentation part        7.1185692 magnetization 

 Broyden mixing:
  rms(total) = 0.43132E+00    rms(broyden)= 0.42937E+00
  rms(prec ) = 0.64068E+00
  weight for this iteration     100.00

 eigenvalues of (default mixing * dielectric matrix)
  average eigenvalue GAMMA=   1.0312
  2.4331  1.1053  1.1053  0.3266  0.6084  0.6084

 Free energy of the ion-electron system (eV)
  ---------------------------------------------------
  alpha Z        PSCENC =        90.66455622
  Ewald energy   TEWEN  =    188366.27096718
  -Hartree energ DENC   =   -193628.53226779
  -exchange      EXHF   =         0.00000000
  -V(xc)+E(xc)   XCENC  =      -346.01799630
  PAW double counting   =      6801.85884420    -6082.33401862
  entropy T*S    EENTRO =         0.00000000
  eigenvalues    EBANDS =      -712.94600879
  atomic energy  EATOM  =      5361.07568887
  Solvation  Ediel_sol  =         0.00000000
  ---------------------------------------------------
  free energy    TOTEN  =      -149.96023501 eV

  energy without entropy =     -149.96023501  energy(sigma->0) =     -149.96023501


--------------------------------------------------------------------------------------------------------




--------------------------------------- Iteration      1(  12)  ---------------------------------------


    POTLOK:  cpu time    0.0892: real time    0.0896
    SETDIJ:  cpu time    0.2196: real time    0.2199
     EDDAV:  cpu time   24.3163: real time   24.3681
 BZINTS: Fermi energy:  0.059465;107.000000 electrons
         Band energy:-711.294111;  BLOECHL correction: -0.057884
       DOS:  cpu time    0.0202: real time    0.0202
    CHARGE:  cpu time    1.0618: real time    1.0631
    MIXING:  cpu time    0.0183: real time    0.0186
    --------------------------------------------
      LOOP:  cpu time   25.7252: real time   25.7795

 eigenvalue-minimisations  :  9550
 total energy-change (2. order) : 0.2449434E+00  (-0.3376216E-01)
 number of electron     107.0000000 magnetization 
 augmentation part        7.1336878 magnetization 

 Broyden mixing:
  rms(total) = 0.50507E+00    rms(broyden)= 0.50498E+00
  rms(prec ) = 0.69704E+00
  weight for this iteration     100.00

 eigenvalues of (default mixing * dielectric matrix)
  average eigenvalue GAMMA=   0.9552
  2.4157  1.0833  1.0833  0.6357  0.6357  0.3258  0.5072

 Free energy of the ion-electron system (eV)
  ---------------------------------------------------
  alpha Z        PSCENC =        90.66455622
  Ewald energy   TEWEN  =    188366.27096718
  -Hartree energ DENC   =   -193630.05665777
  -exchange      EXHF   =         0.00000000
  -V(xc)+E(xc)   XCENC  =      -345.89744921
  PAW double counting   =      6806.32796788    -6086.80625334
  entropy T*S    EENTRO =         0.00000000
  eigenvalues    EBANDS =      -711.29411149
  atomic energy  EATOM  =      5361.07568887
  Solvation  Ediel_sol  =         0.00000000
  ---------------------------------------------------
  free energy    TOTEN  =      -149.71529165 eV

  energy without entropy =     -149.71529165  energy(sigma->0) =     -149.71529165


--------------------------------------------------------------------------------------------------------




--------------------------------------- Iteration      1(  13)  ---------------------------------------


    POTLOK:  cpu time    0.0781: real time    0.0786
    SETDIJ:  cpu time    0.2137: real time    0.2145
     EDDAV:  cpu time   23.5946: real time   23.7246
 BZINTS: Fermi energy:  0.049530;107.000000 electrons
         Band energy:-706.370886;  BLOECHL correction: -0.052071
       DOS:  cpu time    0.0209: real time    0.0209
    CHARGE:  cpu time    1.0494: real time    1.0546
    MIXING:  cpu time    0.0183: real time    0.0183
    --------------------------------------------
      LOOP:  cpu time   24.9750: real time   25.1114

 eigenvalue-minimisations  :  9240
 total energy-change (2. order) : 0.3853098E+00  (-0.6437082E-02)
 number of electron     107.0000000 magnetization 
 augmentation part        7.0519577 magnetization 

 Broyden mixing:
  rms(total) = 0.31403E+00    rms(broyden)= 0.31394E+00
  rms(prec ) = 0.43502E+00
  weight for this iteration     100.00

 eigenvalues of (default mixing * dielectric matrix)
  average eigenvalue GAMMA=   0.8625
  2.4152  1.1184  1.1184  0.6615  0.6615  0.4446  0.3219  0.1590

 Free energy of the ion-electron system (eV)
  ---------------------------------------------------
  alpha Z        PSCENC =        90.66455622
  Ewald energy   TEWEN  =    188366.27096718
  -Hartree energ DENC   =   -193634.69267411
  -exchange      EXHF   =         0.00000000
  -V(xc)+E(xc)   XCENC  =      -345.77176909
  PAW double counting   =      6799.33690292    -6079.84276775
  entropy T*S    EENTRO =         0.00000000
  eigenvalues    EBANDS =      -706.37088606
  atomic energy  EATOM  =      5361.07568887
  Solvation  Ediel_sol  =         0.00000000
  ---------------------------------------------------
  free energy    TOTEN  =      -149.32998182 eV

  energy without entropy =     -149.32998182  energy(sigma->0) =     -149.32998182


--------------------------------------------------------------------------------------------------------




--------------------------------------- Iteration      1(  14)  ---------------------------------------


    POTLOK:  cpu time    0.0916: real time    0.0925
    SETDIJ:  cpu time    0.2123: real time    0.2129
     EDDAV:  cpu time   24.1314: real time   24.2680
 BZINTS: Fermi energy:  0.080674;107.000000 electrons
         Band energy:-705.522454;  BLOECHL correction: -0.045144
       DOS:  cpu time    0.0189: real time    0.0189
    CHARGE:  cpu time    1.0265: real time    1.0323
    MIXING:  cpu time    0.0226: real time    0.0226
    --------------------------------------------
      LOOP:  cpu time   25.5031: real time   25.6472

 eigenvalue-minimisations  :  9460
 total energy-change (2. order) : 0.6843435E-01  (-0.5802015E-02)
 number of electron     107.0000000 magnetization 
 augmentation part        7.0047080 magnetization 

 Broyden mixing:
  rms(total) = 0.20511E+00    rms(broyden)= 0.20507E+00
  rms(prec ) = 0.27605E+00
  weight for this iteration     100.00

 eigenvalues of (default mixing * dielectric matrix)
  average eigenvalue GAMMA=   0.8131
  2.4255  1.0880  1.0880  0.6580  0.6580  0.3295  0.4232  0.4232  0.2249

 Free energy of the ion-electron system (eV)
  ---------------------------------------------------
  alpha Z        PSCENC =        90.66455622
  Ewald energy   TEWEN  =    188366.27096718
  -Hartree energ DENC   =   -193635.48868640
  -exchange      EXHF   =         0.00000000
  -V(xc)+E(xc)   XCENC  =      -345.75277844
  PAW double counting   =      6796.09477453    -6076.60361504
  entropy T*S    EENTRO =         0.00000000
  eigenvalues    EBANDS =      -705.52245439
  atomic energy  EATOM  =      5361.07568887
  Solvation  Ediel_sol  =         0.00000000
  ---------------------------------------------------
  free energy    TOTEN  =      -149.26154746 eV

  energy without entropy =     -149.26154746  energy(sigma->0) =     -149.26154746


--------------------------------------------------------------------------------------------------------




--------------------------------------- Iteration      1(  15)  ---------------------------------------


    POTLOK:  cpu time    0.0926: real time    0.0933
    SETDIJ:  cpu time    0.1939: real time    0.1967
     EDDAV:  cpu time   23.0024: real time   23.0883
 BZINTS: Fermi energy:  0.080449;107.000000 electrons
         Band energy:-705.621216;  BLOECHL correction: -0.045083
       DOS:  cpu time    0.0208: real time    0.0209
    CHARGE:  cpu time    1.0785: real time    1.0813
    MIXING:  cpu time    0.0248: real time    0.0249
    --------------------------------------------
      LOOP:  cpu time   24.4130: real time   24.5052

 eigenvalue-minimisations  :  9070
 total energy-change (2. order) : 0.2433636E-02  (-0.1702837E-03)
 number of electron     107.0000000 magnetization 
 augmentation part        7.0046185 magnetization 

 Broyden mixing:
  rms(total) = 0.20392E+00    rms(broyden)= 0.20392E+00
  rms(prec ) = 0.27535E+00
  weight for this iteration     100.00

 eigenvalues of (default mixing * dielectric matrix)
  average eigenvalue GAMMA=   0.8658
  2.4638  0.8052  1.0732  1.0732  0.7269  0.7269  0.4936  0.4936  0.3254  0.4759

 Free energy of the ion-electron system (eV)
  ---------------------------------------------------
  alpha Z        PSCENC =        90.66455622
  Ewald energy   TEWEN  =    188366.27096718
  -Hartree energ DENC   =   -193635.38047410
  -exchange      EXHF   =         0.00000000
  -V(xc)+E(xc)   XCENC  =      -345.75988081
  PAW double counting   =      6793.77236234    -6074.28111803
  entropy T*S    EENTRO =         0.00000000
  eigenvalues    EBANDS =      -705.62121551
  atomic energy  EATOM  =      5361.07568887
  Solvation  Ediel_sol  =         0.00000000
  ---------------------------------------------------
  free energy    TOTEN  =      -149.25911383 eV

  energy without entropy =     -149.25911383  energy(sigma->0) =     -149.25911383


--------------------------------------------------------------------------------------------------------




--------------------------------------- Iteration      1(  16)  ---------------------------------------


    POTLOK:  cpu time    0.0927: real time    0.0929
    SETDIJ:  cpu time    0.2172: real time    0.2195
     EDDAV:  cpu time   23.6885: real time   23.7675
 BZINTS: Fermi energy:  0.077407;107.000000 electrons
         Band energy:-705.726233;  BLOECHL correction: -0.045616
       DOS:  cpu time    0.0209: real time    0.0209
    CHARGE:  cpu time    1.0642: real time    1.0657
    MIXING:  cpu time    0.0172: real time    0.0173
    --------------------------------------------
      LOOP:  cpu time   25.1009: real time   25.1839

 eigenvalue-minimisations  :  9820
 total energy-change (2. order) :-0.2698217E-02  (-0.1023065E-04)
 number of electron     107.0000000 magnetization 
 augmentation part        7.0071224 magnetization 

 Broyden mixing:
  rms(total) = 0.20852E+00    rms(broyden)= 0.20852E+00
  rms(prec ) = 0.28288E+00
  weight for this iteration     100.00

 eigenvalues of (default mixing * dielectric matrix)
  average eigenvalue GAMMA=   0.8270
  2.4720  1.0632  1.0543  1.0543  0.7233  0.7233  0.4719  0.4719  0.4956  0.3250
  0.2425

 Free energy of the ion-electron system (eV)
  ---------------------------------------------------
  alpha Z        PSCENC =        90.66455622
  Ewald energy   TEWEN  =    188366.27096718
  -Hartree energ DENC   =   -193635.27447422
  -exchange      EXHF   =         0.00000000
  -V(xc)+E(xc)   XCENC  =      -345.76399996
  PAW double counting   =      6792.77594054    -6073.28425756
  entropy T*S    EENTRO =         0.00000000
  eigenvalues    EBANDS =      -705.72623312
  atomic energy  EATOM  =      5361.07568887
  Solvation  Ediel_sol  =         0.00000000
  ---------------------------------------------------
  free energy    TOTEN  =      -149.26181204 eV

  energy without entropy =     -149.26181204  energy(sigma->0) =     -149.26181204


--------------------------------------------------------------------------------------------------------




--------------------------------------- Iteration      1(  17)  ---------------------------------------


    POTLOK:  cpu time    0.0919: real time    0.0922
    SETDIJ:  cpu time    0.2191: real time    0.2193
     EDDAV:  cpu time   28.1736: real time   28.3081
 BZINTS: Fermi energy:  0.176188;107.000000 electrons
         Band energy:-704.856740;  BLOECHL correction: -0.038524
       DOS:  cpu time    0.0221: real time    0.0221
    CHARGE:  cpu time    1.0810: real time    1.0825
    MIXING:  cpu time    0.0209: real time    0.0209
    --------------------------------------------
      LOOP:  cpu time   29.6087: real time   29.7452

 eigenvalue-minimisations  : 12070
 total energy-change (2. order) : 0.4483288E-01  (-0.1387041E-01)
 number of electron     107.0000000 magnetization 
 augmentation part        6.9313651 magnetization 

 Broyden mixing:
  rms(total) = 0.95333E-01    rms(broyden)= 0.95244E-01
  rms(prec ) = 0.96876E-01
  weight for this iteration     100.00

 eigenvalues of (default mixing * dielectric matrix)
  average eigenvalue GAMMA=   0.8893
  2.4602  0.9096  0.9096  1.2673  0.9273  0.9273  0.9922  0.5146  0.5146  0.3265
  0.4610  0.4610

 Free energy of the ion-electron system (eV)
  ---------------------------------------------------
  alpha Z        PSCENC =        90.66455622
  Ewald energy   TEWEN  =    188366.27096718
  -Hartree energ DENC   =   -193636.10668270
  -exchange      EXHF   =         0.00000000
  -V(xc)+E(xc)   XCENC  =      -345.75107700
  PAW double counting   =      6773.65899170    -6054.17268312
  entropy T*S    EENTRO =         0.00000000
  eigenvalues    EBANDS =      -704.85674032
  atomic energy  EATOM  =      5361.07568887
  Solvation  Ediel_sol  =         0.00000000
  ---------------------------------------------------
  free energy    TOTEN  =      -149.21697916 eV

  energy without entropy =     -149.21697916  energy(sigma->0) =     -149.21697916


--------------------------------------------------------------------------------------------------------




--------------------------------------- Iteration      1(  18)  ---------------------------------------


    POTLOK:  cpu time    0.0924: real time    0.0930
    SETDIJ:  cpu time    0.2155: real time    0.2156
     EDDAV:  cpu time   26.2358: real time   26.2873
 BZINTS: Fermi energy:  0.430996;107.000000 electrons
         Band energy:-704.467916;  BLOECHL correction: -0.030279
       DOS:  cpu time    0.0200: real time    0.0200
    CHARGE:  cpu time    1.0489: real time    1.0559
    MIXING:  cpu time    0.0243: real time    0.0243
    --------------------------------------------
      LOOP:  cpu time   27.6369: real time   27.6960

 eigenvalue-minimisations  : 11020
 total energy-change (2. order) :-0.3380768E+00  (-0.2564351E+00)
 number of electron     107.0000000 magnetization 
 augmentation part        6.6731648 magnetization 

 Broyden mixing:
  rms(total) = 0.76351E+00    rms(broyden)= 0.76262E+00
  rms(prec ) = 0.10283E+01
  weight for this iteration     100.00

 eigenvalues of (default mixing * dielectric matrix)
  average eigenvalue GAMMA=   0.8819
  2.2380  2.1159  0.7737  0.7737  1.0352  1.0352  0.9178  0.4786  0.4786  0.5072
  0.5072  0.3276  0.2763

 Free energy of the ion-electron system (eV)
  ---------------------------------------------------
  alpha Z        PSCENC =        90.66455622
  Ewald energy   TEWEN  =    188366.27096718
  -Hartree energ DENC   =   -193636.85569364
  -exchange      EXHF   =         0.00000000
  -V(xc)+E(xc)   XCENC  =      -345.73095793
[...]
      6     -17.2202      2.00000
      7     -16.7606      2.00000
      8     -16.2962      2.00000
      9     -15.8192      2.00000
     10     -15.3428      2.00000
     11     -14.6444      2.00000
     12      -7.3893      2.00000
     13      -6.8342      2.00000
     14      -6.4834      2.00000
     15      -6.2572      2.00000
     16      -6.0290      2.00000
     17      -5.7783      2.00000
     18      -5.5953      2.00000
     19      -5.3764      2.00000
     20      -5.2132      2.00000
     21      -5.0891      2.00000
     22      -4.8200      2.00000
     23      -4.6275      2.00000
     24      -4.4944      2.00000
     25      -4.3474      2.00000
     26      -4.1647      2.00000
     27      -4.1061      2.00000
     28      -3.9747      2.00000
     29      -3.8797      2.00000
     30      -3.6969      2.00000
     31      -3.6945      2.00000
     32      -3.5020      2.00000
     33      -3.4016      2.00000
     34      -3.2045      2.00000
     35      -3.2015      2.00000
     36      -3.0386      2.00000
     37      -3.0338      2.00000
     38      -2.8668      2.00000
     39      -2.7989      2.00000
     40      -2.6642      2.00000
     41      -2.5643      2.00000
     42      -2.2149      2.00000
     43      -2.1259      2.00000
     44      -2.0677      2.00000
     45      -2.0585      2.00000
     46      -1.7539      2.00000
     47      -1.6084      2.00000
     48      -1.4113      2.00000
     49      -1.3734      2.00000
     50      -1.2017      2.00000
     51      -1.0799      2.00000
     52      -0.8102      2.00000
     53      -0.6805      2.00000
     54      -0.4598      2.00000
     55      -0.2577      2.00000
     56       0.0326      2.00000
     57       0.5263      2.00000
     58       0.6459     -0.01296
     59       1.0789      0.00000
     60       1.6966      0.00000
     61       2.0117      0.00000
     62       2.5499      0.00000
     63       3.3089      0.00000
     64       3.4604      0.00000
     65       4.1501      0.00000
     66       4.8862      0.00000
     67       5.1572      0.00000
     68       5.9623      0.00000
     69       6.3823      0.00000
     70       6.6512      0.00000

 k-point    55 :       0.3043    0.3043    0.0000
  band No.  band energies     occupation 
      1     -19.3269      2.00000
      2     -19.0687      2.00000
      3     -18.6015      2.00000
      4     -18.1332      2.00000
      5     -17.6680      2.00000
      6     -17.2151      2.00000
      7     -16.7555      2.00000
      8     -16.2911      2.00000
      9     -15.8140      2.00000
     10     -15.3377      2.00000
     11     -14.6409      2.00000
     12      -7.2857      2.00000
     13      -6.7859      2.00000
     14      -6.5121      2.00000
     15      -6.2648      2.00000
     16      -6.0577      2.00000
     17      -5.7970      2.00000
     18      -5.5894      2.00000
     19      -5.3842      2.00000
     20      -5.2560      2.00000
     21      -5.0632      2.00000
     22      -4.8705      2.00000
     23      -4.6113      2.00000
     24      -4.4831      2.00000
     25      -4.4086      2.00000
     26      -4.1460      2.00000
     27      -4.1451      2.00000
     28      -3.9660      2.00000
     29      -3.9424      2.00000
     30      -3.7323      2.00000
     31      -3.6833      2.00000
     32      -3.4942      2.00000
     33      -3.4604      2.00000
     34      -3.2131      2.00000
     35      -3.0630      2.00000
     36      -3.0293      2.00000
     37      -2.9088      2.00000
     38      -2.7133      2.00000
     39      -2.5619      2.00000
     40      -2.3451      2.00000
     41      -2.3400      2.00000
     42      -2.1952      2.00000
     43      -2.1683      2.00000
     44      -2.1166      2.00000
     45      -1.9813      2.00000
     46      -1.9310      2.00000
     47      -1.7059      2.00000
     48      -1.6236      2.00000
     49      -1.3807      2.00000
     50      -1.3087      2.00000
     51      -1.2327      2.00000
     52      -1.1132      2.00000
     53      -0.6945      2.00000
     54      -0.5499      2.00000
     55      -0.2843      2.00000
     56      -0.0991      2.00000
     57       0.5285      2.00000
     58       0.8593     -0.20797
     59       0.9224      0.00000
     60       1.3320      0.00000
     61       2.3566      0.00000
     62       2.5502      0.00000
     63       2.5856      0.00000
     64       4.0106      0.00000
     65       4.1386      0.00000
     66       4.4216      0.00000
     67       5.4921      0.00000
     68       5.7474      0.00000
     69       6.1220      0.00000
     70       6.9060      0.00000

 k-point    56 :       0.3478    0.3043    0.0000
  band No.  band energies     occupation 
      1     -19.3147      2.00000
      2     -19.0602      2.00000
      3     -18.5923      2.00000
      4     -18.1240      2.00000
      5     -17.6588      2.00000
      6     -17.2060      2.00000
      7     -16.7463      2.00000
      8     -16.2819      2.00000
      9     -15.8048      2.00000
     10     -15.3287      2.00000
     11     -14.6355      2.00000
     12      -7.2065      2.00000
     13      -6.6822      2.00000
     14      -6.6733      2.00000
     15      -6.2009      2.00000
     16      -6.1327      2.00000
     17      -5.7980      2.00000
     18      -5.6315      2.00000
     19      -5.3321      2.00000
     20      -5.2715      2.00000
     21      -5.1320      2.00000
     22      -4.7993      2.00000
     23      -4.7236      2.00000
     24      -4.4862      2.00000
     25      -4.3398      2.00000
     26      -4.2562      2.00000
     27      -3.9657      2.00000
     28      -3.8767      2.00000
     29      -3.7903      2.00000
     30      -3.4950      2.00000
     31      -3.4083      2.00000
     32      -3.3040      2.00000
     33      -3.2879      2.00000
     34      -3.2709      2.00000
     35      -3.0285      2.00000
     36      -2.9158      2.00000
     37      -2.9075      2.00000
     38      -2.8657      2.00000
     39      -2.7625      2.00000
     40      -2.5581      2.00000
     41      -2.3786      2.00000
     42      -2.2883      2.00000
     43      -2.2807      2.00000
     44      -2.1978      2.00000
     45      -2.1247      2.00000
     46      -1.9855      2.00000
     47      -1.6745      2.00000
     48      -1.6234      2.00000
     49      -1.4521      2.00000
     50      -1.4211      2.00000
     51      -1.2752      2.00000
     52      -1.2118      2.00000
     53      -0.7307      2.00000
     54      -0.7125      2.00000
     55      -0.3001      2.00000
     56      -0.0942      2.00000
     57       0.5285      2.00000
     58       0.5307      0.95303
     59       1.1059      0.00000
     60       1.5707      0.00000
     61       1.6945      0.00000
     62       2.4464      0.00000
     63       3.1803      0.00000
     64       3.4646      0.00000
     65       4.1813      0.00000
     66       4.6916      0.00000
     67       5.0545      0.00000
     68       5.7339      0.00000
     69       6.4578      0.00000
     70       6.8877      0.00000


--------------------------------------------------------------------------------------------------------


 soft charge-density along one line, spin component           1
         0         1         2         3         4         5         6         7         8         9
 total charge-density along one line
 
 pseudopotential strength for first ion, spin component:           1
 13.198 -16.139  -0.000  -0.001   0.000   0.000   0.001  -0.000
-16.139  19.761   0.000   0.001  -0.000  -0.000  -0.002   0.000
 -0.000   0.000  -9.675  -0.000   0.000  11.860   0.000  -0.000
 -0.001   0.001  -0.000  -9.678   0.000   0.000  11.865  -0.000
  0.000  -0.000   0.000   0.000  -9.675  -0.000  -0.000  11.860
  0.000  -0.000  11.860   0.000  -0.000 -14.438  -0.000   0.000
  0.001  -0.002   0.000  11.865  -0.000  -0.000 -14.444   0.000
 -0.000   0.000  -0.000  -0.000  11.860   0.000   0.000 -14.438
 total augmentation occupancy for first ion, spin component:           1
  2.518   0.324  -0.000   0.015   0.000   0.000  -0.004  -0.000
  0.324   0.089   0.000   0.001   0.000   0.000  -0.011  -0.000
 -0.000   0.000   2.061   0.000   0.000   0.234   0.000   0.000
  0.015   0.001   0.000   2.075   0.000  -0.000   0.240   0.000
  0.000   0.000   0.000   0.000   2.061   0.000   0.000   0.234
  0.000   0.000   0.234   0.000   0.000   0.031   0.000   0.000
 -0.004  -0.011  -0.000   0.240   0.000   0.000   0.035   0.000
 -0.000  -0.000   0.000   0.000   0.234   0.000   0.000   0.031


------------------------ aborting loop because EDIFF is reached ----------------------------------------


    CHARGE:  cpu time    1.0627: real time    1.0643
    FORLOC:  cpu time    0.0418: real time    0.0418
    FORNL :  cpu time    7.0017: real time    7.0100
    STRESS:  cpu time   15.4847: real time   15.5106
    FORCOR:  cpu time    0.0973: real time    0.0977
    FORHAR:  cpu time    0.0386: real time    0.0386
    MIXING:  cpu time    0.0090: real time    0.0090
    OFIELD:  cpu time    0.0001: real time    0.0001

  FORCE on cell =-STRESS in cart. coord.  units (eV):
  Direction    XX          YY          ZZ          XY          YZ          ZX
  --------------------------------------------------------------------------------------
  Alpha Z    90.66456    90.66456    90.66456
  Ewald  191272.27167191272.27198************    -0.00013     0.00006    -0.00011
  Hartree192631.04503192631.04498************     0.00000     0.00000     0.00002
  E(xc)    -451.25724  -451.25725  -451.60380    -0.00000     0.00000    -0.00000
  Local  ************************384494.36812    -0.00023    -0.00003     0.00003
  n-local   -72.27698   -85.06097   -75.70982     2.94972    -2.27340     5.77629
  augment    66.92933    66.92908    66.70659     0.00020    -0.00000     0.00000
  Kinetic  1659.46557  1633.59519  1647.76041    -2.96439     1.32255     0.13168
  Fock        0.00000     0.00000     0.00000     0.00000     0.00000     0.00000
  -------------------------------------------------------------------------------------
  Total      -1.79024    -1.79024    -0.36791     0.00000     0.00000     0.00000
  in kB      -5.14976    -5.14976    -1.05833     0.00000     0.00000     0.00000
  external pressure =       -3.79 kB  Pullay stress =        0.00 kB


 VOLUME and BASIS-vectors are now :
 -----------------------------------------------------------------------------
  energy-cutoff  :      520.00
  volume of cell :      556.97
      direct lattice vectors                 reciprocal lattice vectors
     2.592423668 -1.496736268  0.000000000     0.385739419  0.000000000 -0.000000000
     0.000000000  2.993472536  0.000000000     0.192869710  0.334060189 -0.000000000
     0.000000000  0.000000000 71.771635044     0.000000000  0.000000000  0.013933081

  length of vectors
     2.993472888  2.993472536 71.771635044     0.385739419  0.385739465  0.013933081


 FORCES acting on ions
    electron-ion (+dipol)            ewald-force                    non-local-force                 convergence-correction
 -----------------------------------------------------------------------------------------------
   0.107E-02 -.185E-02 0.238E+04   0.462E-04 -.643E-04 -.238E+04   0.712E-17 0.555E-16 0.263E+00   -.622E-08 0.105E-07 -.141E+00
   0.109E-06 -.184E-07 0.119E+04   -.605E-05 0.818E-05 -.119E+04   -.109E-16 -.347E-17 -.190E+01   -.101E-09 0.151E-09 -.154E+00
   0.106E-02 -.184E-02 0.583E+03   0.600E-04 -.106E-03 -.581E+03   -.999E-17 0.000E+00 -.190E+01   0.630E-08 -.109E-07 -.153E+00
   0.774E-07 -.323E-07 -.627E+03   -.608E-05 0.822E-05 0.629E+03   -.977E-17 0.000E+00 -.189E+01   0.292E-09 -.494E-09 -.159E+00
   0.106E-02 -.184E-02 -.123E+04   0.602E-04 -.106E-03 0.123E+04   -.935E-17 0.347E-17 -.191E+01   -.444E-08 0.767E-08 -.162E+00
   0.104E-06 -.636E-07 -.244E+04   -.669E-05 0.902E-05 0.245E+04   -.746E-17 0.867E-18 -.199E+01   0.109E-09 -.321E-09 -.155E+00
   0.106E-02 -.184E-02 -.305E+04   0.616E-04 -.111E-03 0.306E+04   -.126E-16 -.867E-18 -.313E+01   0.719E-08 -.138E-07 -.117E+00
   -.106E-02 0.184E-02 0.179E+04   -.575E-04 0.970E-04 -.179E+04   -.733E-17 0.000E+00 -.181E+01   -.237E-08 0.402E-08 -.151E+00
   -.106E-02 0.184E-02 -.219E+02   -.579E-04 0.980E-04 0.239E+02   -.111E-16 -.347E-17 -.190E+01   -.548E-08 0.950E-08 -.154E+00
   -.106E-02 0.184E-02 -.184E+04   -.583E-04 0.986E-04 0.184E+04   -.829E-17 -.173E-17 -.194E+01   0.114E-07 -.198E-07 -.163E+00
   -.108E-02 0.187E-02 -.365E+04   -.424E-04 0.626E-04 0.366E+04   -.101E-15 0.555E-16 -.159E+02   0.130E-06 -.225E-06 0.184E-01
   -.207E-05 0.118E-05 0.695E+03   0.722E-05 -.984E-05 -.693E+03   0.131E-16 0.000E+00 -.111E+01   0.917E-10 -.194E-09 -.491E-01
   -.165E-05 0.996E-06 0.917E+02   0.605E-05 -.817E-05 -.906E+02   -.749E-18 0.278E-16 -.107E+01   0.143E-09 -.245E-09 -.512E-01
   -.166E-05 0.896E-06 -.514E+03   0.605E-05 -.818E-05 0.515E+03   0.985E-18 -.694E-17 -.108E+01   0.722E-10 -.894E-10 -.545E-01
   -.466E-05 0.249E-05 -.113E+04   0.197E-04 -.267E-04 0.113E+04   -.157E-17 0.555E-16 -.225E+01   0.352E-07 -.603E-07 -.137E-01
   0.438E-04 -.778E-04 0.293E+03   -.514E-04 0.913E-04 -.292E+03   -.748E-18 0.694E-17 -.107E+01   0.366E-09 -.629E-09 -.513E-01
   0.438E-04 -.778E-04 -.312E+03   -.514E-04 0.914E-04 0.313E+03   -.146E-16 0.694E-17 -.108E+01   -.135E-09 0.259E-09 -.537E-01
   0.445E-04 -.794E-04 -.919E+03   -.530E-04 0.948E-04 0.920E+03   -.867E-18 0.000E+00 -.124E+01   -.490E-09 0.850E-09 -.461E-01
   -.455E-04 0.769E-04 0.495E+03   0.492E-04 -.830E-04 -.494E+03   0.983E-18 -.139E-16 -.108E+01   -.684E-10 0.109E-09 -.511E-01
   -.456E-04 0.770E-04 -.110E+03   0.493E-04 -.831E-04 0.111E+03   -.249E-17 0.139E-16 -.108E+01   0.849E-10 -.126E-09 -.522E-01
   -.458E-04 0.775E-04 -.716E+03   0.497E-04 -.837E-04 0.717E+03   0.977E-18 -.139E-16 -.109E+01   0.757E-10 -.174E-09 -.531E-01
   0.221E-06 0.490E-07 0.123E+04   -.189E-05 0.227E-05 -.123E+04   -.426E-16 0.000E+00 -.145E+01   0.267E-10 -.339E-10 0.423E-01
   0.309E-07 0.575E-07 0.130E+04   0.575E-07 -.724E-07 -.130E+04   0.703E-17 0.000E+00 0.129E+00   0.112E-10 -.145E-10 -.580E-02
   0.674E-05 -.337E-05 0.134E+04   -.219E-04 0.285E-04 -.134E+04   0.150E-16 -.555E-16 0.664E+01   0.105E-08 -.186E-08 -.619E-01
   0.149E-04 -.258E-04 0.128E+04   -.428E-05 0.743E-05 -.128E+04   0.879E-19 0.000E+00 0.126E+00   0.398E-10 -.698E-10 0.882E-02
   0.156E-04 -.269E-04 0.135E+04   -.480E-05 0.818E-05 -.135E+04   -.418E-16 -.139E-16 -.278E+00   0.166E-10 -.416E-10 -.451E-01
   -.148E-04 0.258E-04 0.126E+04   0.416E-05 -.727E-05 -.126E+04   0.747E-20 -.139E-16 0.107E-01   0.848E-10 -.168E-09 0.203E-01
   -.153E-04 0.267E-04 0.132E+04   0.409E-05 -.708E-05 -.132E+04   -.678E-17 -.694E-17 0.229E+00   0.751E-10 -.186E-09 -.275E-01
 -----------------------------------------------------------------------------------------------
   -.206E-04 0.201E-04 0.428E+02   -.550E-13 -.714E-15 0.182E-11   -.255E-15 0.919E-16 -.407E+02   0.173E-06 -.301E-06 -.204E+01
 
 
 POSITION                                       TOTAL-FORCE (eV/Angst)
 -----------------------------------------------------------------------------------
      0.86414      1.49674     31.01151        -0.000000      0.000000     -0.074734
      0.00000      0.00000     35.98715        -0.000000     -0.000000     -0.009729
      0.86414      1.49674     38.45116        -0.000000      0.000000      0.000699
      0.00000      0.00000     43.38003         0.000000     -0.000000      0.004429
      0.86414      1.49674     45.84337        -0.000000     -0.000000     -0.005890
      0.00000      0.00000     50.76176         0.000000     -0.000000      0.004676
      0.86414      1.49674     53.20171        -0.000000      0.000000     -0.002863
      1.72828     -0.00000     33.52096        -0.000000      0.000000     -0.013509
      1.72828     -0.00000     40.91613        -0.000000      0.000000     -0.002139
      1.72828     -0.00000     48.30514         0.000000     -0.000000     -0.019300
      1.72828     -0.00000     55.52910         0.000000     -0.000000      0.028419
      0.00000      0.00000     32.36589         0.000000     -0.000000      0.032320
      0.00000      0.00000     39.75900         0.000000     -0.000000      0.004093
      0.00000      0.00000     47.14955        -0.000000     -0.000000     -0.001628
      0.00000      0.00000     54.58315        -0.000000     -0.000000     -0.027040
      1.72828     -0.00000     37.29443         0.000000     -0.000000      0.005823
      1.72828     -0.00000     44.68725        -0.000000     -0.000000     -0.004393
      1.72828     -0.00000     52.07579        -0.000000      0.000000     -0.012985
      0.86414      1.49674     34.83007         0.000000     -0.000000      0.004901
      0.86414      1.49674     42.22410        -0.000000     -0.000000     -0.013834
      0.86414      1.49674     49.61006         0.000000     -0.000000      0.012069
      0.00000      0.00000     16.30972        -0.000000     -0.000000     -0.061508
      0.00000      0.00000     23.01204        -0.000000     -0.000000     -0.001009
      0.00000      0.00000     29.63146         0.000000     -0.000000      0.121457
      1.72828     -0.00000     20.78362         0.000000     -0.000000      0.002484
      1.72828     -0.00000     27.49771        -0.000000     -0.000000     -0.000678
      0.86414      1.49674     18.56495         0.000000     -0.000000      0.009392
      0.86414      1.49674     25.25365         0.000000     -0.000000      0.020475
 -----------------------------------------------------------------------------------
    total drift:                               -0.000020      0.000020      0.003457


--------------------------------------------------------------------------------------------------------



  FREE ENERGIE OF THE ION-ELECTRON SYSTEM (eV)
  ---------------------------------------------------
  free  energy   TOTEN  =      -149.17831363 eV

  energy  without entropy=     -149.17831363  energy(sigma->0) =     -149.17831363
 


--------------------------------------------------------------------------------------------------------


    POTLOK:  cpu time    0.3240: real time    0.3242


--------------------------------------------------------------------------------------------------------


 stress matrix after NEB project (eV)
     -1.79024      0.00000      0.00000
      0.00000     -1.79024     -0.00000
     -0.00000      0.00000     -0.36791
  FORCES: max atom, RMS     0.121457    0.031938
  FORCE total and by dimension    0.168998    0.121457
  Stress total and by dimension    2.558368    1.790236
     LOOP+:  cpu time 1405.5553: real time 1412.0114
    4ORBIT:  cpu time    0.0000: real time    0.0000
 BZINTS: Fermi energy:  0.567530;107.000000 electrons
         Band energy:-678.128882;  BLOECHL correction: -0.034419

 total amount of memory used by VASP MPI-rank0   181969. kBytes
=======================================================================

   base      :      30000. kBytes
   nonl-proj :      68544. kBytes
   fftplans  :      21369. kBytes
   grid      :      13079. kBytes
   one-center:         56. kBytes
   wavefun   :      48921. kBytes
 
  
  
 General timing and accounting informations for this job:
 ========================================================
  
                  Total CPU time used (sec):     1415.308
                            User time (sec):     1405.063
                          System time (sec):       10.245
                         Elapsed time (sec):     1421.789
  
                   Maximum memory used (kb):      284672.
                   Average memory used (kb):           0.
  
                          Minor page faults:       754361
                          Major page faults:            0
                 Voluntary context switches:          623
