       N       E                     dE             d eps       ncg     rms          rms(c)
DAV:   1     0.471195370403E+03    0.47120E+03   -0.41124E+04  6084   0.132E+03
DAV:   2    -0.916113722211E+02   -0.56281E+03   -0.53228E+03  7938   0.247E+02
DAV:   3    -0.147048328743E+03   -0.55437E+02   -0.55105E+02  7104   0.840E+01
DAV:   4    -0.147772658344E+03   -0.72433E+00   -0.72303E+00  7160   0.104E+01
DAV:   5    -0.147783857091E+03   -0.11199E-01   -0.11193E-01  7200   0.128E+00    0.219E+01
DAV:   6    -0.133390991976E+03    0.14393E+02   -0.83413E+01  7050   0.292E+01    0.749E+00
DAV:   7    -0.133268606089E+03    0.12239E+00   -0.17860E+00  6744   0.525E+00    0.457E+00
DAV:   8    -0.133177882601E+03    0.90723E-01   -0.55259E-01  7072   0.400E+00    0.868E-01
DAV:   9    -0.133152646844E+03    0.25236E-01   -0.11204E-01  6940   0.127E+00    0.519E-01
DAV:  10    -0.133151329519E+03    0.13173E-02   -0.35898E-02  6916   0.785E-01    0.248E-01
DAV:  11    -0.133152288243E+03   -0.95872E-03   -0.37369E-03  7016   0.258E-01    0.161E-01
DAV:  12    -0.133152403346E+03   -0.11510E-03   -0.12177E-03  8232   0.223E-01    0.749E-02
DAV:  13    -0.133152367754E+03    0.35592E-04   -0.11253E-03  6970   0.144E-01    0.285E-02
DAV:  14    -0.133152361247E+03    0.65072E-05   -0.75953E-05  6726   0.403E-02
   1 F= -.13315236E+03 E0= -.13315027E+03  d E =-.133152E+03
       N       E                     dE             d eps       ncg     rms          rms(c)
DAV:   1    -0.133153774631E+03   -0.14069E-02   -0.21988E-02  6860   0.655E-01    0.299E-02
DAV:   2    -0.133153745429E+03    0.29203E-04   -0.78907E-04  7210   0.149E-01    0.277E-02
DAV:   3    -0.133153714507E+03    0.30922E-04   -0.12799E-04  7060   0.613E-02    0.227E-02
DAV:   4    -0.133153684668E+03    0.29839E-04   -0.27225E-05  5810   0.307E-02    0.130E-02
DAV:   5    -0.133153642506E+03    0.42162E-04   -0.48416E-05  6776   0.690E-02    0.953E-03
DAV:   6    -0.133153626469E+03    0.16037E-04   -0.39619E-05  6370   0.615E-02    0.739E-03
DAV:   7    -0.133153623115E+03    0.33540E-05   -0.59124E-05  6214   0.523E-02
   2 F= -.13315362E+03 E0= -.13315157E+03  d E =-.126187E-02
       N       E                     dE             d eps       ncg     rms          rms(c)
DAV:   1    -0.133154000994E+03   -0.37453E-03   -0.13733E-02  6686   0.517E-01    0.225E-02
DAV:   2    -0.133153991600E+03    0.93946E-05   -0.54378E-04  7214   0.119E-01    0.211E-02
DAV:   3    -0.133153974829E+03    0.16771E-04   -0.67136E-05  6988   0.433E-02    0.183E-02
DAV:   4    -0.133153957205E+03    0.17624E-04   -0.16087E-05  4700   0.252E-02    0.104E-02
DAV:   5    -0.133153929360E+03    0.27845E-04   -0.44370E-05  6564   0.619E-02    0.958E-03
DAV:   6    -0.133153920182E+03    0.91778E-05   -0.27200E-05  5718   0.479E-02
   3 F= -.13315392E+03 E0= -.13315191E+03  d E =-.155894E-02
       N       E                     dE             d eps       ncg     rms          rms(c)
DAV:   1    -0.133154685183E+03   -0.75582E-03   -0.18970E-01  6154   0.190E+00    0.576E-02
DAV:   2    -0.133155086004E+03   -0.40082E-03   -0.45422E-03  6834   0.266E-01    0.380E-02
DAV:   3    -0.133155052672E+03    0.33332E-04   -0.48881E-05  6800   0.467E-02    0.247E-02
DAV:   4    -0.133155028366E+03    0.24306E-04   -0.54567E-05  6636   0.571E-02    0.829E-03
DAV:   5    -0.133155027703E+03    0.66265E-06   -0.45197E-05  6144   0.338E-02    0.661E-03
DAV:   6    -0.133155025158E+03    0.25452E-05   -0.39548E-06  3704   0.109E-02
   4 F= -.13315503E+03 E0= -.13315306E+03  d E =-.110498E-02
       N       E                     dE             d eps       ncg     rms          rms(c)
DAV:   1    -0.133153498887E+03    0.15288E-02   -0.14420E+00  6164   0.523E+00    0.158E-01
DAV:   2    -0.133156456520E+03   -0.29576E-02   -0.34188E-02  6886   0.733E-01    0.981E-02
DAV:   3    -0.133156181184E+03    0.27534E-03   -0.35476E-04  7222   0.137E-01    0.658E-02
DAV:   4    -0.133155887014E+03    0.29417E-03   -0.42170E-04  7588   0.198E-01    0.224E-02
DAV:   5    -0.133155834017E+03    0.52997E-04   -0.42069E-04  6906   0.117E-01    0.205E-02
DAV:   6    -0.133155761917E+03    0.72101E-04   -0.78041E-05  6582   0.719E-02    0.120E-02
DAV:   7    -0.133155638925E+03    0.12299E-03   -0.59322E-05  7036   0.133E-01    0.196E-02
DAV:   8    -0.133155506408E+03    0.13252E-03   -0.89909E-05  7942   0.169E-01    0.194E-02
DAV:   9    -0.133155424326E+03    0.82083E-04   -0.12383E-04  8122   0.149E-01    0.128E-02
DAV:  10    -0.133155331527E+03    0.92798E-04   -0.94219E-05  7606   0.236E-01    0.908E-03
DAV:  11    -0.133155318840E+03    0.12687E-04   -0.25005E-04  7378   0.160E-01    0.617E-03
DAV:  12    -0.133155331774E+03   -0.12934E-04   -0.21688E-04  6734   0.547E-02    0.146E-02
DAV:  13    -0.133155330334E+03    0.14403E-05   -0.10046E-05  3946   0.135E-02
   5 F= -.13315533E+03 E0= -.13315350E+03  d E =-.141015E-02
       N       E                     dE             d eps       ncg     rms          rms(c)
DAV:   1    -0.133155384318E+03   -0.52544E-04   -0.23791E-01  6244   0.212E+00    0.616E-02
DAV:   2    -0.133155840809E+03   -0.45649E-03   -0.53415E-03  6870   0.296E-01    0.381E-02
DAV:   3    -0.133155798594E+03    0.42214E-04   -0.72963E-05  7110   0.547E-02    0.261E-02
DAV:   4    -0.133155757289E+03    0.41305E-04   -0.51601E-05  6608   0.601E-02    0.114E-02
DAV:   5    -0.133155741742E+03    0.15547E-04   -0.49323E-05  6648   0.521E-02    0.719E-03
DAV:   6    -0.133155733949E+03    0.77931E-05   -0.23135E-05  5090   0.345E-02
   6 F= -.13315573E+03 E0= -.13315387E+03  d E =-.181377E-02
       N       E                     dE             d eps       ncg     rms          rms(c)
DAV:   1    -0.133156019815E+03   -0.27807E-03   -0.65724E-02  6202   0.111E+00    0.339E-02
DAV:   2    -0.133156154232E+03   -0.13442E-03   -0.15446E-03  6794   0.157E-01    0.202E-02
DAV:   3    -0.133156142294E+03    0.11938E-04   -0.19880E-05  4748   0.222E-02    0.137E-02
DAV:   4    -0.133156130257E+03    0.12037E-04   -0.16906E-05  4114   0.249E-02    0.573E-03
DAV:   5    -0.133156123637E+03    0.66201E-05   -0.79758E-06  3974   0.235E-02    0.389E-03
DAV:   6    -0.133156119254E+03    0.43824E-05   -0.51417E-06  3800   0.193E-02
   7 F= -.13315612E+03 E0= -.13315427E+03  d E =-.385306E-03
       N       E                     dE             d eps       ncg     rms          rms(c)
DAV:   1    -0.133156003664E+03    0.11997E-03   -0.59193E-01  6188   0.332E+00    0.950E-02
DAV:   2    -0.133157194214E+03   -0.11906E-02   -0.13076E-02  6720   0.450E-01    0.551E-02
DAV:   3    -0.133157121591E+03    0.72623E-04   -0.12212E-04  7240   0.543E-02    0.375E-02
DAV:   4    -0.133157068736E+03    0.52855E-04   -0.13829E-04  6928   0.627E-02    0.142E-02
DAV:   5    -0.133157057213E+03    0.11523E-04   -0.57554E-05  6472   0.396E-02    0.871E-03
DAV:   6    -0.133157049624E+03    0.75892E-05   -0.13185E-05  3894   0.252E-02
   8 F= -.13315705E+03 E0= -.13315525E+03  d E =-.131568E-02
       N       E                     dE             d eps       ncg     rms          rms(c)
DAV:   1    -0.133153282738E+03    0.37745E-02   -0.23675E+00  6204   0.666E+00    0.191E-01
DAV:   2    -0.133158088841E+03   -0.48061E-02   -0.52631E-02  6678   0.904E-01    0.111E-01
DAV:   3    -0.133157801593E+03    0.28725E-03   -0.47879E-04  7222   0.108E-01    0.751E-02
DAV:   4    -0.133157602533E+03    0.19906E-03   -0.57113E-04  7110   0.125E-01    0.275E-02
DAV:   5    -0.133157571872E+03    0.30662E-04   -0.21586E-04  6870   0.728E-02    0.169E-02
DAV:   6    -0.133157548226E+03    0.23646E-04   -0.53335E-05  6252   0.479E-02    0.878E-03
DAV:   7    -0.133157522303E+03    0.25922E-04   -0.69581E-06  4338   0.368E-02    0.608E-03
DAV:   8    -0.133157464988E+03    0.57315E-04   -0.18741E-05  5280   0.825E-02    0.591E-03
DAV:   9    -0.133157419931E+03    0.45057E-04   -0.35495E-05  6204   0.827E-02    0.746E-03
DAV:  10    -0.133157346250E+03    0.73682E-04   -0.95776E-05  7848   0.212E-01    0.713E-03
DAV:  11    -0.133157339776E+03    0.64734E-05   -0.16551E-04  7466   0.140E-01    0.697E-03
DAV:  12    -0.133157352396E+03   -0.12620E-04   -0.14006E-04  6120   0.394E-02    0.128E-02
DAV:  13    -0.133157353413E+03   -0.10163E-05   -0.19739E-06  3686   0.800E-03
   9 F= -.13315735E+03 E0= -.13315561E+03  d E =-.161946E-02
       N       E                     dE             d eps       ncg     rms          rms(c)
DAV:   1    -0.133157075784E+03    0.27661E-03   -0.20503E-01  6180   0.195E+00    0.606E-02
DAV:   2    -0.133157494022E+03   -0.41824E-03   -0.47103E-03  6730   0.267E-01    0.324E-02
DAV:   3    -0.133157468871E+03    0.25151E-04   -0.44660E-05  6886   0.335E-02    0.224E-02
DAV:   4    -0.133157452507E+03    0.16364E-04   -0.61080E-05  6686   0.409E-02    0.831E-03
DAV:   5    -0.133157451005E+03    0.15015E-05   -0.20874E-05  5174   0.204E-02    0.678E-03
DAV:   6    -0.133157449694E+03    0.13110E-05   -0.43774E-06  3632   0.119E-02
  10 F= -.13315745E+03 E0= -.13315569E+03  d E =-.171575E-02
       N       E                     dE             d eps       ncg     rms          rms(c)
DAV:   1    -0.133158034592E+03   -0.58359E-03   -0.76746E-02  6100   0.118E+00    0.343E-02
DAV:   2    -0.133158174306E+03   -0.13971E-03   -0.16306E-03  6972   0.162E-01    0.210E-02
DAV:   3    -0.133158163906E+03    0.10400E-04   -0.24629E-05  5582   0.252E-02    0.154E-02
DAV:   4    -0.133158155774E+03    0.81316E-05   -0.39474E-05  6218   0.315E-02    0.693E-03
DAV:   5    -0.133158154678E+03    0.10964E-05   -0.97616E-06  3826   0.149E-02    0.783E-03
DAV:   6    -0.133158152895E+03    0.17834E-05   -0.56326E-06  3812   0.161E-02
  11 F= -.13315815E+03 E0= -.13315641E+03  d E =-.703200E-03
       N       E                     dE             d eps       ncg     rms          rms(c)
DAV:   1    -0.133158462780E+03   -0.30810E-03   -0.68955E-01  6100   0.354E+00    0.103E-01
DAV:   2    -0.133159742321E+03   -0.12795E-02   -0.14670E-02  6942   0.481E-01    0.635E-02
DAV:   3    -0.133159650975E+03    0.91346E-04   -0.20223E-04  7222   0.751E-02    0.463E-02
DAV:   4    -0.133159587385E+03    0.63590E-04   -0.35553E-04  6964   0.992E-02    0.204E-02
DAV:   5    -0.133159583454E+03    0.39309E-05   -0.10385E-04  7046   0.483E-02    0.238E-02
DAV:   6    -0.133159575748E+03    0.77053E-05   -0.32985E-05  5518   0.293E-02
  12 F= -.13315958E+03 E0= -.13315785E+03  d E =-.212605E-02
       N       E                     dE             d eps       ncg     rms          rms(c)
DAV:   1    -0.133154773289E+03    0.48102E-02   -0.27567E+00  6100   0.707E+00    0.211E-01
DAV:   2    -0.133159928388E+03   -0.51551E-02   -0.59821E-02  6974   0.964E-01    0.129E-01
DAV:   3    -0.133159560344E+03    0.36804E-03   -0.89337E-04  7190   0.156E-01    0.950E-02
DAV:   4    -0.133159297411E+03    0.26293E-03   -0.14062E-03  7012   0.197E-01    0.415E-02
DAV:   5    -0.133159278710E+03    0.18701E-04   -0.43044E-04  7074   0.103E-01    0.493E-02
DAV:   6    -0.133159244088E+03    0.34622E-04   -0.15740E-04  6660   0.637E-02    0.251E-02
DAV:   7    -0.133159230527E+03    0.13561E-04   -0.50791E-05  6694   0.369E-02    0.139E-02
DAV:   8    -0.133159221071E+03    0.94561E-05   -0.64817E-05  6342   0.581E-02
  13 F= -.13315922E+03 E0= -.13315752E+03  d E =-.177138E-02
       N       E                     dE             d eps       ncg     rms          rms(c)
DAV:   1    -0.133158554490E+03    0.67604E-03   -0.84675E-01  6076   0.388E+00    0.116E-01
DAV:   2    -0.133160130967E+03   -0.15765E-02   -0.18184E-02  6894   0.526E-01    0.709E-02
DAV:   3    -0.133160021051E+03    0.10992E-03   -0.26014E-04  7198   0.859E-02    0.510E-02
DAV:   4    -0.133159951355E+03    0.69697E-04   -0.36628E-04  6932   0.103E-01    0.214E-02
DAV:   5    -0.133159947373E+03    0.39814E-05   -0.11298E-04  6950   0.488E-02    0.219E-02
DAV:   6    -0.133159939306E+03    0.80672E-05   -0.53782E-05  6102   0.390E-02
  14 F= -.13315994E+03 E0= -.13315823E+03  d E =-.248961E-02
       N       E                     dE             d eps       ncg     rms          rms(c)
DAV:   1    -0.133160423556E+03   -0.47618E-03   -0.97222E-02  6204   0.135E+00    0.392E-02
DAV:   2    -0.133160609053E+03   -0.18550E-03   -0.21939E-03  6902   0.190E-01    0.240E-02
DAV:   3    -0.133160594812E+03    0.14241E-04   -0.46077E-05  6748   0.341E-02    0.182E-02
DAV:   4    -0.133160583847E+03    0.10965E-04   -0.20018E-05  4500   0.270E-02    0.920E-03
DAV:   5    -0.133160576297E+03    0.75503E-05   -0.17935E-05  4564   0.332E-02    0.614E-03
DAV:   6    -0.133160575801E+03    0.49641E-06   -0.13275E-05  3658   0.179E-02
  15 F= -.13316058E+03 E0= -.13315887E+03  d E =-.636495E-03
       N       E                     dE             d eps       ncg     rms          rms(c)
DAV:   1    -0.133160231550E+03    0.34475E-03   -0.87286E-01  6164   0.406E+00    0.121E-01
DAV:   2    -0.133161956076E+03   -0.17245E-02   -0.19716E-02  6816   0.569E-01    0.704E-02
DAV:   3    -0.133161837328E+03    0.11875E-03   -0.34512E-04  7198   0.983E-02    0.517E-02
DAV:   4    -0.133161750505E+03    0.86823E-04   -0.23973E-04  6888   0.874E-02    0.234E-02
DAV:   5    -0.133161713711E+03    0.36793E-04   -0.10213E-04  7052   0.752E-02    0.176E-02
DAV:   6    -0.133161704270E+03    0.94409E-05   -0.81883E-05  6762   0.546E-02
  16 F= -.13316170E+03 E0= -.13316001E+03  d E =-.176496E-02
       N       E                     dE             d eps       ncg     rms          rms(c)
DAV:   1    -0.133161478481E+03    0.23523E-03   -0.20974E-01  6200   0.200E+00    0.595E-02
DAV:   2    -0.133161889551E+03   -0.41107E-03   -0.47629E-03  6850   0.282E-01    0.359E-02
DAV:   3    -0.133161854049E+03    0.35502E-04   -0.82335E-05  7060   0.519E-02    0.262E-02
DAV:   4    -0.133161823176E+03    0.30873E-04   -0.74995E-05  6668   0.522E-02    0.114E-02
DAV:   5    -0.133161811453E+03    0.11724E-04   -0.29945E-05  5744   0.434E-02    0.101E-02
DAV:   6    -0.133161806470E+03    0.49830E-05   -0.35274E-05  5826   0.408E-02
  17 F= -.13316181E+03 E0= -.13316012E+03  d E =-.186716E-02
       N       E                     dE             d eps       ncg     rms          rms(c)
DAV:   1    -0.133162269597E+03   -0.45814E-03   -0.16951E-01  6154   0.180E+00    0.514E-02
DAV:   2    -0.133162604835E+03   -0.33524E-03   -0.37241E-03  6788   0.245E-01    0.304E-02
DAV:   3    -0.133162584363E+03    0.20472E-04   -0.38890E-05  6118   0.303E-02    0.209E-02
DAV:   4    -0.133162571705E+03    0.12658E-04   -0.66997E-05  6536   0.415E-02    0.715E-03
DAV:   5    -0.133162571828E+03   -0.12324E-06   -0.15828E-05  4062   0.177E-02    0.618E-03
DAV:   6    -0.133162571396E+03    0.43284E-06   -0.52958E-06  3614   0.118E-02
  18 F= -.13316257E+03 E0= -.13316089E+03  d E =-.764926E-03
       N       E                     dE             d eps       ncg     rms          rms(c)
DAV:   1    -0.133161392366E+03    0.11795E-02   -0.15260E+00  6148   0.540E+00    0.153E-01
DAV:   2    -0.133164388011E+03   -0.29956E-02   -0.33200E-02  6782   0.731E-01    0.893E-02
DAV:   3    -0.133164210629E+03    0.17738E-03   -0.36707E-04  7358   0.940E-02    0.617E-02
DAV:   4    -0.133164088974E+03    0.12165E-03   -0.41244E-04  6870   0.121E-01    0.208E-02
DAV:   5    -0.133164090514E+03   -0.15398E-05   -0.18215E-04  6824   0.594E-02    0.185E-02
DAV:   6    -0.133164084544E+03    0.59699E-05   -0.18079E-05  3782   0.195E-02
  19 F= -.13316408E+03 E0= -.13316240E+03  d E =-.227807E-02
       N       E                     dE             d eps       ncg     rms          rms(c)
DAV:   1    -0.133152636768E+03    0.11454E-01   -0.61024E+00  6116   0.108E+01    0.307E-01
DAV:   2    -0.133164741176E+03   -0.12104E-01   -0.13417E-01  6798   0.147E+00    0.182E-01
DAV:   3    -0.133164004488E+03    0.73669E-03   -0.14370E-03  7374   0.190E-01    0.125E-01
DAV:   4    -0.133163477816E+03    0.52667E-03   -0.17824E-03  7020   0.256E-01    0.412E-02
DAV:   5    -0.133163484610E+03   -0.67942E-05   -0.76710E-04  7000   0.124E-01    0.372E-02
DAV:   6    -0.133163452848E+03    0.31762E-04   -0.97039E-05  6592   0.432E-02    0.185E-02
DAV:   7    -0.133163419509E+03    0.33340E-04   -0.30678E-05  5766   0.385E-02    0.860E-03
DAV:   8    -0.133163390594E+03    0.28915E-04   -0.65952E-06  4254   0.452E-02    0.786E-03
DAV:   9    -0.133163338321E+03    0.52272E-04   -0.34797E-05  6084   0.103E-01    0.756E-03
DAV:  10    -0.133163288243E+03    0.50079E-04   -0.79832E-05  7374   0.132E-01    0.149E-02
DAV:  11    -0.133163234822E+03    0.53421E-04   -0.83606E-05  7520   0.174E-01    0.167E-02
DAV:  12    -0.133163222722E+03    0.12100E-04   -0.13382E-04  6872   0.123E-01    0.130E-02
DAV:  13    -0.133163231325E+03   -0.86029E-05   -0.13151E-04  6112   0.406E-02    0.704E-03
DAV:  14    -0.133163231019E+03    0.30639E-06   -0.36466E-06  3680   0.946E-03
  20 F= -.13316323E+03 E0= -.13316153E+03  d E =-.142455E-02
       N       E                     dE             d eps       ncg     rms          rms(c)
DAV:   1    -0.133159894276E+03    0.33370E-02   -0.25296E+00  6164   0.695E+00    0.199E-01
DAV:   2    -0.133164890239E+03   -0.49960E-02   -0.55373E-02  6792   0.938E-01    0.114E-01
DAV:   3    -0.133164591021E+03    0.29922E-03   -0.59164E-04  7400   0.120E-01    0.784E-02
DAV:   4    -0.133164384530E+03    0.20649E-03   -0.72000E-04  7112   0.160E-01    0.251E-02
DAV:   5    -0.133164392406E+03   -0.78765E-05   -0.30397E-04  6966   0.747E-02    0.238E-02
DAV:   6    -0.133164382426E+03    0.99801E-05   -0.29993E-05  5260   0.239E-02
  21 F= -.13316438E+03 E0= -.13316271E+03  d E =-.257596E-02
       N       E                     dE             d eps       ncg     rms          rms(c)
DAV:   1    -0.133164895875E+03   -0.50347E-03   -0.96512E-02  6100   0.137E+00    0.425E-02
DAV:   2    -0.133165077892E+03   -0.18202E-03   -0.22424E-03  6886   0.197E-01    0.238E-02
DAV:   3    -0.133165063990E+03    0.13902E-04   -0.61471E-05  6754   0.355E-02    0.185E-02
DAV:   4    -0.133165047848E+03    0.16142E-04   -0.26080E-05  5274   0.247E-02    0.889E-03
DAV:   5    -0.133165029034E+03    0.18814E-04   -0.14819E-05  4474   0.366E-02    0.102E-02
DAV:   6    -0.133165015085E+03    0.13949E-04   -0.95715E-06  4230   0.386E-02    0.781E-03
DAV:   7    -0.133165003802E+03    0.11282E-04   -0.18891E-05  5120   0.407E-02    0.555E-03
DAV:   8    -0.133164972119E+03    0.31683E-04   -0.20990E-05  5426   0.104E-01    0.560E-03
DAV:   9    -0.133164964689E+03    0.74301E-05   -0.40408E-05  6182   0.584E-02
  22 F= -.13316496E+03 E0= -.13316327E+03  d E =-.582263E-03
       N       E                     dE             d eps       ncg     rms          rms(c)
DAV:   1    -0.133165046680E+03   -0.74560E-04   -0.43303E-01  6112   0.289E+00    0.836E-02
DAV:   2    -0.133165908811E+03   -0.86213E-03   -0.96514E-03  6872   0.401E-01    0.494E-02
DAV:   3    -0.133165862009E+03    0.46802E-04   -0.14655E-04  7304   0.565E-02    0.363E-02
DAV:   4    -0.133165817909E+03    0.44100E-04   -0.17927E-04  6858   0.673E-02    0.168E-02
DAV:   5    -0.133165805634E+03    0.12275E-04   -0.45513E-05  6584   0.382E-02    0.199E-02
DAV:   6    -0.133165789042E+03    0.16593E-04   -0.36252E-05  5554   0.419E-02    0.876E-03
DAV:   7    -0.133165782773E+03    0.62686E-05   -0.20723E-05  4616   0.263E-02
  23 F= -.13316578E+03 E0= -.13316406E+03  d E =-.140035E-02
       N       E                     dE             d eps       ncg     rms          rms(c)
DAV:   1    -0.133162292508E+03    0.34965E-02   -0.17333E+00  6076   0.579E+00    0.175E-01
DAV:   2    -0.133165772889E+03   -0.34804E-02   -0.39321E-02  6876   0.811E-01    0.984E-02
DAV:   3    -0.133165576181E+03    0.19671E-03   -0.62460E-04  7344   0.118E-01    0.720E-02
DAV:   4    -0.133165382089E+03    0.19409E-03   -0.70774E-04  7110   0.134E-01    0.342E-02
DAV:   5    -0.133165313416E+03    0.68673E-04   -0.17955E-04  7352   0.819E-02    0.404E-02
DAV:   6    -0.133165226676E+03    0.86740E-04   -0.17234E-04  7728   0.970E-02    0.171E-02
DAV:   7    -0.133165193564E+03    0.33111E-04   -0.92380E-05  6660   0.581E-02    0.151E-02
DAV:   8    -0.133165115836E+03    0.77729E-04   -0.27589E-05  5786   0.705E-02    0.922E-03
DAV:   9    -0.133165006721E+03    0.10911E-03   -0.10139E-04  7940   0.147E-01    0.198E-02
DAV:  10    -0.133164915874E+03    0.90847E-04   -0.18404E-04  9230   0.206E-01    0.768E-03
DAV:  11    -0.133164906090E+03    0.97841E-05   -0.18985E-04  6700   0.114E-01    0.118E-02
DAV:  12    -0.133164902578E+03    0.35116E-05   -0.70975E-05  6310   0.421E-02
  24 F= -.13316490E+03 E0= -.13316308E+03  d E =-.520152E-03
       N       E                     dE             d eps       ncg     rms          rms(c)
DAV:   1    -0.133164387462E+03    0.51863E-03   -0.86344E-01  6100   0.409E+00    0.121E-01
DAV:   2    -0.133166093340E+03   -0.17059E-02   -0.19060E-02  6884   0.563E-01    0.690E-02
DAV:   3    -0.133166003207E+03    0.90133E-04   -0.28675E-04  7338   0.808E-02    0.503E-02
DAV:   4    -0.133165925666E+03    0.77541E-04   -0.30995E-04  7050   0.936E-02    0.221E-02
DAV:   5    -0.133165906869E+03    0.18797E-04   -0.94483E-05  7014   0.524E-02    0.248E-02
DAV:   6    -0.133165882844E+03    0.24025E-04   -0.74912E-05  6542   0.534E-02    0.953E-03
DAV:   7    -0.133165877194E+03    0.56503E-05   -0.24831E-05  5260   0.246E-02
  25 F= -.13316588E+03 E0= -.13316411E+03  d E =-.149477E-02
       N       E                     dE             d eps       ncg     rms          rms(c)
DAV:   1    -0.133165874805E+03    0.80397E-05   -0.39710E-01  6140   0.276E+00    0.789E-02
DAV:   2    -0.133166662464E+03   -0.78766E-03   -0.86654E-03  6838   0.379E-01    0.459E-02
DAV:   3    -0.133166610061E+03    0.52403E-04   -0.89493E-05  7116   0.522E-02    0.324E-02
DAV:   4    -0.133166556342E+03    0.53720E-04   -0.11472E-04  6758   0.785E-02    0.118E-02
DAV:   5    -0.133166547348E+03    0.89933E-05   -0.73802E-05  6386   0.493E-02    0.119E-02
DAV:   6    -0.133166542641E+03    0.47075E-05   -0.21823E-05  4592   0.218E-02
  26 F= -.13316654E+03 E0= -.13316475E+03  d E =-.665447E-03
       N       E                     dE             d eps       ncg     rms          rms(c)
DAV:   1    -0.133163697839E+03    0.28495E-02   -0.18369E+00  6172   0.594E+00    0.172E-01
DAV:   2    -0.133167449756E+03   -0.37519E-02   -0.40774E-02  6842   0.817E-01    0.985E-02
DAV:   3    -0.133167221359E+03    0.22840E-03   -0.38179E-04  7276   0.108E-01    0.683E-02
DAV:   4    -0.133167012440E+03    0.20892E-03   -0.62218E-04  7300   0.175E-01    0.234E-02
DAV:   5    -0.133167009252E+03    0.31877E-05   -0.34077E-04  6788   0.886E-02    0.263E-02
DAV:   6    -0.133166997716E+03    0.11536E-04   -0.45450E-05  5856   0.288E-02    0.183E-02
DAV:   7    -0.133166975947E+03    0.21769E-04   -0.16312E-05  4108   0.264E-02    0.144E-02
DAV:   8    -0.133166924403E+03    0.51544E-04   -0.64650E-05  6630   0.696E-02    0.188E-02
DAV:   9    -0.133166912140E+03    0.12262E-04   -0.49663E-05  5876   0.420E-02    0.179E-02
DAV:  10    -0.133166897749E+03    0.14391E-04   -0.11136E-04  7890   0.822E-02    0.279E-02
DAV:  11    -0.133166864245E+03    0.33505E-04   -0.85834E-05  7856   0.108E-01    0.282E-02
DAV:  12    -0.133166835545E+03    0.28700E-04   -0.46035E-05  6204   0.622E-02    0.215E-02
DAV:  13    -0.133166792647E+03    0.42898E-04   -0.10736E-04  6728   0.924E-02    0.111E-02
DAV:  14    -0.133166781871E+03    0.10775E-04   -0.55307E-05  6848   0.120E-01    0.188E-02
DAV:  15    -0.133166781656E+03    0.21497E-06   -0.11652E-04  5970   0.550E-02    0.344E-03
DAV:  16    -0.133166782989E+03   -0.13327E-05   -0.26703E-05  4932   0.234E-02
  27 F= -.13316678E+03 E0= -.13316494E+03  d E =-.905795E-03
       N       E                     dE             d eps       ncg     rms          rms(c)
DAV:   1    -0.133166566266E+03    0.21539E-03   -0.15071E-01  6294   0.170E+00    0.489E-02
DAV:   2    -0.133166878541E+03   -0.31228E-03   -0.33685E-03  6852   0.234E-01    0.285E-02
DAV:   3    -0.133166859871E+03    0.18670E-04   -0.29042E-05  5680   0.283E-02    0.195E-02
DAV:   4    -0.133166844981E+03    0.14891E-04   -0.59239E-05  6572   0.499E-02    0.613E-03
DAV:   5    -0.133166846114E+03   -0.11333E-05   -0.24976E-05  4932   0.219E-02    0.702E-03
DAV:   6    -0.133166845469E+03    0.64525E-06   -0.23832E-06  3596   0.686E-03
  28 F= -.13316685E+03 E0= -.13316502E+03  d E =-.968275E-03
       N       E                     dE             d eps       ncg     rms          rms(c)
DAV:   1    -0.133167158716E+03   -0.31260E-03   -0.78938E-02  6522   0.125E+00    0.386E-02
DAV:   2    -0.133167309870E+03   -0.15115E-03   -0.19810E-03  6874   0.189E-01    0.267E-02
DAV:   3    -0.133167293794E+03    0.16077E-04   -0.60357E-05  6810   0.394E-02    0.211E-02
DAV:   4    -0.133167281945E+03    0.11849E-04   -0.29489E-05  5532   0.262E-02    0.105E-02
DAV:   5    -0.133167273510E+03    0.84343E-05   -0.11754E-05  4326   0.264E-02    0.647E-03
DAV:   6    -0.133167270835E+03    0.26748E-05   -0.12646E-05  4518   0.268E-02
  29 F= -.13316727E+03 E0= -.13316545E+03  d E =-.425367E-03
       N       E                     dE             d eps       ncg     rms          rms(c)
DAV:   1    -0.133167298643E+03   -0.25132E-04   -0.71792E-02  6492   0.119E+00    0.382E-02
DAV:   2    -0.133167442564E+03   -0.14392E-03   -0.18678E-03  6900   0.182E-01    0.259E-02
DAV:   3    -0.133167426425E+03    0.16139E-04   -0.47283E-05  6742   0.364E-02    0.203E-02
DAV:   4    -0.133167413676E+03    0.12749E-04   -0.35426E-05  5764   0.300E-02    0.911E-03
DAV:   5    -0.133167407348E+03    0.63275E-05   -0.11559E-05  4330   0.264E-02    0.675E-03
DAV:   6    -0.133167404656E+03    0.26920E-05   -0.10948E-05  4498   0.273E-02
  30 F= -.13316740E+03 E0= -.13316558E+03  d E =-.559188E-03
       N       E                     dE             d eps       ncg     rms          rms(c)
DAV:   1    -0.133167493419E+03   -0.86070E-04   -0.14169E-02  6302   0.524E-01    0.182E-02
DAV:   2    -0.133167525369E+03   -0.31950E-04   -0.38095E-04  6860   0.796E-02    0.118E-02
DAV:   3    -0.133167522476E+03    0.28927E-05   -0.62379E-06  3710   0.154E-02    0.895E-03
DAV:   4    -0.133167520028E+03    0.24478E-05   -0.13276E-05  4074   0.232E-02    0.310E-03
DAV:   5    -0.133167520145E+03   -0.11632E-06   -0.59310E-06  3440   0.116E-02    0.409E-03
DAV:   6    -0.133167519919E+03    0.22567E-06   -0.86048E-07  3290   0.444E-03
  31 F= -.13316752E+03 E0= -.13316570E+03  d E =-.115263E-03
