 vasp.5.3.5 31Mar14 (build Apr 08 2024 10:12:10) complex                        
  
 executed on             LinuxIFC date 2024.07.29  18:20:32
 running on    8 total cores
 distrk:  each k-point on    8 cores,    1 groups
 distr:  one band on NCORES_PER_BAND=   4 cores,    2 groups


--------------------------------------------------------------------------------------------------------


 INCAR:
 POTCAR:    PAW_PBE O 08Apr2002                   
 POTCAR:    PAW_PBE Mg 13Apr2007                  
 POTCAR:    PAW_PBE Al 04Jan2001                  
 POTCAR:    PAW_PBE O 08Apr2002                   
   VRHFIN =O: s2p4                                                              
   LEXCH  = PE                                                                  
   EATOM  =   432.3788 eV,   31.7789 Ry                                         
                                                                                
   TITEL  = PAW_PBE O 08Apr2002                                                 
   LULTRA =        F    use ultrasoft PP ?                                      
   IUNSCR =        1    unscreen: 0-lin 1-nonlin 2-no                           
   RPACOR =    1.200    partial core radius                                     
   POMASS =   16.000; ZVAL   =    6.000    mass and valenz                      
   RCORE  =    1.520    outmost cutoff radius                                   
   RWIGS  =    1.550; RWIGS  =    0.820    wigner-seitz radius (au A)           
   ENMAX  =  400.000; ENMIN  =  300.000 eV                                      
   ICORE  =        2    local potential                                         
   LCOR   =        T    correct aug charges                                     
   LPAW   =        T    paw PP                                                  
   EAUG   =  605.392                                                            
   DEXC   =    0.000                                                            
   RMAX   =    1.553    core radius for proj-oper                               
   RAUG   =    1.300    factor for augmentation sphere                          
   RDEP   =    1.550    radius for radial grids                                 
   RDEPT  =    1.329    core radius for aug-charge                              
                                                                                
   Atomic configuration                                                         
    4 entries                                                                   
     n  l   j            E        occ.                                          
     1  0  0.50      -514.6923   2.0000                                         
     2  0  0.50       -23.9615   2.0000                                         
     2  1  0.50        -9.0305   4.0000                                         
     3  2  1.50        -9.5241   0.0000                                         
   Description                                                                  
     l       E           TYP  RCUT    TYP  RCUT                                 
     0    -23.9615318     23  1.200                                             
     0     -9.5240782     23  1.200                                             
     1     -9.0304911     23  1.520                                             
     1      8.1634956     23  1.520                                             
     2     -9.5240782      7  1.500                                             
  local pseudopotential read in
  partial core-charges read in
  partial kinetic energy density read in
  kinetic energy density of atom read in
  atomic valenz-charges read in
  non local Contribution for L=           0  read in
    real space projection operators read in
  non local Contribution for L=           0  read in
    real space projection operators read in
  non local Contribution for L=           1  read in
    real space projection operators read in
  non local Contribution for L=           1  read in
    real space projection operators read in
    PAW grid and wavefunctions read in
 
   number of l-projection  operators is LMAX  =           4
   number of lm-projection operators is LMMAX =           8
 
 POTCAR:    PAW_PBE Mg 13Apr2007                  
   VRHFIN =Mg: s2p0                                                             
   LEXCH  = PE                                                                  
   EATOM  =    23.0369 eV,    1.6932 Ry                                         
                                                                                
   TITEL  = PAW_PBE Mg 13Apr2007                                                
   LULTRA =        F    use ultrasoft PP ?                                      
   IUNSCR =        1    unscreen: 0-lin 1-nonlin 2-no                           
   RPACOR =    1.500    partial core radius                                     
   POMASS =   24.305; ZVAL   =    2.000    mass and valenz                      
   RCORE  =    2.000    outmost cutoff radius                                   
   RWIGS  =    2.880; RWIGS  =    1.524    wigner-seitz radius (au A)           
   ENMAX  =  200.000; ENMIN  =  100.000 eV                                      
   RCLOC  =    1.506    cutoff for local pot                                    
   LCOR   =        T    correct aug charges                                     
   LPAW   =        T    paw PP                                                  
   EAUG   =  454.734                                                            
   DEXC   =    0.000                                                            
   RMAX   =    2.045    core radius for proj-oper                               
   RAUG   =    1.300    factor for augmentation sphere                          
   RDEP   =    2.025    radius for radial grids                                 
   RDEPT  =    1.942    core radius for aug-charge                              
                                                                                
   Atomic configuration                                                         
    6 entries                                                                   
     n  l   j            E        occ.                                          
     1  0  0.50     -1259.6230   2.0000                                         
     2  0  0.50       -79.8442   2.0000                                         
     2  1  1.50       -46.6121   6.0000                                         
     3  0  0.50        -4.7055   2.0000                                         
     3  1  0.50        -1.3660   0.0000                                         
     3  2  1.50        -1.3606   0.0000                                         
   Description                                                                  
     l       E           TYP  RCUT    TYP  RCUT                                 
     0     -4.7054661     23  2.000                                             
     0     27.2116520     23  2.000                                             
     1      1.3605826     23  2.000                                             
     1     27.2116520     23  2.000                                             
     2     -1.3605826     23  2.000                                             
  local pseudopotential read in
  partial core-charges read in
  partial kinetic energy density read in
  atomic valenz-charges read in
  non local Contribution for L=           0  read in
    real space projection operators read in
  non local Contribution for L=           0  read in
    real space projection operators read in
  non local Contribution for L=           1  read in
    real space projection operators read in
  non local Contribution for L=           1  read in
    real space projection operators read in
  non local Contribution for L=           2  read in
    real space projection operators read in
    PAW grid and wavefunctions read in
 
   number of l-projection  operators is LMAX  =           5
   number of lm-projection operators is LMMAX =          13
 
 POTCAR:    PAW_PBE Al 04Jan2001                  
   VRHFIN =Al: s2p1                                                             
   LEXCH  = PE                                                                  
   EATOM  =    53.5387 eV,    3.9350 Ry                                         
                                                                                
   TITEL  = PAW_PBE Al 04Jan2001                                                
   LULTRA =        F    use ultrasoft PP ?                                      
   IUNSCR =        1    unscreen: 0-lin 1-nonlin 2-no                           
   RPACOR =    1.500    partial core radius                                     
   POMASS =   26.981; ZVAL   =    3.000    mass and valenz                      
   RCORE  =    1.900    outmost cutoff radius                                   
   RWIGS  =    2.650; RWIGS  =    1.402    wigner-seitz radius (au A)           
   ENMAX  =  240.300; ENMIN  =  180.225 eV                                      
   ICORE  =        2    local potential                                         
   LCOR   =        T    correct aug charges                                     
   LPAW   =        T    paw PP                                                  
   EAUG   =  291.052                                                            
   DEXC   =    0.000                                                            
   RMAX   =    1.939    core radius for proj-oper                               
   RAUG   =    1.300    factor for augmentation sphere                          
   RDEP   =    1.966    radius for radial grids                                 
   RDEPT  =    1.856    core radius for aug-charge                              
                                                                                
   Atomic configuration                                                         
    6 entries                                                                   
     n  l   j            E        occ.                                          
     1  0  0.50     -1511.1048   2.0000                                         
     2  0  0.50      -108.1629   2.0000                                         
     2  1  1.50       -69.6402   6.0000                                         
     3  0  0.50        -7.7528   2.0000                                         
     3  1  1.50        -2.7121   1.0000                                         
     3  2  2.50        -2.7212   0.0000                                         
   Description                                                                  
     l       E           TYP  RCUT    TYP  RCUT                                 
     0     -7.7528455     23  1.900                                             
     0     -3.3096929     23  1.900                                             
     1     -2.7120682     23  1.900                                             
     1     13.6058260     23  1.900                                             
     2     -2.7211652      7  1.900                                             
  local pseudopotential read in
  partial core-charges read in
  partial kinetic energy density read in
  atomic valenz-charges read in
  non local Contribution for L=           0  read in
    real space projection operators read in
  non local Contribution for L=           0  read in
    real space projection operators read in
  non local Contribution for L=           1  read in
    real space projection operators read in
  non local Contribution for L=           1  read in
    real space projection operators read in
    PAW grid and wavefunctions read in
 
   number of l-projection  operators is LMAX  =           4
   number of lm-projection operators is LMMAX =           8
 

 ----------------------------------------------------------------------------- 
|                                                                             |
|  ADVICE TO THIS USER RUNNING 'VASP/VAMP'   (HEAR YOUR MASTER'S VOICE ...):  |
|                                                                             |
|      You have a (more or less) 'large supercell' and for larger cells       |
|      it might be more efficient to use real space projection opertators     |
|      So try LREAL= Auto  in the INCAR   file.                               |
|      Mind: At the moment your POTCAR file does not contain real space       |
|       projectors, and has to be modified,  BUT if you                       |
|      want to do an extremely  accurate calculation you might also keep the  |
|      reciprocal projection scheme          (i.e. LREAL=.FALSE.)             |
|                                                                             |
 ----------------------------------------------------------------------------- 

  PAW_PBE O 08Apr2002                   :
 energy of atom  1       EATOM= -432.3788
 kinetic energy error for atom=    0.0208 (will be added to EATOM!!)
  PAW_PBE Mg 13Apr2007                  :
 energy of atom  2       EATOM=  -23.0369
 kinetic energy error for atom=    0.0000 (will be added to EATOM!!)
  PAW_PBE Al 04Jan2001                  :
 energy of atom  3       EATOM=  -53.5387
 kinetic energy error for atom=    0.0002 (will be added to EATOM!!)
 
 
 POSCAR: Layer                                   
  positions in direct lattice
  velocities in cartesian coordinates
 exchange correlation table for  LEXCH =        8
   RHO(1)=    0.500       N(1)  =     2000
   RHO(2)=  100.500       N(2)  =     4000
 


--------------------------------------------------------------------------------------------------------


 ion  position               nearest neighbor table
   1  0.556  0.444  0.350-  14 2.15  15 2.15  14 2.15  14 2.15  15 2.15  15 2.15
   2  0.500  0.500  0.526-  17 2.15  16 2.15  17 2.15  17 2.15  16 2.15  16 2.15
   3  0.444  0.556  0.702-  19 2.15  18 2.15  19 2.15  19 2.15  18 2.15  18 2.15
   4  0.242  0.758  0.291-  14 2.15  14 2.15  14 2.15  10 2.17  10 2.17  10 2.17
   5  0.871  0.129  0.409-  15 2.15  11 2.15  15 2.15  15 2.15  11 2.15  11 2.15
   6  0.185  0.815  0.467-  11 2.15  16 2.15  11 2.15  11 2.15  16 2.15  16 2.15
   7  0.815  0.185  0.584-  12 2.15  17 2.15  12 2.15  12 2.15  17 2.15  17 2.15
   8  0.129  0.871  0.643-  18 2.15  12 2.15  18 2.15  18 2.15  12 2.15  12 2.15
   9  0.758  0.242  0.760-  19 2.15  19 2.15  19 2.15  13 2.17  13 2.17  13 2.17
  10  0.585  0.415  0.261-   4 2.17   4 2.17   4 2.17  14 3.11  14 3.11  14 3.11  21 3.15  21 3.15
                            21 3.15
  11  0.528  0.472  0.438-   6 2.15   5 2.15   6 2.15   6 2.15   5 2.15   5 2.15  16 3.08  16 3.08
                            15 3.08  15 3.08  15 3.08  16 3.08
  12  0.472  0.528  0.614-   7 2.15   8 2.15   7 2.15   7 2.15   8 2.15   8 2.15  17 3.08  17 3.08
                            18 3.08  18 3.08  17 3.08  18 3.08
  13  0.415  0.585  0.790-   9 2.17   9 2.17   9 2.17  19 3.11  19 3.11  19 3.11  24 3.15  24 3.15
                            24 3.15
  14  0.899  0.101  0.321-   1 2.15   4 2.15   1 2.15   1 2.15   4 2.15   4 2.15  15 3.08  15 3.08
                            15 3.08  10 3.11  10 3.11  10 3.11
  15  0.214  0.786  0.379-   5 2.15   1 2.15   5 2.15   5 2.15   1 2.15   1 2.15  11 3.08  11 3.08
                            11 3.08  14 3.08  14 3.08  14 3.08
  16  0.843  0.157  0.496-   6 2.15   2 2.15   6 2.15   6 2.15   2 2.15   2 2.15  11 3.08  11 3.08
                            17 3.08  17 3.08  11 3.08  17 3.08
  17  0.157  0.843  0.555-   2 2.15   7 2.15   2 2.15   2 2.15   7 2.15   7 2.15  12 3.08  12 3.08
                            16 3.08  16 3.08  12 3.08  16 3.08
  18  0.787  0.213  0.672-   8 2.15   3 2.15   8 2.15   8 2.15   3 2.15   3 2.15  12 3.08  12 3.08
                            12 3.08  19 3.08  19 3.08  19 3.08
  19  0.101  0.899  0.731-   3 2.15   9 2.15   9 2.15   9 2.15   3 2.15   3 2.15  18 3.08  18 3.08
                            18 3.08  13 3.11  13 3.11  13 3.11
  20  1.000  0.000  0.026-  25 3.03  23 3.03  23 3.03  23 3.03  25 3.03  25 3.03
  21  0.939  0.061  0.201-  22 3.11  22 3.12  22 3.12  10 3.15  10 3.15  10 3.15
  22  0.626  0.374  0.141-  23 3.06  23 3.06  23 3.06  21 3.11  21 3.12  21 3.12
  23  0.313  0.687  0.083-  20 3.03  20 3.03  20 3.03  22 3.06  22 3.06  22 3.06
  24  0.061  0.939  0.851-  26 3.11  26 3.12  26 3.12  13 3.15  13 3.15  13 3.15
  25  0.687  0.313  0.969-  20 3.03  20 3.03  20 3.03  26 3.06  26 3.06  26 3.06
  26  0.373  0.627  0.910-  25 3.06  25 3.06  25 3.06  24 3.11  24 3.12  24 3.12
 
  LATTYP: Found a base centered monoclinic cell.
 ALAT       =     5.1835214829
 B/A-ratio  =     0.5778353023
 C/A-ratio  =     8.5549837626
 COS(beta)  =    -0.1694398568
  
  Lattice vectors:
  
 A1 = (  -2.5925900058,   1.4952752266,  -0.0518951648)
 A2 = (   0.0013482762,   2.9928857368,  -0.0518951490)
 A3 = (   4.7735158528,  -8.2679694689, -43.3050588133)


Analysis of symmetry for initial positions (statically):
=====================================================================
 Subroutine PRICEL returns:
 Original cell was already a primitive cell.
 

 Routine SETGRP: Setting up the symmetry group for a 
 base centered monoclinic supercell.


 Subroutine GETGRP returns: Found  2 space group operations
 (whereof  2 operations were pure point group operations)
 out of a pool of  4 trial point group operations.


The static configuration has the point symmetry C_1h.


Analysis of symmetry for dynamics (positions and initial velocities):
=====================================================================
 Subroutine PRICEL returns:
 Original cell was already a primitive cell.
 

 Routine SETGRP: Setting up the symmetry group for a 
 base centered monoclinic supercell.


 Subroutine GETGRP returns: Found  2 space group operations
 (whereof  2 operations were pure point group operations)
 out of a pool of  4 trial point group operations.


The dynamic configuration has the point symmetry C_1h.


Analysis of constrained symmetry for selective dynamics:
=====================================================================
 Subroutine PRICEL returns:
 Original cell was already a primitive cell.
 

 Routine SETGRP: Setting up the symmetry group for a 
 base centered monoclinic supercell.


 Subroutine GETGRP returns: Found  2 space group operations
 (whereof  2 operations were pure point group operations)
 out of a pool of  4 trial point group operations.


The constrained configuration has the point symmetry C_1h.
 
 
 KPOINTS: K-Spacing Value to Generate K-Mesh: 0.02

Automatic generation of k-mesh.
Space group operators:
 irot       det(A)        alpha          n_x          n_y          n_z        tau_x        tau_y        tau_z
    1     1.000000     0.000000     1.000000     0.000000     0.000000     0.000000     0.000000     0.000000
    2    -1.000000   179.999999     0.866025     0.500000     0.000000     0.000000     0.000000     0.000000
 
 Subroutine IBZKPT returns following result:
 ===========================================
 
 Found     49 irreducible k-points:
 
 Following reciprocal coordinates:
            Coordinates               Weight
  0.000000  0.000000  0.000000      1.000000
  0.076923 -0.000000  0.000000      4.000000
  0.153846  0.000000  0.000000      4.000000
  0.230769 -0.000000  0.000000      4.000000
  0.307692  0.000000  0.000000      4.000000
  0.384615  0.000000  0.000000      4.000000
  0.461538 -0.000000  0.000000      4.000000
  0.076923  0.076923 -0.000000      2.000000
  0.153846  0.076923  0.000000      4.000000
  0.230769  0.076923  0.000000      4.000000
  0.307692  0.076923  0.000000      4.000000
  0.384615  0.076923  0.000000      4.000000
  0.461538  0.076923 -0.000000      4.000000
 -0.461538  0.076923  0.000000      4.000000
 -0.384615  0.076923 -0.000000      4.000000
 -0.307692  0.076923 -0.000000      4.000000
 -0.230769  0.076923 -0.000000      4.000000
 -0.153846  0.076923 -0.000000      4.000000
 -0.076923  0.076923 -0.000000      2.000000
  0.153846  0.153846  0.000000      2.000000
  0.230769  0.153846  0.000000      4.000000
  0.307692  0.153846  0.000000      4.000000
  0.384615  0.153846  0.000000      4.000000
  0.461538  0.153846  0.000000      4.000000
 -0.461538  0.153846  0.000000      4.000000
 -0.384615  0.153846 -0.000000      4.000000
 -0.307692  0.153846  0.000000      4.000000
 -0.230769  0.153846  0.000000      4.000000
 -0.153846  0.153846  0.000000      2.000000
  0.230769  0.230769  0.000000      2.000000
  0.307692  0.230769  0.000000      4.000000
  0.384615  0.230769  0.000000      4.000000
  0.461538  0.230769  0.000000      4.000000
 -0.461538  0.230769 -0.000000      4.000000
 -0.384615  0.230769 -0.000000      4.000000
 -0.307692  0.230769  0.000000      4.000000
 -0.230769  0.230769  0.000000      2.000000
  0.307692  0.307692  0.000000      2.000000
  0.384615  0.307692  0.000000      4.000000
  0.461538  0.307692  0.000000      4.000000
 -0.461538  0.307692 -0.000000      4.000000
 -0.384615  0.307692 -0.000000      4.000000
 -0.307692  0.307692  0.000000      2.000000
  0.384615  0.384615  0.000000      2.000000
  0.461538  0.384615 -0.000000      4.000000
 -0.461538  0.384615  0.000000      4.000000
 -0.384615  0.384615  0.000000      2.000000
  0.461538  0.461538  0.000000      2.000000
 -0.461538  0.461538  0.000000      2.000000
 
 Following cartesian coordinates:
            Coordinates               Weight
  0.000000  0.000000  0.000000      1.000000
  0.029665 -0.000018 -0.000279      4.000000
  0.059331 -0.000036 -0.000558      4.000000
  0.088996 -0.000055 -0.000837      4.000000
  0.118662 -0.000073 -0.001116      4.000000
  0.148327 -0.000091 -0.001396      4.000000
  0.177993 -0.000109 -0.001675      4.000000
  0.044482  0.025682  0.000000      2.000000
  0.074148  0.025664 -0.000279      4.000000
  0.103813  0.025646 -0.000558      4.000000
  0.133479  0.025627 -0.000837      4.000000
  0.163144  0.025609 -0.001116      4.000000
  0.192810  0.025591 -0.001396      4.000000
 -0.163176  0.025809  0.001954      4.000000
 -0.133510  0.025791  0.001675      4.000000
 -0.103845  0.025773  0.001396      4.000000
 -0.074179  0.025755  0.001116      4.000000
 -0.044514  0.025737  0.000837      4.000000
 -0.014848  0.025718  0.000558      2.000000
  0.088965  0.051364  0.000000      2.000000
  0.118630  0.051346 -0.000279      4.000000
  0.148296  0.051327 -0.000558      4.000000
  0.177961  0.051309 -0.000837      4.000000
  0.207627  0.051291 -0.001116      4.000000
 -0.148359  0.051510  0.002233      4.000000
 -0.118693  0.051491  0.001954      4.000000
 -0.089028  0.051473  0.001675      4.000000
 -0.059362  0.051455  0.001396      4.000000
 -0.029697  0.051437  0.001116      2.000000
  0.133447  0.077046  0.000000      2.000000
  0.163113  0.077028 -0.000279      4.000000
  0.192778  0.077009 -0.000558      4.000000
  0.222444  0.076991 -0.000837      4.000000
 -0.133542  0.077210  0.002512      4.000000
 -0.103876  0.077191  0.002233      4.000000
 -0.074211  0.077173  0.001954      4.000000
 -0.044545  0.077155  0.001675      2.000000
  0.177930  0.102728  0.000000      2.000000
  0.207595  0.102710 -0.000279      4.000000
  0.237261  0.102691 -0.000558      4.000000
 -0.118725  0.102910  0.002791      4.000000
 -0.089059  0.102892  0.002512      4.000000
 -0.059394  0.102873  0.002233      2.000000
  0.222412  0.128410  0.000000      2.000000
  0.252077  0.128391 -0.000279      4.000000
 -0.103908  0.128610  0.003070      4.000000
 -0.074242  0.128592  0.002791      2.000000
  0.266894  0.154092  0.000000      2.000000
 -0.089091  0.154310  0.003349      2.000000
 


--------------------------------------------------------------------------------------------------------




 Dimension of arrays:
   k-points           NKPTS =     49   k-points in BZ     NKDIM =     49   number of bands    NBANDS=     62
   number of dos      NEDOS =    301   number of ions     NIONS =     26
   non local maximal  LDIM  =      5   non local SUM 2l+1 LMDIM =     13
   total plane-waves  NPLWV = 186624
   max r-space proj   IRMAX =      1   max aug-charges    IRDMAX= 188045
   dimension x,y,z NGX =    24 NGY =   24 NGZ =  324
   dimension x,y,z NGXF=    48 NGYF=   48 NGZF=  648
   support grid    NGXF=    96 NGYF=   96 NGZF= 1296
   ions per type =               9  10   7
 NGX,Y,Z   is equivalent  to a cutoff of  13.33, 13.33, 12.38 a.u.
 NGXF,Y,Z  is equivalent  to a cutoff of  26.66, 26.66, 24.75 a.u.


 I would recommend the setting:
   dimension x,y,z NGX =    22 NGY =   22 NGZ =  324
 SYSTEM =  unknown system                          
 POSCAR =  Layer                                   

 Startparameter for this run:
   NWRITE =      2    write-flag & timer
   PREC   = accura    normal or accurate (medium, high low for compatibility)
   ISTART =      0    job   : 0-new  1-cont  2-samecut
   ICHARG =      2    charge: 1-file 2-atom 10-const
   ISPIN  =      1    spin polarized calculation?
   LNONCOLLINEAR =      F non collinear calculations
   LSORBIT =      F    spin-orbit coupling
   INIWAV =      1    electr: 0-lowe 1-rand  2-diag
   LASPH  =      F    aspherical Exc in radial PAW
   METAGGA=      F    non-selfconsistent MetaGGA calc.

 Electronic Relaxation 1
   ENCUT  =  520.0 eV  38.22 Ry    6.18 a.u.   5.57  5.57 80.92*2*pi/ulx,y,z
   ENINI  =  520.0     initial cutoff
   ENAUG  =  605.4 eV  augmentation charge cutoff
   NELM   =    100;   NELMIN=  6; NELMDL=  0     # of ELM steps 
   EDIFF  = 0.1E-04   stopping-criterion for ELM
   LREAL  =      F    real-space projection
   NLSPLINE    = F    spline interpolate recip. space projectors
   LCOMPAT=      F    compatible to vasp.4.4
   GGA_COMPAT  = T    GGA compatible to vasp.4.4-vasp.4.6
   LMAXPAW     = -100 max onsite density
   LMAXMIX     =    2 max onsite mixed and CHGCAR
   VOSKOWN=      0    Vosko Wilk Nusair interpolation
   ROPT   =    0.00000   0.00000   0.00000
 Ionic relaxation
   EDIFFG = -.2E-01   stopping-criterion for IOM
   NSW    =    500    number of steps for IOM
   NBLOCK =      1;   KBLOCK =    500    inner block; outer block 
   IBRION =      2    ionic relax: 0-MD 1-quasi-New 2-CG
   NFREE  =      1    steps in history (QN), initial steepest desc. (CG)
   ISIF   =      2    stress and relaxation
   IWAVPR =     11    prediction:  0-non 1-charg 2-wave 3-comb
   ISYM   =      2    0-nonsym 1-usesym 2-fastsym
   LCORR  =      T    Harris-Foulkes like correction to forces

   POTIM  = 0.5000    time-step for ionic-motion
   TEIN   =    0.0    initial temperature
   TEBEG  =    0.0;   TEEND  =   0.0 temperature during run
   SMASS  =  -3.00    Nose mass-parameter (am)
   estimated Nose-frequenzy (Omega)   =  0.10E-29 period in steps =****** mass=  -0.205E-27a.u.
   SCALEE = 1.0000    scale energy and forces
   NPACO  =    256;   APACO  = 16.0  distance and # of slots for P.C.
   PSTRESS=    0.0 pullay stress

  Mass of Ions in am
   POMASS =  16.00 24.30 26.98
  Ionic Valenz
   ZVAL   =   6.00  2.00  3.00
  Atomic Wigner-Seitz radii
   RWIGS  =  -1.00 -1.00 -1.00
  virtual crystal weights 
   VCA    =   1.00  1.00  1.00
   NELECT =      95.0000    total number of electrons
   NUPDOWN=      -1.0000    fix difference up-down

 DOS related values:
   EMIN   =  10.00;   EMAX   =-10.00  energy-range for DOS
   EFERMI =   0.00
   ISMEAR =     0;   SIGMA  =   0.05  broadening in eV -4-tet -1-fermi 0-gaus

 Electronic relaxation 2 (details)
   IALGO  =     38    algorithm
   LDIAG  =      T    sub-space diagonalisation (order eigenvalues)
   LSUBROT=      F    optimize rotation matrix (better conditioning)
   TURBO    =      0    0=normal 1=particle mesh
   IRESTART =      0    0=no restart 2=restart with 2 vectors
   NREBOOT  =      0    no. of reboots
   NMIN     =      0    reboot dimension
   EREF     =   0.00    reference energy to select bands
   IMIX   =      4    mixing-type and parameters
     AMIX     =   0.40;   BMIX     =  1.00
     AMIX_MAG =   1.60;   BMIX_MAG =  1.00
     AMIN     =   0.01
     WC   =   100.;   INIMIX=   1;  MIXPRE=   1;  MAXMIX= -45

 Intra band minimization:
   WEIMIN = 0.0010     energy-eigenvalue tresh-hold
   EBREAK =  0.40E-07  absolut break condition
   DEPER  =   0.30     relativ break condition  

   TIME   =   0.40     timestep for ELM

  volume/ion in A,a.u.               =      12.98        87.62
  Fermi-wavevector in a.u.,A,eV,Ry     =   1.072803  2.027303 15.659017  1.150905
  Thomas-Fermi vector in A             =   2.208583
 
 Write flags
   LWAVE  =      F    write WAVECAR
   LCHARG =      T    write CHGCAR
   LVTOT  =      F    write LOCPOT, total local potential
   LVHAR  =      F    write LOCPOT, Hartree potential only
   LELF   =      F    write electronic localiz. function (ELF)
   LORBIT =      0    0 simple, 1 ext, 2 COOP (PROOUT)


 Dipole corrections
   LMONO  =      F    monopole corrections only (constant potential shift)
   LDIPOL =      F    correct potential (dipole corrections)
   IDIPOL =      0    1-x, 2-y, 3-z, 4-all directions 
   EPSILON=  1.0000000 bulk dielectric constant

 Exchange correlation treatment:
   GGA     =    --    GGA type
   LEXCH   =     8    internal setting for exchange type
   VOSKOWN=      0    Vosko Wilk Nusair interpolation
   LHFCALC =     F    Hartree Fock is set to
   LHFONE  =     F    Hartree Fock one center treatment
   AEXX    =    0.0000 exact exchange contribution

 Linear response parameters
   LEPSILON=     F    determine dielectric tensor
   LRPA    =     F    only Hartree local field effects (RPA)
   LNABLA  =     F    use nabla operator in PAW spheres
   LVEL    =     F    velocity operator in full k-point grid
   LINTERFAST=   F  fast interpolation
   KINTER  =     0    interpolate to denser k-point grid
   CSHIFT  =0.1000    complex shift for real part using Kramers Kronig
   OMEGAMAX=  -1.0    maximum frequency
   DEG_THRESHOLD= 0.2000000E-02 threshold for treating states as degnerate
   RTIME   =    0.100 relaxation time in fs

 Orbital magnetization related:
   ORBITALMAG=     F  switch on orbital magnetization
   LCHIMAG   =     F  perturbation theory with respect to B field
   DQ        =  0.001000  dq finite difference perturbation B field



--------------------------------------------------------------------------------------------------------


 conjugate gradient relaxation of ions
   using selective dynamics as specified on POSCAR
 charge density and potential will be updated during run
 non-spin polarized calculation
 Variant of blocked Davidson
 Davidson routine will perform the subspace rotation
 perform sub-space diagonalisation
    after iterative eigenvector-optimisation
 modified Broyden-mixing scheme, WC =      100.0
 initial mixing is a Kerker type mixing with AMIX =  0.4000 and BMIX =      1.0000
 Hartree-type preconditioning will be used
 using additional bands           14
 reciprocal scheme for non local part
 use partial core corrections
 calculate Harris-corrections to forces 
   (improved forces if not selfconsistent)
 use gradient corrections 
 use of overlap-Matrix (Vanderbilt PP)
 Gauss-broadening in eV      SIGMA  =   0.05


--------------------------------------------------------------------------------------------------------


  energy-cutoff  :      520.00
  volume of cell :      337.59
      direct lattice vectors                 reciprocal lattice vectors
     2.592590006 -1.495275227  0.051895165     0.385650814 -0.000236650 -0.003628516
     0.001348276  2.992885737 -0.051895149     0.192620462  0.334101828  0.003628516
     0.408967606 -0.708352458 43.512639441    -0.000230217  0.000398747  0.022990483

  length of vectors
     2.993336608  2.993335925 43.520326387     0.385667956  0.385668044  0.022995093


 
 k-points in units of 2pi/SCALE and weight: K-Spacing Value to Generate K-Mesh: 0.02
   0.00000000  0.00000000  0.00000000       0.006
   0.02966545 -0.00001820 -0.00027912       0.024
   0.05933089 -0.00003641 -0.00055823       0.024
   0.08899634 -0.00005461 -0.00083735       0.024
   0.11866179 -0.00007282 -0.00111647       0.024
   0.14832724 -0.00009102 -0.00139558       0.024
   0.17799268 -0.00010922 -0.00167470       0.024
   0.04448241  0.02568194  0.00000000       0.012
   0.07414785  0.02566373 -0.00027912       0.024
   0.10381330  0.02564553 -0.00055823       0.024
   0.13347875  0.02562733 -0.00083735       0.024
   0.16314419  0.02560912 -0.00111647       0.024
   0.19280964  0.02559092 -0.00139558       0.024
  -0.16317572  0.02580936  0.00195382       0.024
  -0.13351028  0.02579116  0.00167470       0.024
  -0.10384483  0.02577296  0.00139558       0.024
  -0.07417938  0.02575475  0.00111647       0.024
  -0.04451394  0.02573655  0.00083735       0.024
  -0.01484849  0.02571834  0.00055823       0.012
   0.08896481  0.05136387  0.00000000       0.012
   0.11863026  0.05134567 -0.00027912       0.024
   0.14829571  0.05132747 -0.00055823       0.024
   0.17796115  0.05130926 -0.00083735       0.024
   0.20762660  0.05129106 -0.00111647       0.024
  -0.14835877  0.05150950  0.00223293       0.024
  -0.11869332  0.05149130  0.00195382       0.024
  -0.08902787  0.05147310  0.00167470       0.024
  -0.05936242  0.05145489  0.00139558       0.024
  -0.02969698  0.05143669  0.00111647       0.012
   0.13344722  0.07704581  0.00000000       0.012
   0.16311266  0.07702761 -0.00027912       0.024
   0.19277811  0.07700940 -0.00055823       0.024
   0.22244356  0.07699120 -0.00083735       0.024
  -0.13354181  0.07720964  0.00251205       0.024
  -0.10387636  0.07719144  0.00223293       0.024
  -0.07421091  0.07717324  0.00195382       0.024
  -0.04454547  0.07715503  0.00167470       0.012
   0.17792962  0.10272775  0.00000000       0.012
   0.20759507  0.10270954 -0.00027912       0.024
   0.23726052  0.10269134 -0.00055823       0.024
  -0.11872485  0.10290979  0.00279117       0.024
  -0.08905940  0.10289158  0.00251205       0.024
  -0.05939395  0.10287338  0.00223293       0.012
   0.22241203  0.12840968  0.00000000       0.012
   0.25207748  0.12839148 -0.00027912       0.024
  -0.10390789  0.12860993  0.00307028       0.024
  -0.07424244  0.12859172  0.00279117       0.012
   0.26689444  0.15409162  0.00000000       0.012
  -0.08909093  0.15431007  0.00334940       0.012
 
 k-points in reciprocal lattice and weights: K-Spacing Value to Generate K-Mesh: 0.02
   0.00000000  0.00000000  0.00000000       0.006
   0.07692308 -0.00000000  0.00000000       0.024
   0.15384615  0.00000000  0.00000000       0.024
   0.23076923 -0.00000000  0.00000000       0.024
   0.30769231  0.00000000  0.00000000       0.024
   0.38461538  0.00000000  0.00000000       0.024
   0.46153846 -0.00000000  0.00000000       0.024
   0.07692308  0.07692308 -0.00000000       0.012
   0.15384615  0.07692308  0.00000000       0.024
   0.23076923  0.07692308  0.00000000       0.024
   0.30769231  0.07692308  0.00000000       0.024
   0.38461538  0.07692308  0.00000000       0.024
   0.46153846  0.07692308 -0.00000000       0.024
  -0.46153846  0.07692308  0.00000000       0.024
  -0.38461538  0.07692308 -0.00000000       0.024
  -0.30769231  0.07692308 -0.00000000       0.024
  -0.23076923  0.07692308 -0.00000000       0.024
  -0.15384615  0.07692308 -0.00000000       0.024
  -0.07692308  0.07692308 -0.00000000       0.012
   0.15384615  0.15384615  0.00000000       0.012
   0.23076923  0.15384615  0.00000000       0.024
   0.30769231  0.15384615  0.00000000       0.024
   0.38461538  0.15384615  0.00000000       0.024
   0.46153846  0.15384615  0.00000000       0.024
  -0.46153846  0.15384615  0.00000000       0.024
  -0.38461538  0.15384615 -0.00000000       0.024
  -0.30769231  0.15384615  0.00000000       0.024
  -0.23076923  0.15384615  0.00000000       0.024
  -0.15384615  0.15384615  0.00000000       0.012
   0.23076923  0.23076923  0.00000000       0.012
   0.30769231  0.23076923  0.00000000       0.024
   0.38461538  0.23076923  0.00000000       0.024
   0.46153846  0.23076923  0.00000000       0.024
  -0.46153846  0.23076923 -0.00000000       0.024
  -0.38461538  0.23076923 -0.00000000       0.024
  -0.30769231  0.23076923  0.00000000       0.024
  -0.23076923  0.23076923  0.00000000       0.012
   0.30769231  0.30769231  0.00000000       0.012
   0.38461538  0.30769231  0.00000000       0.024
   0.46153846  0.30769231  0.00000000       0.024
  -0.46153846  0.30769231 -0.00000000       0.024
  -0.38461538  0.30769231 -0.00000000       0.024
  -0.30769231  0.30769231  0.00000000       0.012
   0.38461538  0.38461538  0.00000000       0.012
   0.46153846  0.38461538 -0.00000000       0.024
  -0.46153846  0.38461538  0.00000000       0.024
  -0.38461538  0.38461538  0.00000000       0.012
   0.46153846  0.46153846  0.00000000       0.012
  -0.46153846  0.46153846  0.00000000       0.012
 
 position of ions in fractional coordinates (direct lattice) 
   0.55628050  0.44371950  0.34996088
   0.50002119  0.49997881  0.52578963
   0.44375381  0.55624619  0.70161884
   0.24185654  0.75814346  0.29138582
   0.87078660  0.12921340  0.40858825
   0.18538365  0.81461635  0.46717946
   0.81465699  0.18534301  0.58440223
   0.12925199  0.87074801  0.64299120
   0.75817256  0.24182744  0.76019053
   0.58490281  0.41509719  0.26133441
   0.52807120  0.47192880  0.43789267
   0.47196900  0.52803100  0.61368523
   0.41512144  0.58487856  0.79024440
   0.89904945  0.10095055  0.32067543
   0.21351276  0.78648724  0.37929697
   0.84269748  0.15730252  0.49648326
   0.15734555  0.84265445  0.55509413
   0.78652296  0.21347704  0.67228386
   0.10098162  0.89901838  0.73090372
   0.99991739  0.00008261  0.02578825
   0.93854908  0.06145092  0.20069501
   0.62641036  0.37358964  0.14110813
   0.31292691  0.68707309  0.08305119
   0.06143359  0.93856641  0.85088003
   0.68694246  0.31305754  0.96852469
   0.37348210  0.62651790  0.91046678
 
 position of ions in cartesian coordinates  (Angst):
   1.58592818  0.24831366 15.23356313
   1.51205499  0.37626575 22.87849694
   1.43816105  0.50425376 30.52344978
   0.74722439  1.70099081 12.65217318
   2.42486620 -1.20476917 17.81723729
   0.67278339  1.82992635 20.29555729
   2.35132303 -1.07738870 25.46154179
   0.59923400  1.95731760 27.93976402
   2.27684996 -0.94839759 33.10469236
   1.62385016  0.18263090 11.38016193
   1.54879231  0.31263486 19.05677958
   1.47531141  0.43990747 26.70015468
   1.40021265  0.56998231 34.37681015
   2.46214860 -1.26934415 13.99485172
   0.70973162  1.76593017 16.47447749
   2.38802671 -1.14096132 21.63886589
   0.63608416  1.89349127 24.11804663
   2.31436172 -1.01336986 29.28258361
   0.56193200  2.02192653 31.76213588
   2.60292250 -1.51317163  1.17400140
   2.51543358 -1.36163642  8.77828694
   1.68223759  0.08150093  6.15310719
   0.84618280  1.52958986  3.59436000
   0.50851993  2.11443892 36.97851708
   2.17747747 -0.77627944 42.16246837
   1.34148210  0.67170657 39.60368148
 


--------------------------------------------------------------------------------------------------------


 k-point  1 :   0.0000 0.0000 0.0000  plane waves:    9225
 k-point  2 :   0.0769-0.0000 0.0000  plane waves:    9208
 k-point  3 :   0.1538 0.0000 0.0000  plane waves:    9185
 k-point  4 :   0.2308-0.0000 0.0000  plane waves:    9142
 k-point  5 :   0.3077 0.0000 0.0000  plane waves:    9098
 k-point  6 :   0.3846 0.0000 0.0000  plane waves:    9034
 k-point  7 :   0.4615-0.0000 0.0000  plane waves:    9050
 k-point  8 :   0.0769 0.0769-0.0000  plane waves:    9185
 k-point  9 :   0.1538 0.0769 0.0000  plane waves:    9158
 k-point 10 :   0.2308 0.0769 0.0000  plane waves:    9109
 k-point 11 :   0.3077 0.0769 0.0000  plane waves:    9086
 k-point 12 :   0.3846 0.0769 0.0000  plane waves:    9038
 k-point 13 :   0.4615 0.0769-0.0000  plane waves:    9015
 k-point 14 :  -0.4615 0.0769 0.0000  plane waves:    9038
 k-point 15 :  -0.3846 0.0769-0.0000  plane waves:    9083
 k-point 16 :  -0.3077 0.0769-0.0000  plane waves:    9103
 k-point 17 :  -0.2308 0.0769-0.0000  plane waves:    9159
 k-point 18 :  -0.1538 0.0769-0.0000  plane waves:    9185
 k-point 19 :  -0.0769 0.0769-0.0000  plane waves:    9201
 k-point 20 :   0.1538 0.1538 0.0000  plane waves:    9127
 k-point 21 :   0.2308 0.1538 0.0000  plane waves:    9088
 k-point 22 :   0.3077 0.1538 0.0000  plane waves:    9071
 k-point 23 :   0.3846 0.1538 0.0000  plane waves:    9036
 k-point 24 :   0.4615 0.1538 0.0000  plane waves:    9039
 k-point 25 :  -0.4615 0.1538 0.0000  plane waves:    9074
 k-point 26 :  -0.3846 0.1538-0.0000  plane waves:    9087
 k-point 27 :  -0.3077 0.1538 0.0000  plane waves:    9120
 k-point 28 :  -0.2308 0.1538 0.0000  plane waves:    9153
 k-point 29 :  -0.1538 0.1538 0.0000  plane waves:    9189
 k-point 30 :   0.2308 0.2308 0.0000  plane waves:    9082
 k-point 31 :   0.3077 0.2308 0.0000  plane waves:    9042
 k-point 32 :   0.3846 0.2308 0.0000  plane waves:    9072
 k-point 33 :   0.4615 0.2308 0.0000  plane waves:    9040
 k-point 34 :  -0.4615 0.2308-0.0000  plane waves:    9083
 k-point 35 :  -0.3846 0.2308-0.0000  plane waves:    9089
 k-point 36 :  -0.3077 0.2308 0.0000  plane waves:    9112
 k-point 37 :  -0.2308 0.2308 0.0000  plane waves:    9138
 k-point 38 :   0.3077 0.3077 0.0000  plane waves:    9084
 k-point 39 :   0.3846 0.3077 0.0000  plane waves:    9075
 k-point 40 :   0.4615 0.3077 0.0000  plane waves:    9045
 k-point 41 :  -0.4615 0.3077-0.0000  plane waves:    9072
 k-point 42 :  -0.3846 0.3077-0.0000  plane waves:    9084
 k-point 43 :  -0.3077 0.3077 0.0000  plane waves:    9092
 k-point 44 :   0.3846 0.3846 0.0000  plane waves:    9062
 k-point 45 :   0.4615 0.3846-0.0000  plane waves:    9027
 k-point 46 :  -0.4615 0.3846 0.0000  plane waves:    9040
 k-point 47 :  -0.3846 0.3846 0.0000  plane waves:    9043
 k-point 48 :   0.4615 0.4615 0.0000  plane waves:    9000
 k-point 49 :  -0.4615 0.4615 0.0000  plane waves:    9053

 maximum and minimum number of plane-waves per node :      2318     2240

 maximum number of plane-waves:      9225
 maximum index in each direction: 
   IXMAX=    6   IYMAX=    5   IZMAX=   80
   IXMIN=   -6   IYMIN=   -6   IZMIN=  -80

 WARNING: aliasing errors must be expected set NGX to  26 to avoid them
 NGY is ok and might be reduce to  24
 NGZ is ok and might be reduce to 322
 aliasing errors are usually negligible using standard VASP settings
 and one can safely disregard these warnings

 parallel 3D FFT for wavefunctions:
    minimum data exchange during FFTs selected (reduces bandwidth)
 parallel 3D FFT for charge:
    minimum data exchange during FFTs selected (reduces bandwidth)


 total amount of memory used by VASP on root node   202806. kBytes
========================================================================

   base      :      30000. kBytes
   nonl-proj :      36401. kBytes
   fftplans  :      55869. kBytes
   grid      :      22394. kBytes
   one-center:         56. kBytes
   wavefun   :      58086. kBytes
 
     INWAV:  cpu time    0.00: real time    0.00
 Broyden mixing: mesh for mixing (old mesh)
   NGX = 11   NGY = 11   NGZ =161
  (NGX  = 48   NGY  = 48   NGZ  =648)
  gives a total of  19481 points

 initial charge density was supplied:
 charge density of overlapping atoms calculated
 number of electron      95.0000000 magnetization 
 keeping initial charge density in first step


--------------------------------------------------------------------------------------------------------


 Maximum index for augmentation-charges        22905 (set IRDMAX)


--------------------------------------------------------------------------------------------------------


 First call to EWALD:  gamma=   0.255
 Maximum number of real-space cells 7x 7x 1
 Maximum number of reciprocal cells 1x 1x15

 FEWALD executed in parallel
    FEWALD:  cpu time    0.00: real time    0.00


----------------------------------------- Iteration    1(   1)  ---------------------------------------


    POTLOK:  cpu time    0.11: real time    0.11
    SETDIJ:  cpu time    0.10: real time    0.10
     EDDAV:  cpu time   10.06: real time   10.09
       DOS:  cpu time    0.00: real time    0.00
    --------------------------------------------
      LOOP:  cpu time   10.28: real time   10.30

 eigenvalue-minimisations  :  6084
 total energy-change (2. order) : 0.4711954E+03  (-0.4112351E+04)
 number of electron      95.0000000 magnetization 
 augmentation part       95.0000000 magnetization 

 Free energy of the ion-electron system (eV)
  ---------------------------------------------------
  alpha Z        PSCENC =       119.77329569
  Ewald energy   TEWEN  =     15895.61784852
  -Hartree energ DENC   =    -20630.14444965
  -exchange      EXHF   =         0.00000000
  -V(xc)+E(xc)   XCENC  =      -420.28367666
  PAW double counting   =      4235.41334458    -3509.29226066
  entropy T*S    EENTRO =        -0.00375990
  eigenvalues    EBANDS =       283.75531265
  atomic energy  EATOM  =      4496.35971583
  ---------------------------------------------------
  free energy    TOTEN  =       471.19537040 eV

  energy without entropy =      471.19913030  energy(sigma->0) =      471.19725035


--------------------------------------------------------------------------------------------------------




----------------------------------------- Iteration    1(   2)  ---------------------------------------


     EDDAV:  cpu time   12.20: real time   12.22
       DOS:  cpu time    0.00: real time    0.00
    --------------------------------------------
      LOOP:  cpu time   12.21: real time   12.22

 eigenvalue-minimisations  :  7938
 total energy-change (2. order) :-0.5628067E+03  (-0.5322820E+03)
 number of electron      95.0000000 magnetization 
 augmentation part       95.0000000 magnetization 

 Free energy of the ion-electron system (eV)
  ---------------------------------------------------
  alpha Z        PSCENC =       119.77329569
  Ewald energy   TEWEN  =     15895.61784852
  -Hartree energ DENC   =    -20630.14444965
  -exchange      EXHF   =         0.00000000
  -V(xc)+E(xc)   XCENC  =      -420.28367666
  PAW double counting   =      4235.41334458    -3509.29226066
  entropy T*S    EENTRO =        -0.00587382
  eigenvalues    EBANDS =      -279.04931606
  atomic energy  EATOM  =      4496.35971583
  ---------------------------------------------------
  free energy    TOTEN  =       -91.61137222 eV

  energy without entropy =      -91.60549841  energy(sigma->0) =      -91.60843531


--------------------------------------------------------------------------------------------------------




----------------------------------------- Iteration    1(   3)  ---------------------------------------


     EDDAV:  cpu time   11.07: real time   11.09
       DOS:  cpu time    0.00: real time    0.00
    --------------------------------------------
      LOOP:  cpu time   11.07: real time   11.09

 eigenvalue-minimisations  :  7104
 total energy-change (2. order) :-0.5543696E+02  (-0.5510473E+02)
 number of electron      95.0000000 magnetization 
 augmentation part       95.0000000 magnetization 

 Free energy of the ion-electron system (eV)
  ---------------------------------------------------
  alpha Z        PSCENC =       119.77329569
  Ewald energy   TEWEN  =     15895.61784852
  -Hartree energ DENC   =    -20630.14444965
  -exchange      EXHF   =         0.00000000
  -V(xc)+E(xc)   XCENC  =      -420.28367666
  PAW double counting   =      4235.41334458    -3509.29226066
  entropy T*S    EENTRO =        -0.00463359
  eigenvalues    EBANDS =      -334.48751280
  atomic energy  EATOM  =      4496.35971583
  ---------------------------------------------------
  free energy    TOTEN  =      -147.04832874 eV

  energy without entropy =     -147.04369515  energy(sigma->0) =     -147.04601195


--------------------------------------------------------------------------------------------------------




----------------------------------------- Iteration    1(   4)  ---------------------------------------


     EDDAV:  cpu time   11.20: real time   11.21
       DOS:  cpu time    0.00: real time    0.00
    --------------------------------------------
      LOOP:  cpu time   11.20: real time   11.22

 eigenvalue-minimisations  :  7160
 total energy-change (2. order) :-0.7243296E+00  (-0.7230271E+00)
 number of electron      95.0000000 magnetization 
 augmentation part       95.0000000 magnetization 

 Free energy of the ion-electron system (eV)
  ---------------------------------------------------
  alpha Z        PSCENC =       119.77329569
  Ewald energy   TEWEN  =     15895.61784852
  -Hartree energ DENC   =    -20630.14444965
  -exchange      EXHF   =         0.00000000
  -V(xc)+E(xc)   XCENC  =      -420.28367666
  PAW double counting   =      4235.41334458    -3509.29226066
  entropy T*S    EENTRO =        -0.00488354
  eigenvalues    EBANDS =      -335.21159245
  atomic energy  EATOM  =      4496.35971583
  ---------------------------------------------------
  free energy    TOTEN  =      -147.77265834 eV

  energy without entropy =     -147.76777480  energy(sigma->0) =     -147.77021657


--------------------------------------------------------------------------------------------------------




----------------------------------------- Iteration    1(   5)  ---------------------------------------


     EDDAV:  cpu time   11.27: real time   11.29
       DOS:  cpu time    0.00: real time    0.00
    CHARGE:  cpu time    0.73: real time    0.73
    MIXING:  cpu time    0.00: real time    0.00
    --------------------------------------------
      LOOP:  cpu time   12.00: real time   12.03

 eigenvalue-minimisations  :  7200
 total energy-change (2. order) :-0.1119875E-01  (-0.1119312E-01)
 number of electron      95.0000001 magnetization 
 augmentation part        6.9089465 magnetization 

 Broyden mixing:
  rms(total) = 0.21902E+01    rms(broyden)= 0.21897E+01
  rms(prec ) = 0.22422E+01
  weight for this iteration     100.00

 Free energy of the ion-electron system (eV)
  ---------------------------------------------------
  alpha Z        PSCENC =       119.77329569
  Ewald energy   TEWEN  =     15895.61784852
  -Hartree energ DENC   =    -20630.14444965
  -exchange      EXHF   =         0.00000000
  -V(xc)+E(xc)   XCENC  =      -420.28367666
  PAW double counting   =      4235.41334458    -3509.29226066
  entropy T*S    EENTRO =        -0.00489624
  eigenvalues    EBANDS =      -335.22277850
  atomic energy  EATOM  =      4496.35971583
  ---------------------------------------------------
  free energy    TOTEN  =      -147.78385709 eV

  energy without entropy =     -147.77896085  energy(sigma->0) =     -147.78140897


--------------------------------------------------------------------------------------------------------




----------------------------------------- Iteration    1(   6)  ---------------------------------------


    POTLOK:  cpu time    0.10: real time    0.10
    SETDIJ:  cpu time    0.10: real time    0.10
     EDDAV:  cpu time   11.17: real time   11.18
       DOS:  cpu time    0.00: real time    0.00
    CHARGE:  cpu time    0.72: real time    0.73
    MIXING:  cpu time    0.00: real time    0.00
    --------------------------------------------
      LOOP:  cpu time   12.10: real time   12.12

 eigenvalue-minimisations  :  7050
 total energy-change (2. order) : 0.1439287E+02  (-0.8341325E+01)
 number of electron      95.0000002 magnetization 
 augmentation part        5.5659939 magnetization 

 Broyden mixing:
  rms(total) = 0.74914E+00    rms(broyden)= 0.74820E+00
  rms(prec ) = 0.75594E+00
  weight for this iteration     100.00

 eigenvalues of (default mixing * dielectric matrix)
  average eigenvalue GAMMA=   0.8349
  0.8349

 Free energy of the ion-electron system (eV)
  ---------------------------------------------------
  alpha Z        PSCENC =       119.77329569
  Ewald energy   TEWEN  =     15895.61784852
  -Hartree energ DENC   =    -20803.65153608
  -exchange      EXHF   =         0.00000000
  -V(xc)+E(xc)   XCENC  =      -408.11524301
  PAW double counting   =      4991.16311143    -4268.12868457
  entropy T*S    EENTRO =        -0.00233782
  eigenvalues    EBANDS =      -156.40716197
  atomic energy  EATOM  =      4496.35971583
  ---------------------------------------------------
  free energy    TOTEN  =      -133.39099198 eV

  energy without entropy =     -133.38865415  energy(sigma->0) =     -133.38982306


--------------------------------------------------------------------------------------------------------




----------------------------------------- Iteration    1(   7)  ---------------------------------------


    POTLOK:  cpu time    0.10: real time    0.10
    SETDIJ:  cpu time    0.10: real time    0.10
     EDDAV:  cpu time   10.68: real time   10.70
       DOS:  cpu time    0.00: real time    0.00
    CHARGE:  cpu time    0.73: real time    0.73
    MIXING:  cpu time    0.01: real time    0.01
    --------------------------------------------
      LOOP:  cpu time   11.62: real time   11.63

 eigenvalue-minimisations  :  6744
 total energy-change (2. order) : 0.1223859E+00  (-0.1786034E+00)
 number of electron      95.0000002 magnetization 
 augmentation part        5.6084507 magnetization 

 Broyden mixing:
  rms(total) = 0.45720E+00    rms(broyden)= 0.45719E+00
  rms(prec ) = 0.46206E+00
  weight for this iteration     100.00

 eigenvalues of (default mixing * dielectric matrix)
  average eigenvalue GAMMA=   1.6412
  0.9720  2.3104

 Free energy of the ion-electron system (eV)
  ---------------------------------------------------
  alpha Z        PSCENC =       119.77329569
  Ewald energy   TEWEN  =     15895.61784852
  -Hartree energ DENC   =    -20800.97410035
  -exchange      EXHF   =         0.00000000
  -V(xc)+E(xc)   XCENC  =      -407.83684123
  PAW double counting   =      5242.35472596    -4518.86775463
  entropy T*S    EENTRO =        -0.00461049
  eigenvalues    EBANDS =      -159.69088540
  atomic energy  EATOM  =      4496.35971583
  ---------------------------------------------------
  free energy    TOTEN  =      -133.26860609 eV

  energy without entropy =     -133.26399560  energy(sigma->0) =     -133.26630084


--------------------------------------------------------------------------------------------------------




----------------------------------------- Iteration    1(   8)  ---------------------------------------


    POTLOK:  cpu time    0.11: real time    0.11
    SETDIJ:  cpu time    0.10: real time    0.10
     EDDAV:  cpu time   11.01: real time   11.02
       DOS:  cpu time    0.00: real time    0.00
    CHARGE:  cpu time    0.73: real time    0.74
    MIXING:  cpu time    0.01: real time    0.01
    --------------------------------------------
      LOOP:  cpu time   11.96: real time   11.97

 eigenvalue-minimisations  :  7072
 total energy-change (2. order) : 0.9072349E-01  (-0.5525923E-01)
 number of electron      95.0000002 magnetization 
 augmentation part        5.6617711 magnetization 

 Broyden mixing:
  rms(total) = 0.86813E-01    rms(broyden)= 0.86763E-01
  rms(prec ) = 0.10547E+00
  weight for this iteration     100.00

 eigenvalues of (default mixing * dielectric matrix)
  average eigenvalue GAMMA=   1.3710
  2.4352  0.9102  0.7675

 Free energy of the ion-electron system (eV)
  ---------------------------------------------------
  alpha Z        PSCENC =       119.77329569
  Ewald energy   TEWEN  =     15895.61784852
  -Hartree energ DENC   =    -20805.57336840
  -exchange      EXHF   =         0.00000000
  -V(xc)+E(xc)   XCENC  =      -406.49755516
  PAW double counting   =      5679.64723971    -4955.81205675
  entropy T*S    EENTRO =        -0.00272297
  eigenvalues    EBANDS =      -156.69027907
  atomic energy  EATOM  =      4496.35971583
  ---------------------------------------------------
  free energy    TOTEN  =      -133.17788260 eV

  energy without entropy =     -133.17515963  energy(sigma->0) =     -133.17652111


--------------------------------------------------------------------------------------------------------




----------------------------------------- Iteration    1(   9)  ---------------------------------------


    POTLOK:  cpu time    0.10: real time    0.10
    SETDIJ:  cpu time    0.11: real time    0.11
     EDDAV:  cpu time   10.97: real time   10.98
       DOS:  cpu time    0.00: real time    0.00
    CHARGE:  cpu time    0.75: real time    0.75
    MIXING:  cpu time    0.00: real time    0.00
    --------------------------------------------
      LOOP:  cpu time   11.94: real time   11.96

 eigenvalue-minimisations  :  6940
 total energy-change (2. order) : 0.2523576E-01  (-0.1120374E-01)
 number of electron      95.0000002 magnetization 
 augmentation part        5.6418049 magnetization 

 Broyden mixing:
  rms(total) = 0.51866E-01    rms(broyden)= 0.51865E-01
  rms(prec ) = 0.52736E-01
  weight for this iteration     100.00

 eigenvalues of (default mixing * dielectric matrix)
  average eigenvalue GAMMA=   1.3908
  2.4581  1.0226  1.0226  1.0597

 Free energy of the ion-electron system (eV)
  ---------------------------------------------------
  alpha Z        PSCENC =       119.77329569
  Ewald energy   TEWEN  =     15895.61784852
  -Hartree energ DENC   =    -20809.66191940
  -exchange      EXHF   =         0.00000000
  -V(xc)+E(xc)   XCENC  =      -406.12124287
  PAW double counting   =      5705.73813794    -4981.94206650
  entropy T*S    EENTRO =        -0.00414988
  eigenvalues    EBANDS =      -152.91226618
  atomic energy  EATOM  =      4496.35971583
  ---------------------------------------------------
  free energy    TOTEN  =      -133.15264684 eV

  energy without entropy =     -133.14849697  energy(sigma->0) =     -133.15057190


--------------------------------------------------------------------------------------------------------




----------------------------------------- Iteration    1(  10)  ---------------------------------------


    POTLOK:  cpu time    0.10: real time    0.10
    SETDIJ:  cpu time    0.10: real time    0.10
     EDDAV:  cpu time   11.00: real time   11.02
       DOS:  cpu time    0.00: real time    0.00
    CHARGE:  cpu time    0.73: real time    0.73
    MIXING:  cpu time    0.01: real time    0.01
    --------------------------------------------
      LOOP:  cpu time   11.95: real time   11.96

 eigenvalue-minimisations  :  6916
 total energy-change (2. order) : 0.1317325E-02  (-0.3589782E-02)
 number of electron      95.0000002 magnetization 
 augmentation part        5.6237696 magnetization 

 Broyden mixing:
  rms(total) = 0.24795E-01    rms(broyden)= 0.24777E-01
  rms(prec ) = 0.25234E-01
  weight for this iteration     100.00

 eigenvalues of (default mixing * dielectric matrix)
  average eigenvalue GAMMA=   1.2841
  2.5019  1.7085  0.9065  0.9065  0.3970

 Free energy of the ion-electron system (eV)
  ---------------------------------------------------
  alpha Z        PSCENC =       119.77329569
  Ewald energy   TEWEN  =     15895.61784852
  -Hartree energ DENC   =    -20811.40387451
  -exchange      EXHF   =         0.00000000
  -V(xc)+E(xc)   XCENC  =      -405.96491008
  PAW double counting   =      5695.04982632    -4971.28448106
  entropy T*S    EENTRO =        -0.00411130
  eigenvalues    EBANDS =      -151.29463893
  atomic energy  EATOM  =      4496.35971583
  ---------------------------------------------------
  free energy    TOTEN  =      -133.15132952 eV

  energy without entropy =     -133.14721822  energy(sigma->0) =     -133.14927387


--------------------------------------------------------------------------------------------------------




----------------------------------------- Iteration    1(  11)  ---------------------------------------


    POTLOK:  cpu time    0.11: real time    0.11
    SETDIJ:  cpu time    0.12: real time    0.12
     EDDAV:  cpu time   11.08: real time   11.10
       DOS:  cpu time    0.00: real time    0.00
    CHARGE:  cpu time    0.75: real time    0.75
    MIXING:  cpu time    0.00: real time    0.00
    --------------------------------------------
      LOOP:  cpu time   12.06: real time   12.08

 eigenvalue-minimisations  :  7016
 total energy-change (2. order) :-0.9587244E-03  (-0.3736894E-03)
 number of electron      95.0000002 magnetization 
 augmentation part        5.6236224 magnetization 

 Broyden mixing:
  rms(total) = 0.16071E-01    rms(broyden)= 0.16069E-01
  rms(prec ) = 0.16274E-01
  weight for this iteration     100.00

 eigenvalues of (default mixing * dielectric matrix)
  average eigenvalue GAMMA=   1.3860
  2.7301  2.2091  0.9912  0.8491  0.8491  0.6872

 Free energy of the ion-electron system (eV)
  ---------------------------------------------------
  alpha Z        PSCENC =       119.77329569
  Ewald energy   TEWEN  =     15895.61784852
  -Hartree energ DENC   =    -20811.74493902
  -exchange      EXHF   =         0.00000000
  -V(xc)+E(xc)   XCENC  =      -405.90334028
  PAW double counting   =      5673.57376373    -4949.81691179
  entropy T*S    EENTRO =        -0.00419995
  eigenvalues    EBANDS =      -151.00752097
  atomic energy  EATOM  =      4496.35971583
  ---------------------------------------------------
  free energy    TOTEN  =      -133.15228824 eV

  energy without entropy =     -133.14808829  energy(sigma->0) =     -133.15018827


--------------------------------------------------------------------------------------------------------




----------------------------------------- Iteration    1(  12)  ---------------------------------------


    POTLOK:  cpu time    0.10: real time    0.10
    SETDIJ:  cpu time    0.10: real time    0.10
     EDDAV:  cpu time   12.53: real time   12.55
       DOS:  cpu time    0.00: real time    0.00
    CHARGE:  cpu time    0.74: real time    0.74
    MIXING:  cpu time    0.00: real time    0.00
    --------------------------------------------
      LOOP:  cpu time   13.47: real time   13.50

 eigenvalue-minimisations  :  8232
 total energy-change (2. order) :-0.1151026E-03  (-0.1217699E-03)
 number of electron      95.0000002 magnetization 
 augmentation part        5.6211251 magnetization 

 Broyden mixing:
  rms(total) = 0.74872E-02    rms(broyden)= 0.74864E-02
  rms(prec ) = 0.76396E-02
  weight for this iteration     100.00

 eigenvalues of (default mixing * dielectric matrix)
  average eigenvalue GAMMA=   1.3833
  2.8417  2.4837  0.9720  0.9720  0.8851  0.8851  0.6437

 Free energy of the ion-electron system (eV)
  ---------------------------------------------------
  alpha Z        PSCENC =       119.77329569
  Ewald energy   TEWEN  =     15895.61784852
  -Hartree energ DENC   =    -20812.09250490
  -exchange      EXHF   =         0.00000000
  -V(xc)+E(xc)   XCENC  =      -405.84692254
  PAW double counting   =      5653.22589683    -4929.48600974
  entropy T*S    EENTRO =        -0.00420322
  eigenvalues    EBANDS =      -150.69951982
  atomic energy  EATOM  =      4496.35971583
  ---------------------------------------------------
  free energy    TOTEN  =      -133.15240335 eV

  energy without entropy =     -133.14820013  energy(sigma->0) =     -133.15030174


--------------------------------------------------------------------------------------------------------




----------------------------------------- Iteration    1(  13)  ---------------------------------------


    POTLOK:  cpu time    0.10: real time    0.10
    SETDIJ:  cpu time    0.11: real time    0.11
     EDDAV:  cpu time   11.06: real time   11.08
       DOS:  cpu time    0.00: real time    0.00
    CHARGE:  cpu time    0.73: real time    0.73
    MIXING:  cpu time    0.00: real time    0.00
    --------------------------------------------
      LOOP:  cpu time   12.02: real time   12.04

 eigenvalue-minimisations  :  6970
 total energy-change (2. order) : 0.3559191E-04  (-0.1125267E-03)
 number of electron      95.0000002 magnetization 
 augmentation part        5.6246532 magnetization 

 Broyden mixing:
  rms(total) = 0.28540E-02    rms(broyden)= 0.28486E-02
  rms(prec ) = 0.29595E-02
  weight for this iteration     100.00

 eigenvalues of (default mixing * dielectric matrix)
  average eigenvalue GAMMA=   1.2758
  2.8791  2.4912  0.9430  0.9430  0.8836  0.8836  0.5914  0.5914

 Free energy of the ion-electron system (eV)
  ---------------------------------------------------
  alpha Z        PSCENC =       119.77329569
  Ewald energy   TEWEN  =     15895.61784852
  -Hartree energ DENC   =    -20811.70263666
  -exchange      EXHF   =         0.00000000
  -V(xc)+E(xc)   XCENC  =      -405.87034170
  PAW double counting   =      5645.04218128    -4921.29784214
  entropy T*S    EENTRO =        -0.00419135
  eigenvalues    EBANDS =      -151.07039722
  atomic energy  EATOM  =      4496.35971583
  ---------------------------------------------------
  free energy    TOTEN  =      -133.15236775 eV

  energy without entropy =     -133.14817640  energy(sigma->0) =     -133.15027208


--------------------------------------------------------------------------------------------------------




----------------------------------------- Iteration    1(  14)  ---------------------------------------


    POTLOK:  cpu time    0.10: real time    0.10
    SETDIJ:  cpu time    0.10: real time    0.10
     EDDAV:  cpu time   10.77: real time   10.79
       DOS:  cpu time    0.00: real time    0.00
    --------------------------------------------
      LOOP:  cpu time   10.98: real time   11.00

 eigenvalue-minimisations  :  6726
 total energy-change (2. order) : 0.6507176E-05  (-0.7595334E-05)
 number of electron      95.0000002 magnetization 
 augmentation part        5.6246532 magnetization 

 Free energy of the ion-electron system (eV)
  ---------------------------------------------------
  alpha Z        PSCENC =       119.77329569
  Ewald energy   TEWEN  =     15895.61784852
  -Hartree energ DENC   =    -20811.68264202
  -exchange      EXHF   =         0.00000000
  -V(xc)+E(xc)   XCENC  =      -405.87206314
  PAW double counting   =      5644.29525398    -4920.55077646
  entropy T*S    EENTRO =        -0.00419046
  eigenvalues    EBANDS =      -151.08880319
  atomic energy  EATOM  =      4496.35971583
  ---------------------------------------------------
  free energy    TOTEN  =      -133.15236125 eV

  energy without entropy =     -133.14817078  energy(sigma->0) =     -133.15026601


--------------------------------------------------------------------------------------------------------




 average (electrostatic) potential at core
  the test charge radii are     0.7215  1.0714  1.0406
  (the norm of the test charge is              1.0000)
       1 -70.1810       2 -70.2158       3 -70.1796       4 -70.2723       5 -70.1944
       6 -70.2110       7 -70.2099       8 -70.1920       9 -70.2714      10 -36.0472
      11 -35.8867      12 -35.8848      13 -36.0470      14 -35.8681      15 -35.8705
      16 -35.9003      17 -35.9000      18 -35.8689      19 -35.8669      20 -74.7683
      21 -74.6770      22 -74.7825      23 -74.7010      24 -74.6770      25 -74.7011
      26 -74.7825
 
 
 
 E-fermi :   6.0861     XC(G=0): -10.1704     alpha+bet :-12.1509


 k-point     1 :       0.0000    0.0000    0.0000
  band No.  band energies     occupation 
      1     -14.4129      2.00000
      2     -14.3365      2.00000
      3     -14.2374      2.00000
      4     -14.1061      2.00000
      5     -13.9482      2.00000
      6     -13.7813      2.00000
      7     -13.6212      2.00000
      8     -13.4852      2.00000
      9     -13.4095      2.00000
     10      -3.8214      2.00000
     11      -3.4666      2.00000
     12      -3.0387      2.00000
     13      -2.4707      2.00000
     14      -1.9138      2.00000
     15      -1.8966      2.00000
     16      -1.5688      2.00000
     17      -1.4476      2.00000
     18      -0.9046      2.00000
     19      -0.8114      2.00000
     20      -0.2119      2.00000
     21       0.0751      2.00000
     22       0.7206      2.00000
     23       0.8890      2.00000
     24       1.6162      2.00000
     25       1.9525      2.00000
     26       2.1373      2.00000
     27       2.1403      2.00000
     28       2.1845      2.00000
     29       2.1876      2.00000
     30       2.2363      2.00000
     31       2.2392      2.00000
     32       2.2895      2.00000
     33       2.3022      2.00000
     34       2.3049      2.00000
     35       2.3823      2.00000
     36       2.3846      2.00000
     37       2.4651      2.00000
     38       2.4671      2.00000
     39       2.5434      2.00000
     40       2.5450      2.00000
     41       2.6112      2.00000
     42       2.6127      2.00000
     43       2.6407      2.00000
     44       2.6416      2.00000
     45       3.1333      2.00000
     46       4.3317      2.00000
     47       5.6386      2.00000
     48       6.8004      0.00000
     49       6.9129      0.00000
     50       7.6629      0.00000
     51       7.8335      0.00000
     52       8.7066      0.00000
     53       8.8114      0.00000
     54       9.6375      0.00000
     55       9.6826      0.00000
     56      10.1803      0.00000
     57      10.2675      0.00000
     58      10.4954      0.00000
     59      11.5276      0.00000
     60      13.0005      0.00000
     61      14.0192      0.00000
     62      14.0228      0.00000

 k-point     2 :       0.0769   -0.0000    0.0000
  band No.  band energies     occupation 
      1     -14.3607      2.00000
      2     -14.2858      2.00000
      3     -14.1891      2.00000
      4     -14.0611      2.00000
      5     -13.9073      2.00000
      6     -13.7448      2.00000
      7     -13.5892      2.00000
      8     -13.4570      2.00000
      9     -13.3840      2.00000
     10      -3.6913      2.00000
     11      -3.3368      2.00000
     12      -2.9096      2.00000
     13      -2.3440      2.00000
     14      -1.8327      2.00000
     15      -1.7913      2.00000
     16      -1.4793      2.00000
     17      -1.3713      2.00000
     18      -0.8499      2.00000
     19      -0.7243      2.00000
     20      -0.1649      2.00000
     21       0.1034      2.00000
     22       0.7786      2.00000
     23       0.8570      2.00000
     24       1.5276      2.00000
     25       1.8701      2.00000
     26       1.9063      2.00000
     27       1.9597      2.00000
     28       2.0214      2.00000
     29       2.0958      2.00000
     30       2.0970      2.00000
     31       2.1433      2.00000
     32       2.1887      2.00000
     33       2.1954      2.00000
     34       2.2519      2.00000
     35       2.2618      2.00000
     36       2.3112      2.00000
     37       2.3381      2.00000
     38       2.3424      2.00000
     39       2.3656      2.00000
     40       2.4159      2.00000
     41       2.4257      2.00000
     42       2.5044      2.00000
     43       2.5727      2.00000
     44       2.6022      2.00000
     45       3.2621      2.00000
     46       4.4675      2.00000
     47       5.7968      2.00000
     48       7.0156      0.00000
     49       7.2400      0.00000
     50       7.8901      0.00000
     51       8.0664      0.00000
     52       8.8922      0.00000
     53       9.0221      0.00000
     54       9.8481      0.00000
     55       9.9008      0.00000
     56      10.4399      0.00000
     57      10.5297      0.00000
     58      10.7226      0.00000
     59      11.6466      0.00000
     60      13.0537      0.00000
     61      13.9611      0.00000
     62      13.9766      0.00000

 k-point     3 :       0.1538    0.0000    0.0000
  band No.  band energies     occupation 
      1     -14.2111      2.00000
      2     -14.1407      2.00000
      3     -14.0515      2.00000
      4     -13.9334      2.00000
      5     -13.7916      2.00000
      6     -13.6424      2.00000
      7     -13.4998      2.00000
      8     -13.3788      2.00000
      9     -13.3135      2.00000
     10      -3.3017      2.00000
     11      -2.9481      2.00000
     12      -2.5234      2.00000
     13      -1.9672      2.00000
     14      -1.5964      2.00000
     15      -1.5069      2.00000
     16      -1.2089      2.00000
     17      -1.1624      2.00000
     18      -0.6990      2.00000
     19      -0.5237      2.00000
     20      -0.0250      2.00000
     21       0.1097      2.00000
     22       0.6499      2.00000
     23       0.8724      2.00000
     24       1.2183      2.00000
     25       1.3147      2.00000
     26       1.3513      2.00000
     27       1.3968      2.00000
     28       1.4860      2.00000
     29       1.5236      2.00000
     30       1.6855      2.00000
     31       1.8202      2.00000
     32       1.9776      2.00000
     33       1.9778      2.00000
     34       2.0259      2.00000
     35       2.0791      2.00000
     36       2.0989      2.00000
     37       2.1470      2.00000
     38       2.1892      2.00000
     39       2.2293      2.00000
     40       2.3144      2.00000
     41       2.3950      2.00000
     42       2.4646      2.00000
     43       2.4950      2.00000
     44       2.5895      2.00000
     45       3.5920      2.00000
     46       4.8265      2.00000
     47       6.1910      0.00301
     48       7.5074      0.00000
     49       8.0021      0.00000
     50       8.4838      0.00000
     51       8.6327      0.00000
     52       9.3522      0.00000
     53       9.5380      0.00000
     54      10.3487      0.00000
     55      10.4236      0.00000
     56      11.0469      0.00000
     57      11.1513      0.00000
     58      11.3178      0.00000
     59      11.3656      0.00000
     60      11.6502      0.00000
     61      11.9170      0.00000
     62      12.0985      0.00000

 k-point     4 :       0.2308   -0.0000    0.0000
  band No.  band energies     occupation 
      1     -13.9859      2.00000
      2     -13.9229      2.00000
      3     -13.8458      2.00000
      4     -13.7442      2.00000
      5     -13.6219      2.00000
      6     -13.4939      2.00000
      7     -13.3722      2.00000
      8     -13.2688      2.00000
      9     -13.2155      2.00000
     10      -2.6544      2.00000
     11      -2.3027      2.00000
     12      -1.8840      2.00000
     13      -1.3636      2.00000
     14      -1.2361      2.00000
     15      -1.1390      2.00000
     16      -0.9094      2.00000
     17      -0.8206      2.00000
     18      -0.5167      2.00000
     19      -0.4267      2.00000
     20      -0.1437      2.00000
     21       0.0756      2.00000
     22       0.2418      2.00000
     23       0.4792      2.00000
     24       0.5315      2.00000
     25       0.5949      2.00000
     26       0.7037      2.00000
     27       0.7866      2.00000
     28       1.0455      2.00000
     29       1.2456      2.00000
     30       1.5176      2.00000
     31       1.7277      2.00000
     32       1.7811      2.00000
     33       1.8185      2.00000
     34       1.8675      2.00000
     35       1.9220      2.00000
     36       1.9456      2.00000
     37       1.9915      2.00000
     38       2.0666      2.00000
     39       2.0757      2.00000
     40       2.1629      2.00000
     41       2.2453      2.00000
     42       2.3166      2.00000
     43       2.3480      2.00000
     44       3.1023      2.00000
     45       4.1315      2.00000
     46       5.3794      2.00000
     47       6.7471      0.00000
     48       8.0669      0.00000
     49       8.7894      0.00000
     50       8.9157      0.00000
     51       9.0845      0.00000
     52       9.1903      0.00000
     53       9.4473      0.00000
     54       9.5088      0.00000
     55       9.9205      0.00000
     56      10.0595      0.00000
     57      10.2193      0.00000
     58      10.7322      0.00000
     59      10.9987      0.00000
     60      11.0418      0.00000
     61      11.5701      0.00000
     62      11.7742      0.00000

 k-point     5 :       0.3077    0.0000    0.0000
  band No.  band energies     occupation 
      1     -13.7210      2.00000
      2     -13.6684      2.00000
      3     -13.6079      2.00000
      4     -13.5286      2.00000
      5     -13.4324      2.00000
      6     -13.3324      2.00000
      7     -13.2377      2.00000
      8     -13.1568      2.00000
      9     -13.1185      2.00000
     10      -1.7528      2.00000
     11      -1.4064      2.00000
     12      -1.0211      2.00000
     13      -0.9831      2.00000
     14      -0.9146      2.00000
     15      -0.8640      2.00000
     16      -0.8153      2.00000
     17      -0.7349      2.00000
     18      -0.6744      2.00000
     19      -0.5214      2.00000
     20      -0.4338      2.00000
     21      -0.2983      2.00000
     22      -0.2079      2.00000
     23      -0.1601      2.00000
     24       0.0978      2.00000
     25       0.2916      2.00000
     26       0.5972      2.00000
     27       0.7585      2.00000
     28       1.1248      2.00000
     29       1.3665      2.00000
     30       1.4615      2.00000
     31       1.6085      2.00000
     32       1.6580      2.00000
     33       1.7076      2.00000
     34       1.7630      2.00000
     35       1.7688      2.00000
     36       1.8338      2.00000
     37       1.9184      2.00000
     38       1.9194      2.00000
     39       2.0082      2.00000
     40       2.0922      2.00000
     41       2.1646      2.00000
     42       2.1969      2.00000
     43       2.5614      2.00000
     44       3.8611      2.00000
     45       4.8775      2.00000
     46       6.0047      1.97872
     47       6.4236      0.00000
     48       6.8528      0.00000
     49       7.1933      0.00000
     50       7.6470      0.00000
     51       7.7914      0.00000
     52       8.5033      0.00000
     53       8.9133      0.00000
     54       9.3686      0.00000
     55       9.6277      0.00000
     56       9.8551      0.00000
     57      10.2140      0.00000
     58      10.2929      0.00000
     59      10.5289      0.00000
     60      10.8213      0.00000
     61      11.2405      0.00000
     62      11.5669      0.00000

 k-point     6 :       0.3846    0.0000    0.0000
  band No.  band energies     occupation 
      1     -13.4659      2.00000
      2     -13.4259      2.00000
      3     -13.3855      2.00000
      4     -13.3329      2.00000
      5     -13.2673      2.00000
      6     -13.1992      2.00000
      7     -13.1350      2.00000
      8     -13.0784      2.00000
      9     -13.0562      2.00000
     10      -1.3954      2.00000
     11      -1.2790      2.00000
     12      -1.1244      2.00000
     13      -1.1107      2.00000
     14      -1.0008      2.00000
     15      -0.9381      2.00000
     16      -0.8627      2.00000
     17      -0.7691      2.00000
     18      -0.7502      2.00000
     19      -0.5992      2.00000
     20      -0.2520      2.00000
     21      -0.1364      2.00000
     22       0.1386      2.00000
     23       0.1853      2.00000
     24       0.5154      2.00000
     25       0.7286      2.00000
     26       0.9420      2.00000
     27       1.1351      2.00000
     28       1.2664      2.00000
     29       1.3452      2.00000
     30       1.5308      2.00000
     31       1.5691      2.00000
     32       1.5808      2.00000
     33       1.6367      2.00000
     34       1.6469      2.00000
     35       1.7082      2.00000
     36       1.7947      2.00000
     37       1.7951      2.00000
     38       1.8844      2.00000
     39       1.9693      2.00000
     40       2.0426      2.00000
     41       2.0754      2.00000
     42       2.5029      2.00000
[...]
     58      10.1818      0.00000
     59      10.3191      0.00000
     60      10.5238      0.00000
     61      10.6143      0.00000
     62      10.6746      0.00000

 k-point    47 :      -0.3846    0.3846    0.0000
  band No.  band energies     occupation 
      1     -13.5130      2.00000
      2     -13.4840      2.00000
      3     -13.4464      2.00000
      4     -13.3887      2.00000
      5     -13.3220      2.00000
      6     -13.2489      2.00000
      7     -13.1821      2.00000
      8     -13.1253      2.00000
      9     -13.0925      2.00000
     10      -1.4524      2.00000
     11      -1.3439      2.00000
     12      -1.1905      2.00000
     13      -1.1591      2.00000
     14      -1.0589      2.00000
     15      -0.9992      2.00000
     16      -0.9204      2.00000
     17      -0.8220      2.00000
     18      -0.7990      2.00000
     19      -0.5037      2.00000
     20      -0.2224      2.00000
     21      -0.1177      2.00000
     22       0.0563      2.00000
     23       0.3043      2.00000
     24       0.4336      2.00000
     25       0.8162      2.00000
     26       0.8824      2.00000
     27       1.1288      2.00000
     28       1.2596      2.00000
     29       1.3415      2.00000
     30       1.4664      2.00000
     31       1.5076      2.00000
     32       1.5357      2.00000
     33       1.5601      2.00000
     34       1.6368      2.00000
     35       1.6746      2.00000
     36       1.7247      2.00000
     37       1.7894      2.00000
     38       1.8205      2.00000
     39       1.9089      2.00000
     40       1.9843      2.00000
     41       2.0287      2.00000
     42       2.5254      2.00000
     43       3.5791      2.00000
     44       4.3837      2.00000
     45       4.6522      2.00000
     46       4.8631      2.00000
     47       5.1862      2.00000
     48       5.7716      2.00000
     49       5.9210      2.00000
     50       6.5129      0.00000
     51       7.0536      0.00000
     52       7.4628      0.00000
     53       8.2043      0.00000
     54       8.6404      0.00000
     55       9.4086      0.00000
     56       9.8552      0.00000
     57      10.0765      0.00000
     58      10.2968      0.00000
     59      10.5057      0.00000
     60      10.7916      0.00000
     61      11.0838      0.00000
     62      11.3267      0.00000

 k-point    48 :       0.4615    0.4615    0.0000
  band No.  band energies     occupation 
      1     -13.2824      2.00000
      2     -13.2731      2.00000
      3     -13.2610      2.00000
      4     -13.2335      2.00000
      5     -13.2017      2.00000
      6     -13.1644      2.00000
      7     -13.1306      2.00000
      8     -13.0996      2.00000
      9     -13.0838      2.00000
     10      -1.7369      2.00000
     11      -1.6263      2.00000
     12      -1.4711      2.00000
     13      -1.2865      2.00000
     14      -1.2725      2.00000
     15      -1.1887      2.00000
     16      -1.1365      2.00000
     17      -1.0797      2.00000
     18      -1.0470      2.00000
     19       0.5358      2.00000
     20       0.5626      2.00000
     21       0.6835      2.00000
     22       0.7707      2.00000
     23       0.8888      2.00000
     24       1.0575      2.00000
     25       1.0646      2.00000
     26       1.2117      2.00000
     27       1.2712      2.00000
     28       1.3183      2.00000
     29       1.3785      2.00000
     30       1.4354      2.00000
     31       1.5530      2.00000
     32       1.5975      2.00000
     33       1.6839      2.00000
     34       1.7430      2.00000
     35       1.7781      2.00000
     36       1.7789      2.00000
     37       1.8120      2.00000
     38       1.8193      2.00000
     39       2.0816      2.00000
     40       2.1034      2.00000
     41       2.4916      2.00000
     42       2.5775      2.00000
     43       3.0631      2.00000
     44       3.1384      2.00000
     45       3.7505      2.00000
     46       3.9067      2.00000
     47       4.5411      2.00000
     48       4.9268      2.00000
     49       5.6524      2.00000
     50       5.9625      1.99998
     51       6.7946      0.00000
     52       7.3365      0.00000
     53       7.6348      0.00000
     54       8.3479      0.00000
     55       8.8458      0.00000
     56       9.4021      0.00000
     57       9.6893      0.00000
     58      10.1767      0.00000
     59      10.2654      0.00000
     60      10.3979      0.00000
     61      10.5754      0.00000
     62      10.6094      0.00000

 k-point    49 :      -0.4615    0.4615    0.0000
  band No.  band energies     occupation 
      1     -13.3286      2.00000
      2     -13.3147      2.00000
      3     -13.2974      2.00000
      4     -13.2642      2.00000
      5     -13.2255      2.00000
      6     -13.1813      2.00000
      7     -13.1412      2.00000
      8     -13.1054      2.00000
      9     -13.0866      2.00000
     10      -1.7573      2.00000
     11      -1.6463      2.00000
     12      -1.4901      2.00000
     13      -1.3088      2.00000
     14      -1.3026      2.00000
     15      -1.2163      2.00000
     16      -1.1551      2.00000
     17      -1.0956      2.00000
     18      -1.0606      2.00000
     19       0.3556      2.00000
     20       0.4869      2.00000
     21       0.6949      2.00000
     22       0.8857      2.00000
     23       0.9004      2.00000
     24       0.9214      2.00000
     25       1.0713      2.00000
     26       1.1624      2.00000
     27       1.2226      2.00000
     28       1.3964      2.00000
     29       1.4377      2.00000
     30       1.4734      2.00000
     31       1.4905      2.00000
     32       1.5675      2.00000
     33       1.6527      2.00000
     34       1.6558      2.00000
     35       1.7182      2.00000
     36       1.7520      2.00000
     37       1.8408      2.00000
     38       1.9165      2.00000
     39       1.9612      2.00000
     40       2.2335      2.00000
     41       2.5359      2.00000
     42       2.8455      2.00000
     43       2.9591      2.00000
     44       3.2709      2.00000
     45       3.7737      2.00000
     46       3.9352      2.00000
     47       4.5108      2.00000
     48       5.0153      2.00000
     49       5.4708      2.00000
     50       6.2385      0.00036
     51       6.4978      0.00000
     52       7.2058      0.00000
     53       7.7057      0.00000
     54       8.4701      0.00000
     55       8.6967      0.00000
     56       9.6300      0.00000
     57       9.9154      0.00000
     58      10.1445      0.00000
     59      10.5360      0.00000
     60      10.7461      0.00000
     61      10.8021      0.00000
     62      11.3360      0.00000


--------------------------------------------------------------------------------------------------------


 soft charge-density along one line, spin component           1
         0         1         2         3         4         5         6         7         8         9
 total charge-density along one line
 
 pseudopotential strength for first ion, spin component:           1
 12.196   0.000 -14.841   0.000  -0.000   0.000  -0.000   0.000   0.000   0.000   0.000   0.000   0.000   0.000  -0.000   0.000
-14.841   0.000  18.078   0.000   0.000   0.000   0.000   0.000  -0.000   0.000  -0.000   0.000  -0.000   0.000   0.000   0.000
 -0.000   0.000   0.000   0.000  -8.334   0.000  -0.000   0.000  -0.000   0.000   9.982   0.000   0.000   0.000   0.000   0.000
 -0.000   0.000   0.000   0.000  -0.000   0.000  -8.341   0.000   0.000   0.000   0.000   0.000   9.992   0.000  -0.000   0.000
  0.000   0.000  -0.000   0.000  -0.000   0.000   0.000   0.000  -8.334   0.000   0.000   0.000  -0.000   0.000   9.982   0.000
  0.000   0.000  -0.000   0.000   9.982   0.000   0.000   0.000   0.000   0.000 -11.795   0.000  -0.000   0.000  -0.000   0.000
  0.000   0.000  -0.000   0.000   0.000   0.000   9.992   0.000  -0.000   0.000  -0.000   0.000 -11.809   0.000   0.000   0.000
 -0.000   0.000   0.000   0.000   0.000   0.000  -0.000   0.000   9.982   0.000  -0.000   0.000   0.000   0.000 -11.795   0.000
 total augmentation occupancy for first ion, spin component:           1
  2.587   0.355   0.000  -0.000  -0.000  -0.000  -0.000   0.000
  0.355   0.066   0.000   0.000  -0.000  -0.000  -0.000   0.000
  0.000   0.000   2.149   0.000  -0.000   0.254   0.000   0.000
 -0.000   0.000   0.000   2.142  -0.000   0.000   0.261  -0.000
 -0.000  -0.000  -0.000  -0.000   2.149   0.000  -0.000   0.254
 -0.000  -0.000   0.254   0.000   0.000   0.033   0.000   0.000
 -0.000  -0.000   0.000   0.261  -0.000   0.000   0.034  -0.000
  0.000   0.000   0.000  -0.000   0.254   0.000  -0.000   0.033


------------------------ aborting loop because EDIFF is reached ----------------------------------------


    CHARGE:  cpu time    0.72: real time    0.72
    FORLOC:  cpu time    0.03: real time    0.03
    FORNL :  cpu time    6.37: real time    6.37
    STRESS:  cpu time    7.20: real time    7.21
    FORCOR:  cpu time    0.13: real time    0.13
    FORHAR:  cpu time    0.06: real time    0.06
    MIXING:  cpu time    0.00: real time    0.00
    OFIELD:  cpu time    0.00: real time    0.00

  FORCE on cell =-STRESS in cart. coord.  units (eV):
  Direction    XX          YY          ZZ          XY          YZ          ZX
  --------------------------------------------------------------------------------------
  Alpha Z   119.77330   119.77330   119.77330
  Ewald   19030.62528 19023.16276-21473.60630     6.46297  -702.06994   405.34023
  Hartree 20632.90509 20625.02736-19764.73797     6.82225  -700.76717   404.58827
  E(xc)    -387.15580  -387.16265  -386.99111     0.00592     0.00018    -0.00010
  Local  -40797.05921-40781.71087 40104.12308   -13.29180  1402.85833  -809.94082
  n-local   -29.29936   -37.00920   -32.95980    -2.28522     1.52669     2.61787
  augment    53.32243    53.32494    52.54444    -0.00220    -0.01505     0.00871
  Kinetic  1387.27878  1361.33897  1360.65372    -7.50543     0.23134     1.03314
  Fock        0.00000     0.00000     0.00000     0.00000     0.00000     0.00000
  -------------------------------------------------------------------------------------
  Total      -6.46745    -6.39745   -21.20064    -0.06062    -0.25597     0.14778
  in kB     -30.69412   -30.36188  -100.61687    -0.28771    -1.21481     0.70137
  external pressure =      -53.89 kB  Pullay stress =        0.00 kB


 VOLUME and BASIS-vectors are now :
 -----------------------------------------------------------------------------
  energy-cutoff  :      520.00
  volume of cell :      337.59
      direct lattice vectors                 reciprocal lattice vectors
     2.592590006 -1.495275227  0.051895165     0.385650814 -0.000236650 -0.003628516
     0.001348276  2.992885737 -0.051895149     0.192620462  0.334101828  0.003628516
     0.408967606 -0.708352458 43.512639441    -0.000230217  0.000398747  0.022990483

  length of vectors
     2.993336608  2.993335925 43.520326387     0.385667956  0.385668044  0.022995093


 FORCES acting on ions
    electron-ion (+dipol)            ewald-force                    non-local-force                 convergence-correction
 -----------------------------------------------------------------------------------------------
   -.104E+02 0.180E+02 0.104E+04   0.104E+02 -.180E+02 -.104E+04   -.434E-03 0.751E-03 0.589E-01   -.210E-03 0.364E-03 0.209E-01
   0.114E-03 -.198E-03 -.101E-01   -.945E-04 0.164E-03 0.810E-02   -.138E-04 0.239E-04 0.100E-02   -.162E-04 0.280E-04 0.162E-02
   0.104E+02 -.180E+02 -.104E+04   -.104E+02 0.180E+02 0.104E+04   0.417E-03 -.723E-03 -.581E-01   0.212E-03 -.367E-03 -.210E-01
   -.138E+02 0.239E+02 0.138E+04   0.138E+02 -.239E+02 -.138E+04   -.864E-02 0.150E-01 0.882E+00   -.126E-03 0.218E-03 0.125E-01
   -.693E+01 0.120E+02 0.692E+03   0.693E+01 -.120E+02 -.692E+03   0.638E-04 -.110E-03 0.168E-02   -.252E-03 0.436E-03 0.251E-01
   -.347E+01 0.602E+01 0.347E+03   0.347E+01 -.602E+01 -.347E+03   0.264E-03 -.458E-03 -.309E-01   -.207E-03 0.358E-03 0.205E-01
   0.347E+01 -.602E+01 -.347E+03   -.347E+01 0.602E+01 0.347E+03   -.263E-03 0.455E-03 0.300E-01   0.175E-03 -.304E-03 -.174E-01
   0.693E+01 -.120E+02 -.692E+03   -.693E+01 0.120E+02 0.692E+03   -.628E-04 0.109E-03 -.285E-02   0.232E-03 -.401E-03 -.232E-01
   0.138E+02 -.239E+02 -.138E+04   -.138E+02 0.239E+02 0.138E+04   0.862E-02 -.149E-01 -.882E+00   0.141E-03 -.245E-03 -.140E-01
   -.503E+01 0.870E+01 0.500E+03   0.502E+01 -.870E+01 -.500E+03   0.364E-02 -.630E-02 -.161E+00   -.263E-04 0.456E-04 0.263E-02
   -.173E+01 0.300E+01 0.173E+03   0.173E+01 -.300E+01 -.173E+03   0.130E-03 -.224E-03 -.712E-02   -.765E-04 0.133E-03 0.765E-02
   0.173E+01 -.300E+01 -.173E+03   -.173E+01 0.300E+01 0.173E+03   -.143E-03 0.247E-03 0.734E-02   0.671E-04 -.116E-03 -.671E-02
   0.503E+01 -.870E+01 -.500E+03   -.502E+01 0.870E+01 0.500E+03   -.365E-02 0.633E-02 0.162E+00   0.316E-04 -.547E-04 -.315E-02
   -.404E+01 0.700E+01 0.403E+03   0.404E+01 -.700E+01 -.403E+03   0.724E-03 -.125E-02 -.408E-01   -.655E-04 0.113E-03 0.652E-02
   -.289E+01 0.500E+01 0.288E+03   0.289E+01 -.500E+01 -.288E+03   0.489E-03 -.847E-03 -.126E-01   -.757E-04 0.131E-03 0.755E-02
   -.579E+00 0.100E+01 0.578E+02   0.579E+00 -.100E+01 -.578E+02   0.278E-04 -.482E-04 -.757E-02   -.434E-04 0.752E-04 0.433E-02
   0.579E+00 -.100E+01 -.578E+02   -.579E+00 0.100E+01 0.578E+02   -.326E-04 0.565E-04 0.694E-02   0.329E-04 -.569E-04 -.328E-02
   0.289E+01 -.500E+01 -.288E+03   -.289E+01 0.500E+01 0.288E+03   -.506E-03 0.876E-03 0.126E-01   0.730E-04 -.126E-03 -.728E-02
   0.404E+01 -.700E+01 -.403E+03   -.404E+01 0.700E+01 0.403E+03   -.738E-03 0.128E-02 0.408E-01   0.690E-04 -.119E-03 -.686E-02
   -.897E-04 0.155E-03 -.638E-02   0.117E-04 -.203E-04 0.668E-02   0.812E-04 -.141E-03 -.506E-04   0.242E-05 -.418E-05 -.241E-03
   -.547E+01 0.947E+01 0.546E+03   0.546E+01 -.945E+01 -.545E+03   0.111E-01 -.192E-01 -.118E+01   -.411E-04 0.712E-04 0.410E-02
   -.357E+01 0.618E+01 0.356E+03   0.357E+01 -.618E+01 -.356E+03   -.955E-03 0.165E-02 0.222E+00   -.366E-04 0.634E-04 0.365E-02
   -.178E+01 0.307E+01 0.177E+03   0.177E+01 -.307E+01 -.177E+03   0.116E-02 -.201E-02 -.797E-01   -.224E-04 0.388E-04 0.223E-02
   0.547E+01 -.947E+01 -.546E+03   -.546E+01 0.945E+01 0.545E+03   -.111E-01 0.193E-01 0.118E+01   0.480E-04 -.832E-04 -.479E-02
   0.178E+01 -.307E+01 -.177E+03   -.177E+01 0.307E+01 0.177E+03   -.120E-02 0.207E-02 0.801E-01   0.275E-04 -.476E-04 -.274E-02
   0.357E+01 -.617E+01 -.356E+03   -.357E+01 0.618E+01 0.356E+03   0.105E-02 -.181E-02 -.222E+00   0.424E-04 -.735E-04 -.423E-02
 -----------------------------------------------------------------------------------------------
   0.677E-04 -.117E-03 -.374E-02   -.613E-13 0.133E-13 0.182E-11   -.296E-04 0.513E-04 -.631E-03   -.438E-04 0.758E-04 0.437E-02
 
 
 POSITION                                       TOTAL-FORCE (eV/Angst)
 -----------------------------------------------------------------------------------
      1.58630      0.24767     15.28760         0.000040     -0.000070      0.010547
      1.51205      0.37628     22.87843        -0.000010      0.000017      0.000669
      1.43778      0.50492     30.46934        -0.000043      0.000074     -0.010106
      0.74758      1.70037     12.72264         0.000093     -0.000161      0.006583
      2.42516     -1.20528     17.85564         0.000137     -0.000237     -0.000926
      0.67293      1.82967     20.31782         0.000263     -0.000455     -0.017866
      2.35116     -1.07711     25.43912        -0.000271      0.000470      0.017581
      0.59892      1.95786     27.90131        -0.000123      0.000214      0.000388
      2.27648     -0.94776     33.03435        -0.000095      0.000165     -0.006725
      1.62415      0.18210     11.46209         0.000121     -0.000209      0.007429
      1.54904      0.31221     19.08720         0.000188     -0.000326     -0.009096
      1.47505      0.44036     26.66972        -0.000202      0.000349      0.009983
      1.39990      0.57052     34.29488        -0.000123      0.000213     -0.007273
      2.46254     -1.27002     14.05678         0.000019     -0.000033      0.013524
      0.71007      1.76535     16.52090         0.000323     -0.000560     -0.009885
      2.38811     -1.14111     21.65052         0.000156     -0.000270     -0.013905
      0.63598      1.89366     24.10645        -0.000153      0.000265      0.013094
      2.31401     -1.01277     29.23605        -0.000329      0.000570      0.009859
      0.56153      2.02262     31.70019        -0.000022      0.000038     -0.013773
      2.60294     -1.51321      1.17399         0.000006     -0.000010      0.000006
      2.51544     -1.36166      8.85656         0.000148     -0.000256      0.001041
      1.68242      0.08119      6.21683         0.000051     -0.000089      0.004900
      0.84646      1.52911      3.63644        -0.000050      0.000087      0.009108
      0.50852      2.11444     36.90047        -0.000143      0.000248     -0.001183
      2.17725     -0.77588     42.12038         0.000060     -0.000105     -0.009045
      1.34135      0.67194     39.54009        -0.000041      0.000071     -0.004931
 -----------------------------------------------------------------------------------
    total drift:                               -0.000006      0.000010     -0.000004


--------------------------------------------------------------------------------------------------------



  FREE ENERGIE OF THE ION-ELECTRON SYSTEM (eV)
  ---------------------------------------------------
  free  energy   TOTEN  =      -133.16751992 eV

  energy  without entropy=     -133.16387497  energy(sigma->0) =     -133.16569745
 
 d Force = 0.1172616E-03[ 0.995E-04, 0.135E-03]  d Energy = 0.1152627E-03 0.200E-05
 d Force =-0.3971084E+01[-0.397E+01,-0.397E+01]  d Ewald  =-0.3971084E+01 0.682E-06


--------------------------------------------------------------------------------------------------------


    POTLOK:  cpu time    0.20: real time    0.20


--------------------------------------------------------------------------------------------------------


 Conjugate gradient step on ions:
 trial-energy change:   -0.000115  1 .order   -0.000117   -0.000135   -0.000100
  (g-gl).g = 0.183E-03      g.g   = 0.190E-03  gl.gl    = 0.983E-03
 g(Force)  = 0.190E-03   g(Stress)= 0.000E+00 ortho     = 0.378E-05
 gamma     =   0.18643
 trial     =   0.70797
 opt step  =   2.69564  (harmonic =   2.69564) maximal distance =0.00397167
 next E    =  -133.167662   (d E  =  -0.00026)


--------------------------------------------------------------------------------------------------------


  
 reached required accuracy - stopping structural energy minimisation
     LOOP+:  cpu time   69.66: real time   69.71
    4ORBIT:  cpu time    0.00: real time    0.00

 total amount of memory used by VASP on root node   202806. kBytes
========================================================================

   base      :      30000. kBytes
   nonl-proj :      36401. kBytes
   fftplans  :      55869. kBytes
   grid      :      22394. kBytes
   one-center:         56. kBytes
   wavefun   :      58086. kBytes
 
  
  
 General timing and accounting informations for this job:
 ========================================================
  
                  Total CPU time used (sec):     3140.790
                            User time (sec):     3118.593
                          System time (sec):       22.196
                         Elapsed time (sec):     3143.822
  
                   Maximum memory used (kb):      310980.
                   Average memory used (kb):           0.
  
                          Minor page faults:       657900
                          Major page faults:            0
                 Voluntary context switches:          766
