       N       E                     dE             d eps       ncg     rms          rms(c)
DAV:   1     0.498257981525E+03    0.49826E+03   -0.44757E+04  6296   0.136E+03
DAV:   2    -0.104674851998E+03   -0.60293E+03   -0.57687E+03  8032   0.263E+02
DAV:   3    -0.156013269013E+03   -0.51338E+02   -0.51071E+02  7384   0.831E+01
DAV:   4    -0.156624369589E+03   -0.61110E+00   -0.61004E+00  7368   0.988E+00
DAV:   5    -0.156633099524E+03   -0.87299E-02   -0.87270E-02  7560   0.116E+00    0.229E+01
DAV:   6    -0.141281984838E+03    0.15351E+02   -0.86675E+01  7512   0.320E+01    0.784E+00
DAV:   7    -0.141159447572E+03    0.12254E+00   -0.20554E+00  7016   0.619E+00    0.478E+00
DAV:   8    -0.141079992545E+03    0.79455E-01   -0.74561E-01  7432   0.468E+00    0.127E+00
DAV:   9    -0.141048352091E+03    0.31640E-01   -0.12746E-01  7248   0.165E+00    0.623E-01
DAV:  10    -0.141051612157E+03   -0.32601E-02   -0.11256E-01  7216   0.135E+00    0.449E-01
DAV:  11    -0.141048432984E+03    0.31792E-02   -0.10516E-02  7600   0.512E-01    0.262E-01
DAV:  12    -0.141048070099E+03    0.36288E-03   -0.17681E-02  7224   0.560E-01    0.175E-01
DAV:  13    -0.141047342178E+03    0.72792E-03   -0.19023E-03  8408   0.266E-01    0.103E-01
DAV:  14    -0.141046952430E+03    0.38975E-03   -0.15580E-03  7816   0.211E-01    0.301E-02
DAV:  15    -0.141046434067E+03    0.51836E-03   -0.32210E-04 10000   0.222E-01    0.247E-02
DAV:  16    -0.141046147125E+03    0.28694E-03   -0.33848E-04  7544   0.170E-01    0.262E-02
DAV:  17    -0.141045799468E+03    0.34766E-03   -0.38412E-04 10192   0.284E-01    0.300E-02
DAV:  18    -0.141045652800E+03    0.14667E-03   -0.36387E-04  8288   0.208E-01    0.265E-02
DAV:  19    -0.141045546727E+03    0.10607E-03   -0.53247E-04  8944   0.245E-01    0.263E-02
DAV:  20    -0.141045492160E+03    0.54567E-04   -0.24349E-04  7856   0.159E-01    0.244E-02
DAV:  21    -0.141045472208E+03    0.19952E-04   -0.18163E-04  7160   0.865E-02    0.119E-02
DAV:  22    -0.141045447735E+03    0.24473E-04   -0.21945E-05  5656   0.863E-02    0.110E-02
DAV:  23    -0.141045431385E+03    0.16350E-04   -0.46460E-05  7288   0.107E-01    0.782E-03
DAV:  24    -0.141045434755E+03   -0.33696E-05   -0.60676E-05  6680   0.415E-02
   1 F= -.14104543E+03 E0= -.14104385E+03  d E =-.141045E+03
       N       E                     dE             d eps       ncg     rms          rms(c)
DAV:   1    -0.141046996987E+03   -0.15656E-02   -0.21554E-02  6664   0.604E-01    0.465E-02
DAV:   2    -0.141046970038E+03    0.26949E-04   -0.17231E-03  7392   0.186E-01    0.439E-02
DAV:   3    -0.141046937636E+03    0.32401E-04   -0.21254E-04  7288   0.639E-02    0.341E-02
DAV:   4    -0.141046906934E+03    0.30702E-04   -0.91128E-05  7248   0.428E-02    0.157E-02
DAV:   5    -0.141046881872E+03    0.25062E-04   -0.47199E-05  7104   0.497E-02    0.108E-02
DAV:   6    -0.141046875479E+03    0.63928E-05   -0.25148E-05  5984   0.375E-02
   2 F= -.14104688E+03 E0= -.14104529E+03  d E =-.144072E-02
       N       E                     dE             d eps       ncg     rms          rms(c)
DAV:   1    -0.141047028461E+03   -0.14659E-03   -0.36034E-03  6664   0.248E-01    0.175E-02
DAV:   2    -0.141047023822E+03    0.46392E-05   -0.29271E-04  7384   0.717E-02    0.188E-02
DAV:   3    -0.141047014894E+03    0.89283E-05   -0.26028E-05  5960   0.255E-02    0.140E-02
DAV:   4    -0.141047003324E+03    0.11570E-04   -0.40584E-05  6784   0.369E-02    0.714E-03
DAV:   5    -0.141046998290E+03    0.50345E-05   -0.10223E-05  4808   0.260E-02    0.799E-03
DAV:   6    -0.141046994380E+03    0.39094E-05   -0.90786E-06  4504   0.240E-02
   3 F= -.14104699E+03 E0= -.14104540E+03  d E =-.155963E-02
       N       E                     dE             d eps       ncg     rms          rms(c)
DAV:   1    -0.141047376899E+03   -0.37861E-03   -0.16333E-01  6312   0.172E+00    0.558E-02
DAV:   2    -0.141047739537E+03   -0.36264E-03   -0.41783E-03  7272   0.237E-01    0.344E-02
DAV:   3    -0.141047711793E+03    0.27744E-04   -0.48446E-05  7400   0.435E-02    0.229E-02
DAV:   4    -0.141047695502E+03    0.16291E-04   -0.28563E-05  6392   0.369E-02    0.102E-02
DAV:   5    -0.141047688857E+03    0.66457E-05   -0.16010E-05  5160   0.343E-02    0.329E-03
DAV:   6    -0.141047688329E+03    0.52722E-06   -0.14478E-05  4360   0.188E-02
   4 F= -.14104769E+03 E0= -.14104608E+03  d E =-.693949E-03
       N       E                     dE             d eps       ncg     rms          rms(c)
DAV:   1    -0.141046749882E+03    0.93897E-03   -0.77902E-01  6288   0.376E+00    0.123E-01
DAV:   2    -0.141048512405E+03   -0.17625E-02   -0.20260E-02  7256   0.521E-01    0.758E-02
DAV:   3    -0.141048372583E+03    0.13982E-03   -0.19839E-04  7504   0.948E-02    0.501E-02
DAV:   4    -0.141048288330E+03    0.84252E-04   -0.16396E-04  7400   0.914E-02    0.206E-02
DAV:   5    -0.141048265008E+03    0.23323E-04   -0.96551E-05  7512   0.728E-02    0.718E-03
DAV:   6    -0.141048261065E+03    0.39429E-05   -0.45784E-05  6480   0.351E-02
   5 F= -.14104826E+03 E0= -.14104661E+03  d E =-.126668E-02
       N       E                     dE             d eps       ncg     rms          rms(c)
DAV:   1    -0.141048497045E+03   -0.23204E-03   -0.16625E-01  6336   0.181E+00    0.583E-02
DAV:   2    -0.141048880761E+03   -0.38372E-03   -0.41831E-03  7176   0.255E-01    0.318E-02
DAV:   3    -0.141048859251E+03    0.21510E-04   -0.40362E-05  7152   0.362E-02    0.219E-02
DAV:   4    -0.141048843398E+03    0.15854E-04   -0.55152E-05  6848   0.466E-02    0.794E-03
DAV:   5    -0.141048842302E+03    0.10960E-05   -0.20150E-05  5208   0.250E-02    0.780E-03
DAV:   6    -0.141048840382E+03    0.19193E-05   -0.90565E-06  4352   0.178E-02
   6 F= -.14104884E+03 E0= -.14104717E+03  d E =-.579318E-03
       N       E                     dE             d eps       ncg     rms          rms(c)
DAV:   1    -0.141046433898E+03    0.24084E-02   -0.14486E+00  6352   0.534E+00    0.167E-01
DAV:   2    -0.141049801413E+03   -0.33675E-02   -0.36469E-02  7184   0.753E-01    0.951E-02
DAV:   3    -0.141049619448E+03    0.18197E-03   -0.35308E-04  7456   0.948E-02    0.666E-02
DAV:   4    -0.141049484072E+03    0.13538E-03   -0.47786E-04  7456   0.114E-01    0.243E-02
DAV:   5    -0.141049469091E+03    0.14981E-04   -0.13066E-04  7336   0.622E-02    0.200E-02
DAV:   6    -0.141049454185E+03    0.14906E-04   -0.72898E-05  6928   0.514E-02    0.883E-03
DAV:   7    -0.141049444108E+03    0.10077E-04   -0.15774E-05  4896   0.346E-02    0.776E-03
DAV:   8    -0.141049432954E+03    0.11154E-04   -0.73662E-06  4424   0.299E-02    0.525E-03
DAV:   9    -0.141049416215E+03    0.16739E-04   -0.10032E-05  4952   0.431E-02    0.506E-03
DAV:  10    -0.141049396016E+03    0.20199E-04   -0.97124E-06  4944   0.609E-02    0.717E-03
DAV:  11    -0.141049385188E+03    0.10828E-04   -0.19650E-05  5816   0.493E-02    0.547E-03
DAV:  12    -0.141049370898E+03    0.14290E-04   -0.15795E-05  5496   0.954E-02    0.816E-03
DAV:  13    -0.141049370227E+03    0.67139E-06   -0.47089E-05  6480   0.513E-02
   7 F= -.14104937E+03 E0= -.14104763E+03  d E =-.110916E-02
       N       E                     dE             d eps       ncg     rms          rms(c)
DAV:   1    -0.141049244157E+03    0.12674E-03   -0.89565E-02  6464   0.133E+00    0.425E-02
DAV:   2    -0.141049454557E+03   -0.21040E-03   -0.23189E-03  7208   0.190E-01    0.246E-02
DAV:   3    -0.141049442324E+03    0.12233E-04   -0.24127E-05  5816   0.271E-02    0.176E-02
DAV:   4    -0.141049432708E+03    0.96157E-05   -0.42405E-05  6600   0.354E-02    0.680E-03
DAV:   5    -0.141049431751E+03    0.95694E-06   -0.10665E-05  4520   0.178E-02    0.632E-03
DAV:   6    -0.141049430419E+03    0.13319E-05   -0.68864E-06  4288   0.160E-02
   8 F= -.14104943E+03 E0= -.14104771E+03  d E =-.116935E-02
       N       E                     dE             d eps       ncg     rms          rms(c)
DAV:   1    -0.141049688395E+03   -0.25664E-03   -0.12096E-01  6352   0.155E+00    0.458E-02
DAV:   2    -0.141049942260E+03   -0.25387E-03   -0.27865E-03  7232   0.214E-01    0.259E-02
DAV:   3    -0.141049927567E+03    0.14693E-04   -0.27868E-05  5872   0.285E-02    0.178E-02
DAV:   4    -0.141049915652E+03    0.11915E-04   -0.34203E-05  6632   0.349E-02    0.627E-03
DAV:   5    -0.141049914740E+03    0.91218E-06   -0.13301E-05  4232   0.220E-02    0.598E-03
DAV:   6    -0.141049913674E+03    0.10662E-05   -0.59133E-06  4216   0.153E-02
   9 F= -.14104991E+03 E0= -.14104817E+03  d E =-.483254E-03
       N       E                     dE             d eps       ncg     rms          rms(c)
DAV:   1    -0.141048607226E+03    0.13075E-02   -0.10880E+00  6352   0.466E+00    0.139E-01
DAV:   2    -0.141050910623E+03   -0.23034E-02   -0.25138E-02  7224   0.641E-01    0.771E-02
DAV:   3    -0.141050784100E+03    0.12652E-03   -0.25838E-04  7472   0.849E-02    0.528E-02
DAV:   4    -0.141050691213E+03    0.92887E-04   -0.26978E-04  7328   0.932E-02    0.192E-02
DAV:   5    -0.141050683229E+03    0.79844E-05   -0.10663E-04  7304   0.621E-02    0.166E-02
DAV:   6    -0.141050675596E+03    0.76322E-05   -0.49731E-05  6448   0.438E-02
  10 F= -.14105068E+03 E0= -.14104886E+03  d E =-.124518E-02
       N       E                     dE             d eps       ncg     rms          rms(c)
DAV:   1    -0.141050399728E+03    0.28350E-03   -0.15346E-01  6400   0.175E+00    0.536E-02
DAV:   2    -0.141050720258E+03   -0.32053E-03   -0.35758E-03  7248   0.245E-01    0.284E-02
DAV:   3    -0.141050698586E+03    0.21672E-04   -0.46073E-05  7136   0.391E-02    0.196E-02
DAV:   4    -0.141050676560E+03    0.22026E-04   -0.27826E-05  6000   0.421E-02    0.768E-03
DAV:   5    -0.141050667485E+03    0.90750E-05   -0.18170E-05  4728   0.421E-02    0.655E-03
DAV:   6    -0.141050663778E+03    0.37074E-05   -0.17901E-05  4776   0.298E-02
  11 F= -.14105066E+03 E0= -.14104881E+03  d E =-.123336E-02
       N       E                     dE             d eps       ncg     rms          rms(c)
DAV:   1    -0.141050728628E+03   -0.61143E-04   -0.30744E-01  6304   0.250E+00    0.745E-02
DAV:   2    -0.141051402348E+03   -0.67372E-03   -0.72483E-03  7144   0.345E-01    0.417E-02
DAV:   3    -0.141051365378E+03    0.36970E-04   -0.75095E-05  7384   0.494E-02    0.282E-02
DAV:   4    -0.141051340146E+03    0.25232E-04   -0.79589E-05  7120   0.580E-02    0.102E-02
DAV:   5    -0.141051338633E+03    0.15129E-05   -0.37605E-05  6352   0.331E-02    0.891E-03
DAV:   6    -0.141051336722E+03    0.19118E-05   -0.10753E-05  4128   0.181E-02
  12 F= -.14105134E+03 E0= -.14104945E+03  d E =-.672944E-03
       N       E                     dE             d eps       ncg     rms          rms(c)
DAV:   1    -0.141048320762E+03    0.30179E-02   -0.18383E+00  6320   0.612E+00    0.182E-01
DAV:   2    -0.141052285846E+03   -0.39651E-02   -0.43051E-02  7160   0.846E-01    0.101E-01
DAV:   3    -0.141052054386E+03    0.23146E-03   -0.48927E-04  7440   0.128E-01    0.690E-02
DAV:   4    -0.141051872572E+03    0.18181E-03   -0.40814E-04  7528   0.145E-01    0.264E-02
DAV:   5    -0.141051839010E+03    0.33562E-04   -0.24265E-04  7648   0.100E-01    0.231E-02
DAV:   6    -0.141051817033E+03    0.21978E-04   -0.12552E-04  6992   0.685E-02    0.119E-02
DAV:   7    -0.141051794997E+03    0.22035E-04   -0.16874E-05  5040   0.476E-02    0.102E-02
DAV:   8    -0.141051768830E+03    0.26167E-04   -0.12317E-05  5112   0.597E-02    0.945E-03
DAV:   9    -0.141051741804E+03    0.27027E-04   -0.20110E-05  5800   0.701E-02    0.622E-03
DAV:  10    -0.141051708573E+03    0.33231E-04   -0.60999E-05  8040   0.133E-01    0.952E-03
DAV:  11    -0.141051702523E+03    0.60503E-05   -0.63877E-05  6584   0.598E-02
  13 F= -.14105170E+03 E0= -.14104974E+03  d E =-.103875E-02
       N       E                     dE             d eps       ncg     rms          rms(c)
DAV:   1    -0.141051493495E+03    0.21508E-03   -0.15635E-01  6352   0.178E+00    0.524E-02
DAV:   2    -0.141051817770E+03   -0.32428E-03   -0.35408E-03  7176   0.244E-01    0.286E-02
DAV:   3    -0.141051797106E+03    0.20664E-04   -0.42461E-05  6856   0.384E-02    0.192E-02
DAV:   4    -0.141051780698E+03    0.16408E-04   -0.25103E-05  5664   0.406E-02    0.775E-03
DAV:   5    -0.141051776138E+03    0.45595E-05   -0.24188E-05  5176   0.350E-02    0.499E-03
DAV:   6    -0.141051775724E+03    0.41420E-06   -0.13095E-05  4192   0.178E-02
  14 F= -.14105178E+03 E0= -.14104983E+03  d E =-.111195E-02
       N       E                     dE             d eps       ncg     rms          rms(c)
DAV:   1    -0.141051491127E+03    0.28501E-03   -0.56531E-01  6352   0.336E+00    0.951E-02
DAV:   2    -0.141052643526E+03   -0.11524E-02   -0.12462E-02  7232   0.457E-01    0.540E-02
DAV:   3    -0.141052576427E+03    0.67099E-04   -0.11720E-04  7464   0.571E-02    0.366E-02
DAV:   4    -0.141052525100E+03    0.51327E-04   -0.13817E-04  7312   0.767E-02    0.117E-02
DAV:   5    -0.141052525265E+03   -0.16507E-06   -0.78648E-05  7024   0.434E-02    0.120E-02
DAV:   6    -0.141052523587E+03    0.16778E-05   -0.10689E-05  4136   0.155E-02
  15 F= -.14105252E+03 E0= -.14105054E+03  d E =-.747863E-03
       N       E                     dE             d eps       ncg     rms          rms(c)
DAV:   1    -0.141049200522E+03    0.33247E-02   -0.20421E+00  6320   0.639E+00    0.185E-01
DAV:   2    -0.141053380996E+03   -0.41805E-02   -0.45295E-02  7224   0.872E-01    0.102E-01
DAV:   3    -0.141053136156E+03    0.24484E-03   -0.44894E-04  7440   0.114E-01    0.689E-02
DAV:   4    -0.141052952851E+03    0.18330E-03   -0.46566E-04  7352   0.143E-01    0.233E-02
DAV:   5    -0.141052942555E+03    0.10296E-04   -0.27475E-04  7352   0.884E-02    0.218E-02
DAV:   6    -0.141052934366E+03    0.81891E-05   -0.61426E-05  6792   0.375E-02
  16 F= -.14105293E+03 E0= -.14105088E+03  d E =-.115864E-02
       N       E                     dE             d eps       ncg     rms          rms(c)
DAV:   1    -0.141052092201E+03    0.85035E-03   -0.75680E-01  6368   0.393E+00    0.118E-01
DAV:   2    -0.141053710226E+03   -0.16180E-02   -0.17656E-02  7216   0.543E-01    0.627E-02
DAV:   3    -0.141053604501E+03    0.10572E-03   -0.17351E-04  7464   0.693E-02    0.422E-02
DAV:   4    -0.141053514851E+03    0.89650E-04   -0.13778E-04  7320   0.879E-02    0.153E-02
DAV:   5    -0.141053484032E+03    0.30820E-04   -0.10998E-04  7224   0.692E-02    0.108E-02
DAV:   6    -0.141053471910E+03    0.12121E-04   -0.34608E-05  6128   0.290E-02    0.919E-03
DAV:   7    -0.141053451830E+03    0.20080E-04   -0.42200E-06  4376   0.241E-02    0.588E-03
DAV:   8    -0.141053389605E+03    0.62226E-04   -0.26290E-05  6136   0.881E-02    0.121E-02
DAV:   9    -0.141053363082E+03    0.26523E-04   -0.25713E-05  6016   0.579E-02    0.859E-03
DAV:  10    -0.141053302712E+03    0.60370E-04   -0.19095E-04 10792   0.239E-01    0.276E-02
DAV:  11    -0.141053281932E+03    0.20780E-04   -0.15473E-04  7280   0.100E-01    0.218E-02
DAV:  12    -0.141053276721E+03    0.52111E-05   -0.56810E-05  6264   0.324E-02
  17 F= -.14105328E+03 E0= -.14105120E+03  d E =-.342355E-03
       N       E                     dE             d eps       ncg     rms          rms(c)
DAV:   1    -0.141053227904E+03    0.54028E-04   -0.38324E-02  6552   0.883E-01    0.244E-02
DAV:   2    -0.141053307768E+03   -0.79864E-04   -0.89389E-04  7184   0.124E-01    0.185E-02
DAV:   3    -0.141053301237E+03    0.65303E-05   -0.13394E-05  4424   0.202E-02    0.124E-02
DAV:   4    -0.141053295826E+03    0.54114E-05   -0.95525E-06  4336   0.205E-02    0.519E-03
DAV:   5    -0.141053293676E+03    0.21500E-05   -0.66418E-06  4280   0.168E-02    0.278E-03
DAV:   6    -0.141053292902E+03    0.77431E-06   -0.29150E-06  4168   0.914E-03
  18 F= -.14105329E+03 E0= -.14105121E+03  d E =-.358536E-03
       N       E                     dE             d eps       ncg     rms          rms(c)
DAV:   1    -0.141053521075E+03   -0.22740E-03   -0.32215E-01  6296   0.255E+00    0.768E-02
DAV:   2    -0.141054136966E+03   -0.61589E-03   -0.73130E-03  7216   0.362E-01    0.425E-02
DAV:   3    -0.141054097457E+03    0.39509E-04   -0.16696E-04  7480   0.639E-02    0.314E-02
DAV:   4    -0.141054064351E+03    0.33106E-04   -0.58054E-05  7120   0.388E-02    0.153E-02
DAV:   5    -0.141054038581E+03    0.25769E-04   -0.28120E-05  6224   0.565E-02    0.106E-02
DAV:   6    -0.141054025907E+03    0.12675E-04   -0.27969E-05  5696   0.536E-02    0.830E-03
DAV:   7    -0.141054017930E+03    0.79768E-05   -0.36993E-05  6208   0.492E-02
  19 F= -.14105402E+03 E0= -.14105192E+03  d E =-.725028E-03
       N       E                     dE             d eps       ncg     rms          rms(c)
DAV:   1    -0.141053938010E+03    0.87896E-04   -0.74613E-02  6368   0.123E+00    0.390E-02
DAV:   2    -0.141054074671E+03   -0.13666E-03   -0.17615E-03  7224   0.182E-01    0.201E-02
DAV:   3    -0.141054058982E+03    0.15689E-04   -0.52670E-05  7112   0.394E-02    0.155E-02
DAV:   4    -0.141054040296E+03    0.18686E-04   -0.10336E-05  4320   0.266E-02    0.808E-03
DAV:   5    -0.141054012402E+03    0.27894E-04   -0.15206E-05  5072   0.581E-02    0.844E-03
DAV:   6    -0.141053989489E+03    0.22913E-04   -0.18227E-05  5392   0.703E-02    0.545E-03
DAV:   7    -0.141053967108E+03    0.22381E-04   -0.33321E-05  6512   0.917E-02    0.815E-03
DAV:   8    -0.141053945095E+03    0.22013E-04   -0.19929E-05  5376   0.762E-02    0.367E-03
DAV:   9    -0.141053928833E+03    0.16262E-04   -0.29483E-05  6208   0.935E-02    0.772E-03
DAV:  10    -0.141053927256E+03    0.15767E-05   -0.49216E-05  6488   0.593E-02
  20 F= -.14105393E+03 E0= -.14105181E+03  d E =-.634354E-03
       N       E                     dE             d eps       ncg     rms          rms(c)
DAV:   1    -0.141053958700E+03   -0.29868E-04   -0.16564E-02  6584   0.579E-01    0.192E-02
DAV:   2    -0.141053989057E+03   -0.30356E-04   -0.40052E-04  7240   0.878E-02    0.102E-02
DAV:   3    -0.141053986706E+03    0.23508E-05   -0.14690E-05  4400   0.198E-02    0.752E-03
DAV:   4    -0.141053984574E+03    0.21313E-05   -0.31255E-06  4208   0.976E-03    0.430E-03
DAV:   5    -0.141053981641E+03    0.29339E-05   -0.40010E-06  4552   0.196E-02    0.290E-03
DAV:   6    -0.141053981235E+03    0.40557E-06   -0.31707E-06  4112   0.103E-02
  21 F= -.14105398E+03 E0= -.14105187E+03  d E =-.688333E-03
       N       E                     dE             d eps       ncg     rms          rms(c)
DAV:   1    -0.141053746820E+03    0.23482E-03   -0.38686E-01  6368   0.267E+00    0.804E-02
DAV:   2    -0.141054492561E+03   -0.74574E-03   -0.83858E-03  7336   0.368E-01    0.481E-02
DAV:   3    -0.141054434743E+03    0.57817E-04   -0.97633E-05  7312   0.585E-02    0.348E-02
DAV:   4    -0.141054372513E+03    0.62230E-04   -0.20336E-04  7488   0.100E-01    0.156E-02
DAV:   5    -0.141054367291E+03    0.52224E-05   -0.10556E-04  7096   0.541E-02    0.214E-02
DAV:   6    -0.141054362465E+03    0.48263E-05   -0.20711E-05  4856   0.205E-02
  22 F= -.14105436E+03 E0= -.14105223E+03  d E =-.381230E-03
       N       E                     dE             d eps       ncg     rms          rms(c)
DAV:   1    -0.141054345452E+03    0.21839E-04   -0.72377E-03  6632   0.366E-01    0.194E-02
DAV:   2    -0.141054348029E+03   -0.25771E-05   -0.20149E-04  7216   0.677E-02    0.791E-03
DAV:   3    -0.141054341081E+03    0.69483E-05   -0.18111E-05  4544   0.308E-02    0.678E-03
DAV:   4    -0.141054333251E+03    0.78297E-05   -0.55153E-06  4576   0.241E-02    0.415E-03
DAV:   5    -0.141054311318E+03    0.21933E-04   -0.12192E-05  5232   0.740E-02    0.541E-03
DAV:   6    -0.141054302477E+03    0.88407E-05   -0.25154E-05  5840   0.523E-02
  23 F= -.14105430E+03 E0= -.14105216E+03  d E =-.321242E-03
       N       E                     dE             d eps       ncg     rms          rms(c)
DAV:   1    -0.141054249290E+03    0.62028E-04   -0.14548E-01  6776   0.164E+00    0.481E-02
DAV:   2    -0.141054541203E+03   -0.29191E-03   -0.32721E-03  7296   0.230E-01    0.301E-02
DAV:   3    -0.141054515730E+03    0.25473E-04   -0.28672E-05  5640   0.324E-02    0.210E-02
DAV:   4    -0.141054488361E+03    0.27370E-04   -0.65813E-05  6704   0.596E-02    0.646E-03
DAV:   5    -0.141054487776E+03    0.58464E-06   -0.38649E-05  6328   0.288E-02    0.782E-03
DAV:   6    -0.141054486614E+03    0.11617E-05   -0.38250E-06  4128   0.858E-03
  24 F= -.14105449E+03 E0= -.14105233E+03  d E =-.184137E-03
       N       E                     dE             d eps       ncg     rms          rms(c)
DAV:   1    -0.141054469785E+03    0.17991E-04   -0.12890E-02  6696   0.490E-01    0.155E-02
DAV:   2    -0.141054487201E+03   -0.17416E-04   -0.27234E-04  7112   0.709E-02    0.887E-03
DAV:   3    -0.141054480789E+03    0.64122E-05   -0.76912E-06  4264   0.209E-02    0.640E-03
DAV:   4    -0.141054473075E+03    0.77138E-05   -0.20140E-06  4336   0.210E-02    0.421E-03
DAV:   5    -0.141054456665E+03    0.16411E-04   -0.59282E-06  4624   0.487E-02    0.328E-03
DAV:   6    -0.141054450223E+03    0.64415E-05   -0.16097E-05  4944   0.305E-02
  25 F= -.14105445E+03 E0= -.14105229E+03  d E =-.147746E-03
       N       E                     dE             d eps       ncg     rms          rms(c)
DAV:   1    -0.141054444306E+03    0.12359E-04   -0.24407E-03  6992   0.215E-01    0.104E-02
DAV:   2    -0.141054447834E+03   -0.35280E-05   -0.71634E-05  6872   0.373E-02    0.652E-03
DAV:   3    -0.141054446505E+03    0.13292E-05   -0.66277E-06  4184   0.115E-02    0.299E-03
DAV:   4    -0.141054445288E+03    0.12165E-05   -0.76964E-07  4168   0.659E-03    0.167E-03
DAV:   5    -0.141054443102E+03    0.21857E-05   -0.43080E-07  4224   0.113E-02    0.147E-03
DAV:   6    -0.141054438504E+03    0.45979E-05   -0.11723E-06  4392   0.290E-02
  26 F= -.14105444E+03 E0= -.14105228E+03  d E =-.136027E-03
