 vasp.5.3.5 31Mar14 (build Apr 08 2024 10:12:10) complex                        
  
 executed on             LinuxIFC date 2024.07.29  12:03:41
 running on    8 total cores
 distrk:  each k-point on    8 cores,    1 groups
 distr:  one band on NCORES_PER_BAND=   4 cores,    2 groups


--------------------------------------------------------------------------------------------------------


 INCAR:
 POTCAR:    PAW_PBE O 08Apr2002                   
 POTCAR:    PAW_PBE Mg 13Apr2007                  
 POTCAR:    PAW_PBE Al 04Jan2001                  
 POTCAR:    PAW_PBE O 08Apr2002                   
   VRHFIN =O: s2p4                                                              
   LEXCH  = PE                                                                  
   EATOM  =   432.3788 eV,   31.7789 Ry                                         
                                                                                
   TITEL  = PAW_PBE O 08Apr2002                                                 
   LULTRA =        F    use ultrasoft PP ?                                      
   IUNSCR =        1    unscreen: 0-lin 1-nonlin 2-no                           
   RPACOR =    1.200    partial core radius                                     
   POMASS =   16.000; ZVAL   =    6.000    mass and valenz                      
   RCORE  =    1.520    outmost cutoff radius                                   
   RWIGS  =    1.550; RWIGS  =    0.820    wigner-seitz radius (au A)           
   ENMAX  =  400.000; ENMIN  =  300.000 eV                                      
   ICORE  =        2    local potential                                         
   LCOR   =        T    correct aug charges                                     
   LPAW   =        T    paw PP                                                  
   EAUG   =  605.392                                                            
   DEXC   =    0.000                                                            
   RMAX   =    1.553    core radius for proj-oper                               
   RAUG   =    1.300    factor for augmentation sphere                          
   RDEP   =    1.550    radius for radial grids                                 
   RDEPT  =    1.329    core radius for aug-charge                              
                                                                                
   Atomic configuration                                                         
    4 entries                                                                   
     n  l   j            E        occ.                                          
     1  0  0.50      -514.6923   2.0000                                         
     2  0  0.50       -23.9615   2.0000                                         
     2  1  0.50        -9.0305   4.0000                                         
     3  2  1.50        -9.5241   0.0000                                         
   Description                                                                  
     l       E           TYP  RCUT    TYP  RCUT                                 
     0    -23.9615318     23  1.200                                             
     0     -9.5240782     23  1.200                                             
     1     -9.0304911     23  1.520                                             
     1      8.1634956     23  1.520                                             
     2     -9.5240782      7  1.500                                             
  local pseudopotential read in
  partial core-charges read in
  partial kinetic energy density read in
  kinetic energy density of atom read in
  atomic valenz-charges read in
  non local Contribution for L=           0  read in
    real space projection operators read in
  non local Contribution for L=           0  read in
    real space projection operators read in
  non local Contribution for L=           1  read in
    real space projection operators read in
  non local Contribution for L=           1  read in
    real space projection operators read in
    PAW grid and wavefunctions read in
 
   number of l-projection  operators is LMAX  =           4
   number of lm-projection operators is LMMAX =           8
 
 POTCAR:    PAW_PBE Mg 13Apr2007                  
   VRHFIN =Mg: s2p0                                                             
   LEXCH  = PE                                                                  
   EATOM  =    23.0369 eV,    1.6932 Ry                                         
                                                                                
   TITEL  = PAW_PBE Mg 13Apr2007                                                
   LULTRA =        F    use ultrasoft PP ?                                      
   IUNSCR =        1    unscreen: 0-lin 1-nonlin 2-no                           
   RPACOR =    1.500    partial core radius                                     
   POMASS =   24.305; ZVAL   =    2.000    mass and valenz                      
   RCORE  =    2.000    outmost cutoff radius                                   
   RWIGS  =    2.880; RWIGS  =    1.524    wigner-seitz radius (au A)           
   ENMAX  =  200.000; ENMIN  =  100.000 eV                                      
   RCLOC  =    1.506    cutoff for local pot                                    
   LCOR   =        T    correct aug charges                                     
   LPAW   =        T    paw PP                                                  
   EAUG   =  454.734                                                            
   DEXC   =    0.000                                                            
   RMAX   =    2.045    core radius for proj-oper                               
   RAUG   =    1.300    factor for augmentation sphere                          
   RDEP   =    2.025    radius for radial grids                                 
   RDEPT  =    1.942    core radius for aug-charge                              
                                                                                
   Atomic configuration                                                         
    6 entries                                                                   
     n  l   j            E        occ.                                          
     1  0  0.50     -1259.6230   2.0000                                         
     2  0  0.50       -79.8442   2.0000                                         
     2  1  1.50       -46.6121   6.0000                                         
     3  0  0.50        -4.7055   2.0000                                         
     3  1  0.50        -1.3660   0.0000                                         
     3  2  1.50        -1.3606   0.0000                                         
   Description                                                                  
     l       E           TYP  RCUT    TYP  RCUT                                 
     0     -4.7054661     23  2.000                                             
     0     27.2116520     23  2.000                                             
     1      1.3605826     23  2.000                                             
     1     27.2116520     23  2.000                                             
     2     -1.3605826     23  2.000                                             
  local pseudopotential read in
  partial core-charges read in
  partial kinetic energy density read in
  atomic valenz-charges read in
  non local Contribution for L=           0  read in
    real space projection operators read in
  non local Contribution for L=           0  read in
    real space projection operators read in
  non local Contribution for L=           1  read in
    real space projection operators read in
  non local Contribution for L=           1  read in
    real space projection operators read in
  non local Contribution for L=           2  read in
    real space projection operators read in
    PAW grid and wavefunctions read in
 
   number of l-projection  operators is LMAX  =           5
   number of lm-projection operators is LMMAX =          13
 
 POTCAR:    PAW_PBE Al 04Jan2001                  
   VRHFIN =Al: s2p1                                                             
   LEXCH  = PE                                                                  
   EATOM  =    53.5387 eV,    3.9350 Ry                                         
                                                                                
   TITEL  = PAW_PBE Al 04Jan2001                                                
   LULTRA =        F    use ultrasoft PP ?                                      
   IUNSCR =        1    unscreen: 0-lin 1-nonlin 2-no                           
   RPACOR =    1.500    partial core radius                                     
   POMASS =   26.981; ZVAL   =    3.000    mass and valenz                      
   RCORE  =    1.900    outmost cutoff radius                                   
   RWIGS  =    2.650; RWIGS  =    1.402    wigner-seitz radius (au A)           
   ENMAX  =  240.300; ENMIN  =  180.225 eV                                      
   ICORE  =        2    local potential                                         
   LCOR   =        T    correct aug charges                                     
   LPAW   =        T    paw PP                                                  
   EAUG   =  291.052                                                            
   DEXC   =    0.000                                                            
   RMAX   =    1.939    core radius for proj-oper                               
   RAUG   =    1.300    factor for augmentation sphere                          
   RDEP   =    1.966    radius for radial grids                                 
   RDEPT  =    1.856    core radius for aug-charge                              
                                                                                
   Atomic configuration                                                         
    6 entries                                                                   
     n  l   j            E        occ.                                          
     1  0  0.50     -1511.1048   2.0000                                         
     2  0  0.50      -108.1629   2.0000                                         
     2  1  1.50       -69.6402   6.0000                                         
     3  0  0.50        -7.7528   2.0000                                         
     3  1  1.50        -2.7121   1.0000                                         
     3  2  2.50        -2.7212   0.0000                                         
   Description                                                                  
     l       E           TYP  RCUT    TYP  RCUT                                 
     0     -7.7528455     23  1.900                                             
     0     -3.3096929     23  1.900                                             
     1     -2.7120682     23  1.900                                             
     1     13.6058260     23  1.900                                             
     2     -2.7211652      7  1.900                                             
  local pseudopotential read in
  partial core-charges read in
  partial kinetic energy density read in
  atomic valenz-charges read in
  non local Contribution for L=           0  read in
    real space projection operators read in
  non local Contribution for L=           0  read in
    real space projection operators read in
  non local Contribution for L=           1  read in
    real space projection operators read in
  non local Contribution for L=           1  read in
    real space projection operators read in
    PAW grid and wavefunctions read in
 
   number of l-projection  operators is LMAX  =           4
   number of lm-projection operators is LMMAX =           8
 

 ----------------------------------------------------------------------------- 
|                                                                             |
|  ADVICE TO THIS USER RUNNING 'VASP/VAMP'   (HEAR YOUR MASTER'S VOICE ...):  |
|                                                                             |
|      You have a (more or less) 'large supercell' and for larger cells       |
|      it might be more efficient to use real space projection opertators     |
|      So try LREAL= Auto  in the INCAR   file.                               |
|      Mind: At the moment your POTCAR file does not contain real space       |
|       projectors, and has to be modified,  BUT if you                       |
|      want to do an extremely  accurate calculation you might also keep the  |
|      reciprocal projection scheme          (i.e. LREAL=.FALSE.)             |
|                                                                             |
 ----------------------------------------------------------------------------- 

  PAW_PBE O 08Apr2002                   :
 energy of atom  1       EATOM= -432.3788
 kinetic energy error for atom=    0.0208 (will be added to EATOM!!)
  PAW_PBE Mg 13Apr2007                  :
 energy of atom  2       EATOM=  -23.0369
 kinetic energy error for atom=    0.0000 (will be added to EATOM!!)
  PAW_PBE Al 04Jan2001                  :
 energy of atom  3       EATOM=  -53.5387
 kinetic energy error for atom=    0.0002 (will be added to EATOM!!)
 
 
 POSCAR: OT hollow                               
  positions in direct lattice
  velocities in cartesian coordinates
 exchange correlation table for  LEXCH =        8
   RHO(1)=    0.500       N(1)  =     2000
   RHO(2)=  100.500       N(2)  =     4000
 


--------------------------------------------------------------------------------------------------------


 ion  position               nearest neighbor table
   1  0.504  0.496  0.239-  21 2.09  21 2.09  14 2.09  14 2.14  14 2.14
   2  0.505  0.495  0.430-  15 2.12  15 2.12  16 2.12  16 2.12  15 2.16  16 2.16
   3  0.495  0.505  0.622-  18 2.12  18 2.12  17 2.12  17 2.12  17 2.16  18 2.16
   4  0.496  0.504  0.813-  24 2.09  24 2.09  19 2.09  19 2.14  19 2.14
   5  0.846  0.154  0.303-  14 2.12  14 2.12  11 2.12  11 2.12  11 2.16  14 2.16
   6  0.176  0.824  0.367-  11 2.12  11 2.12  15 2.12  15 2.12  15 2.16  11 2.16
   7  0.835  0.165  0.494-  16 2.12  16 2.12  12 2.12  12 2.12  16 2.16  12 2.16
   8  0.165  0.835  0.558-  12 2.12  12 2.12  17 2.12  17 2.12  12 2.16  17 2.16
   9  0.824  0.176  0.685-  13 2.12  13 2.12  18 2.12  18 2.12  18 2.16  13 2.16
  10  0.154  0.846  0.749-  19 2.12  19 2.12  13 2.12  13 2.12  13 2.16  19 2.16
  11  0.511  0.489  0.335-   6 2.12   6 2.12   5 2.12   5 2.12   6 2.16   5 2.16  15 3.04  15 3.04
                            14 3.05  14 3.05  14 3.05  15 3.05
  12  0.500  0.500  0.526-   8 2.12   8 2.12   7 2.12   7 2.12   8 2.16   7 2.16  17 3.04  17 3.04
                            16 3.04  16 3.04  17 3.05  16 3.05
  13  0.489  0.511  0.717-   9 2.12   9 2.12  10 2.12  10 2.12   9 2.16  10 2.16  18 3.04  18 3.04
                            19 3.05  19 3.05  19 3.05  18 3.05
  14  0.182  0.818  0.271-   1 2.09   5 2.12   5 2.12   1 2.14   1 2.14   5 2.16  21 2.92  11 3.05
                            11 3.05  11 3.05  21 3.49  21 3.49
  15  0.841  0.159  0.399-   2 2.12   2 2.12   6 2.12   6 2.12   6 2.16   2 2.16  11 3.04  11 3.04
                            16 3.04  16 3.04  11 3.05  16 3.05
  16  0.170  0.830  0.462-   7 2.12   7 2.12   2 2.12   2 2.12   7 2.16   2 2.16  12 3.04  12 3.04
                            15 3.04  15 3.04  15 3.05  12 3.05
  17  0.830  0.170  0.590-   3 2.12   3 2.12   8 2.12   8 2.12   3 2.16   8 2.16  12 3.04  12 3.04
                            18 3.04  18 3.04  18 3.05  12 3.05
  18  0.159  0.841  0.654-   9 2.12   9 2.12   3 2.12   3 2.12   9 2.16   3 2.16  13 3.04  13 3.04
                            17 3.04  17 3.04  13 3.05  17 3.05
  19  0.818  0.182  0.781-   4 2.09  10 2.12  10 2.12   4 2.14   4 2.14  10 2.16  24 2.92  13 3.05
                            13 3.05  13 3.05  24 3.49  24 3.49
  20  0.000  1.000  0.026-  23 2.89  23 2.89  25 2.89  25 2.89  23 2.90  25 2.90
  21  0.988  0.012  0.202-   1 2.09   1 2.09  22 2.80  22 2.87  22 2.87  14 2.92  14 3.49  14 3.49

  22  0.677  0.323  0.144-  21 2.80  21 2.87  21 2.87  23 2.88  23 2.88  23 2.97
  23  0.330  0.670  0.085-  22 2.88  22 2.88  20 2.89  20 2.89  20 2.90  22 2.97
  24  0.012  0.988  0.850-   4 2.09   4 2.09  26 2.80  26 2.87  26 2.87  19 2.92  19 3.49  19 3.49

  25  0.670  0.330  0.967-  26 2.88  26 2.88  20 2.89  20 2.89  20 2.90  26 2.97
  26  0.324  0.676  0.908-  24 2.80  24 2.87  24 2.87  25 2.88  25 2.88  25 2.97
 
  LATTYP: Found a base centered monoclinic cell.
 ALAT       =     5.2353752010
 B/A-ratio  =     0.5612349741
 C/A-ratio  =     7.5998201133
 COS(beta)  =    -0.1128646577
  
  Lattice vectors:
  
 A1 = (  -2.5811541393,   1.5324138014,  -0.0027477724)
 A2 = (  -0.0365325771,   3.0015513009,  -0.0027477717)
 A3 = (   2.5954821263,  -4.4955056313, -39.4478347207)


Analysis of symmetry for initial positions (statically):
=====================================================================
 Subroutine PRICEL returns:
 Original cell was already a primitive cell.
 

 Routine SETGRP: Setting up the symmetry group for a 
 base centered monoclinic supercell.


 Subroutine GETGRP returns: Found  2 space group operations
 (whereof  2 operations were pure point group operations)
 out of a pool of  4 trial point group operations.


The static configuration has the point symmetry C_1h.


Analysis of symmetry for dynamics (positions and initial velocities):
=====================================================================
 Subroutine PRICEL returns:
 Original cell was already a primitive cell.
 

 Routine SETGRP: Setting up the symmetry group for a 
 base centered monoclinic supercell.


 Subroutine GETGRP returns: Found  2 space group operations
 (whereof  2 operations were pure point group operations)
 out of a pool of  4 trial point group operations.


The dynamic configuration has the point symmetry C_1h.


Analysis of constrained symmetry for selective dynamics:
=====================================================================
 Subroutine PRICEL returns:
 Original cell was already a primitive cell.
 

 Routine SETGRP: Setting up the symmetry group for a 
 base centered monoclinic supercell.


 Subroutine GETGRP returns: Found  2 space group operations
 (whereof  2 operations were pure point group operations)
 out of a pool of  4 trial point group operations.


The constrained configuration has the point symmetry C_1h.
 
 
 KPOINTS: K-Spacing Value to Generate K-Mesh: 0.02

Automatic generation of k-mesh.
Space group operators:
 irot       det(A)        alpha          n_x          n_y          n_z        tau_x        tau_y        tau_z
    1     1.000000     0.000001     1.000000     0.000000     0.000000     0.000000     0.000000     0.000000
    2    -1.000000   180.000000     0.866025     0.500000     0.000000     0.000000     0.000000     0.000000
 
 Subroutine IBZKPT returns following result:
 ===========================================
 
 Found     49 irreducible k-points:
 
 Following reciprocal coordinates:
            Coordinates               Weight
  0.000000  0.000000  0.000000      1.000000
  0.076923  0.000000 -0.000000      4.000000
  0.153846 -0.000000 -0.000000      4.000000
  0.230769 -0.000000 -0.000000      4.000000
  0.307692 -0.000000 -0.000000      4.000000
  0.384615  0.000000 -0.000000      4.000000
  0.461538 -0.000000 -0.000000      4.000000
  0.076923  0.076923  0.000000      2.000000
  0.153846  0.076923 -0.000000      4.000000
  0.230769  0.076923 -0.000000      4.000000
  0.307692  0.076923 -0.000000      4.000000
  0.384615  0.076923 -0.000000      4.000000
  0.461538  0.076923 -0.000000      4.000000
 -0.461538  0.076923  0.000000      4.000000
 -0.384615  0.076923  0.000000      4.000000
 -0.307692  0.076923  0.000000      4.000000
 -0.230769  0.076923  0.000000      4.000000
 -0.153846  0.076923  0.000000      4.000000
 -0.076923  0.076923  0.000000      2.000000
  0.153846  0.153846 -0.000000      2.000000
  0.230769  0.153846 -0.000000      4.000000
  0.307692  0.153846 -0.000000      4.000000
  0.384615  0.153846 -0.000000      4.000000
  0.461538  0.153846 -0.000000      4.000000
 -0.461538  0.153846  0.000000      4.000000
 -0.384615  0.153846  0.000000      4.000000
 -0.307692  0.153846  0.000000      4.000000
 -0.230769  0.153846  0.000000      4.000000
 -0.153846  0.153846  0.000000      2.000000
  0.230769  0.230769 -0.000000      2.000000
  0.307692  0.230769  0.000000      4.000000
  0.384615  0.230769 -0.000000      4.000000
  0.461538  0.230769 -0.000000      4.000000
 -0.461538  0.230769  0.000000      4.000000
 -0.384615  0.230769  0.000000      4.000000
 -0.307692  0.230769  0.000000      4.000000
 -0.230769  0.230769  0.000000      2.000000
  0.307692  0.307692 -0.000000      2.000000
  0.384615  0.307692 -0.000000      4.000000
  0.461538  0.307692 -0.000000      4.000000
 -0.461538  0.307692  0.000000      4.000000
 -0.384615  0.307692  0.000000      4.000000
 -0.307692  0.307692  0.000000      2.000000
  0.384615  0.384615 -0.000000      2.000000
  0.461538  0.384615  0.000000      4.000000
 -0.461538  0.384615  0.000000      4.000000
 -0.384615  0.384615  0.000000      2.000000
  0.461538  0.461538 -0.000000      2.000000
 -0.461538  0.461538  0.000000      2.000000
 
 Following cartesian coordinates:
            Coordinates               Weight
  0.000000  0.000000  0.000000      1.000000
  0.030019  0.000365 -0.000017      4.000000
  0.060037  0.000731 -0.000033      4.000000
  0.090056  0.001096 -0.000050      4.000000
  0.120075  0.001461 -0.000066      4.000000
  0.150094  0.001827 -0.000083      4.000000
  0.180112  0.002192 -0.000099      4.000000
  0.045345  0.026180  0.000000      2.000000
  0.075363  0.026545 -0.000017      4.000000
  0.105382  0.026910 -0.000033      4.000000
  0.135401  0.027276 -0.000050      4.000000
  0.165419  0.027641 -0.000066      4.000000
  0.195438  0.028006 -0.000083      4.000000
 -0.164787  0.023622  0.000116      4.000000
 -0.134768  0.023988  0.000099      4.000000
 -0.104749  0.024353  0.000083      4.000000
 -0.074730  0.024718  0.000066      4.000000
 -0.044712  0.025084  0.000050      4.000000
 -0.014693  0.025449  0.000033      2.000000
  0.090689  0.052359  0.000000      2.000000
  0.120708  0.052725 -0.000017      4.000000
  0.150726  0.053090 -0.000033      4.000000
  0.180745  0.053455 -0.000050      4.000000
  0.210764  0.053821 -0.000066      4.000000
 -0.149461  0.049437  0.000132      4.000000
 -0.119442  0.049802  0.000116      4.000000
 -0.089423  0.050167  0.000099      4.000000
 -0.059405  0.050533  0.000083      4.000000
 -0.029386  0.050898  0.000066      2.000000
  0.136034  0.078539  0.000000      2.000000
  0.166052  0.078904 -0.000017      4.000000
  0.196071  0.079270 -0.000033      4.000000
  0.226090  0.079635 -0.000050      4.000000
 -0.134135  0.075251  0.000149      4.000000
 -0.104116  0.075616  0.000132      4.000000
 -0.074098  0.075982  0.000116      4.000000
 -0.044079  0.076347  0.000099      2.000000
  0.181378  0.104719  0.000000      2.000000
  0.211397  0.105084 -0.000017      4.000000
  0.241416  0.105449 -0.000033      4.000000
 -0.118809  0.101065  0.000165      4.000000
 -0.088791  0.101431  0.000149      4.000000
 -0.058772  0.101796  0.000132      2.000000
  0.226723  0.130898  0.000000      2.000000
  0.256741  0.131264 -0.000017      4.000000
 -0.103484  0.126880  0.000182      4.000000
 -0.073465  0.127245  0.000165      2.000000
  0.272067  0.157078  0.000000      2.000000
 -0.088158  0.152694  0.000198      2.000000
 


--------------------------------------------------------------------------------------------------------




 Dimension of arrays:
   k-points           NKPTS =     49   k-points in BZ     NKDIM =     49   number of bands    NBANDS=     64
   number of dos      NEDOS =    301   number of ions     NIONS =     26
   non local maximal  LDIM  =      5   non local SUM 2l+1 LMDIM =     13
   total plane-waves  NPLWV = 169344
   max r-space proj   IRMAX =      1   max aug-charges    IRDMAX= 189826
   dimension x,y,z NGX =    24 NGY =   24 NGZ =  294
   dimension x,y,z NGXF=    48 NGYF=   48 NGZF=  588
   support grid    NGXF=    96 NGYF=   96 NGZF= 1176
   ions per type =              10   9   7
 NGX,Y,Z   is equivalent  to a cutoff of  13.29, 13.29, 12.39 a.u.
 NGXF,Y,Z  is equivalent  to a cutoff of  26.58, 26.58, 24.78 a.u.


 I would recommend the setting:
   dimension x,y,z NGX =    22 NGY =   22 NGZ =  293
 SYSTEM =  unknown system                          
 POSCAR =  OT hollow                               

 Startparameter for this run:
   NWRITE =      2    write-flag & timer
   PREC   = accura    normal or accurate (medium, high low for compatibility)
   ISTART =      0    job   : 0-new  1-cont  2-samecut
   ICHARG =      2    charge: 1-file 2-atom 10-const
   ISPIN  =      1    spin polarized calculation?
   LNONCOLLINEAR =      F non collinear calculations
   LSORBIT =      F    spin-orbit coupling
   INIWAV =      1    electr: 0-lowe 1-rand  2-diag
   LASPH  =      F    aspherical Exc in radial PAW
   METAGGA=      F    non-selfconsistent MetaGGA calc.

 Electronic Relaxation 1
   ENCUT  =  520.0 eV  38.22 Ry    6.18 a.u.   5.58  5.58 73.36*2*pi/ulx,y,z
   ENINI  =  520.0     initial cutoff
   ENAUG  =  605.4 eV  augmentation charge cutoff
   NELM   =    100;   NELMIN=  6; NELMDL=  0     # of ELM steps 
   EDIFF  = 0.1E-04   stopping-criterion for ELM
   LREAL  =      F    real-space projection
   NLSPLINE    = F    spline interpolate recip. space projectors
   LCOMPAT=      F    compatible to vasp.4.4
   GGA_COMPAT  = T    GGA compatible to vasp.4.4-vasp.4.6
   LMAXPAW     = -100 max onsite density
   LMAXMIX     =    2 max onsite mixed and CHGCAR
   VOSKOWN=      0    Vosko Wilk Nusair interpolation
   ROPT   =    0.00000   0.00000   0.00000
 Ionic relaxation
   EDIFFG = -.2E-01   stopping-criterion for IOM
   NSW    =    500    number of steps for IOM
   NBLOCK =      1;   KBLOCK =    500    inner block; outer block 
   IBRION =      2    ionic relax: 0-MD 1-quasi-New 2-CG
   NFREE  =      1    steps in history (QN), initial steepest desc. (CG)
   ISIF   =      2    stress and relaxation
   IWAVPR =     11    prediction:  0-non 1-charg 2-wave 3-comb
   ISYM   =      2    0-nonsym 1-usesym 2-fastsym
   LCORR  =      T    Harris-Foulkes like correction to forces

   POTIM  = 0.5000    time-step for ionic-motion
   TEIN   =    0.0    initial temperature
   TEBEG  =    0.0;   TEEND  =   0.0 temperature during run
   SMASS  =  -3.00    Nose mass-parameter (am)
   estimated Nose-frequenzy (Omega)   =  0.10E-29 period in steps =****** mass=  -0.206E-27a.u.
   SCALEE = 1.0000    scale energy and forces
   NPACO  =    256;   APACO  = 16.0  distance and # of slots for P.C.
   PSTRESS=    0.0 pullay stress

  Mass of Ions in am
   POMASS =  16.00 24.30 26.98
  Ionic Valenz
   ZVAL   =   6.00  2.00  3.00
  Atomic Wigner-Seitz radii
   RWIGS  =  -1.00 -1.00 -1.00
  virtual crystal weights 
   VCA    =   1.00  1.00  1.00
   NELECT =      99.0000    total number of electrons
   NUPDOWN=      -1.0000    fix difference up-down

 DOS related values:
   EMIN   =  10.00;   EMAX   =-10.00  energy-range for DOS
   EFERMI =   0.00
   ISMEAR =     0;   SIGMA  =   0.05  broadening in eV -4-tet -1-fermi 0-gaus

 Electronic relaxation 2 (details)
   IALGO  =     38    algorithm
   LDIAG  =      T    sub-space diagonalisation (order eigenvalues)
   LSUBROT=      F    optimize rotation matrix (better conditioning)
   TURBO    =      0    0=normal 1=particle mesh
   IRESTART =      0    0=no restart 2=restart with 2 vectors
   NREBOOT  =      0    no. of reboots
   NMIN     =      0    reboot dimension
   EREF     =   0.00    reference energy to select bands
   IMIX   =      4    mixing-type and parameters
     AMIX     =   0.40;   BMIX     =  1.00
     AMIX_MAG =   1.60;   BMIX_MAG =  1.00
     AMIN     =   0.01
     WC   =   100.;   INIMIX=   1;  MIXPRE=   1;  MAXMIX= -45

 Intra band minimization:
   WEIMIN = 0.0010     energy-eigenvalue tresh-hold
   EBREAK =  0.39E-07  absolut break condition
   DEPER  =   0.30     relativ break condition  

   TIME   =   0.40     timestep for ELM

  volume/ion in A,a.u.               =      11.67        78.76
  Fermi-wavevector in a.u.,A,eV,Ry     =   1.126995  2.129712 17.281013  1.270119
  Thomas-Fermi vector in A             =   2.263680
 
 Write flags
   LWAVE  =      F    write WAVECAR
   LCHARG =      T    write CHGCAR
   LVTOT  =      F    write LOCPOT, total local potential
   LVHAR  =      F    write LOCPOT, Hartree potential only
   LELF   =      F    write electronic localiz. function (ELF)
   LORBIT =      0    0 simple, 1 ext, 2 COOP (PROOUT)


 Dipole corrections
   LMONO  =      F    monopole corrections only (constant potential shift)
   LDIPOL =      F    correct potential (dipole corrections)
   IDIPOL =      0    1-x, 2-y, 3-z, 4-all directions 
   EPSILON=  1.0000000 bulk dielectric constant

 Exchange correlation treatment:
   GGA     =    --    GGA type
   LEXCH   =     8    internal setting for exchange type
   VOSKOWN=      0    Vosko Wilk Nusair interpolation
   LHFCALC =     F    Hartree Fock is set to
   LHFONE  =     F    Hartree Fock one center treatment
   AEXX    =    0.0000 exact exchange contribution

 Linear response parameters
   LEPSILON=     F    determine dielectric tensor
   LRPA    =     F    only Hartree local field effects (RPA)
   LNABLA  =     F    use nabla operator in PAW spheres
   LVEL    =     F    velocity operator in full k-point grid
   LINTERFAST=   F  fast interpolation
   KINTER  =     0    interpolate to denser k-point grid
   CSHIFT  =0.1000    complex shift for real part using Kramers Kronig
   OMEGAMAX=  -1.0    maximum frequency
   DEG_THRESHOLD= 0.2000000E-02 threshold for treating states as degnerate
   RTIME   =    0.100 relaxation time in fs

 Orbital magnetization related:
   ORBITALMAG=     F  switch on orbital magnetization
   LCHIMAG   =     F  perturbation theory with respect to B field
   DQ        =  0.001000  dq finite difference perturbation B field



--------------------------------------------------------------------------------------------------------


 conjugate gradient relaxation of ions
   using selective dynamics as specified on POSCAR
 charge density and potential will be updated during run
 non-spin polarized calculation
 Variant of blocked Davidson
 Davidson routine will perform the subspace rotation
 perform sub-space diagonalisation
    after iterative eigenvector-optimisation
 modified Broyden-mixing scheme, WC =      100.0
 initial mixing is a Kerker type mixing with AMIX =  0.4000 and BMIX =      1.0000
 Hartree-type preconditioning will be used
 using additional bands           14
 reciprocal scheme for non local part
 use partial core corrections
 calculate Harris-corrections to forces 
   (improved forces if not selfconsistent)
 use gradient corrections 
 use of overlap-Matrix (Vanderbilt PP)
 Gauss-broadening in eV      SIGMA  =   0.05


--------------------------------------------------------------------------------------------------------


  energy-cutoff  :      520.00
  volume of cell :      303.45
      direct lattice vectors                 reciprocal lattice vectors
     2.581154139 -1.532413801  0.002747772     0.390243593  0.004749548 -0.000215002
    -0.036532577  3.001551301 -0.002747772     0.199235027  0.335586188  0.000215002
     0.022204590 -0.038459471 39.453330265    -0.000013303  0.000023041  0.025346433

  length of vectors
     3.001775525  3.001774874 39.453355259     0.390272553  0.390272638  0.025346447


 
 k-points in units of 2pi/SCALE and weight: K-Spacing Value to Generate K-Mesh: 0.02
   0.00000000  0.00000000  0.00000000       0.006
   0.03001874  0.00036535 -0.00001654       0.024
   0.06003748  0.00073070 -0.00003308       0.024
   0.09005621  0.00109605 -0.00004962       0.024
   0.12007495  0.00146140 -0.00006615       0.024
   0.15009369  0.00182675 -0.00008269       0.024
   0.18011243  0.00219210 -0.00009923       0.024
   0.04534451  0.02617967  0.00000000       0.012
   0.07536325  0.02654502 -0.00001654       0.024
   0.10538199  0.02691037 -0.00003308       0.024
   0.13540072  0.02727572 -0.00004962       0.024
   0.16541946  0.02764107 -0.00006615       0.024
   0.19543820  0.02800642 -0.00008269       0.024
  -0.16478666  0.02362222  0.00011577       0.024
  -0.13476792  0.02398757  0.00009923       0.024
  -0.10474918  0.02435292  0.00008269       0.024
  -0.07473044  0.02471827  0.00006615       0.024
  -0.04471170  0.02508362  0.00004962       0.024
  -0.01469297  0.02544897  0.00003308       0.012
   0.09068902  0.05235934  0.00000000       0.012
   0.12070776  0.05272469 -0.00001654       0.024
   0.15072649  0.05309004 -0.00003308       0.024
   0.18074523  0.05345539 -0.00004962       0.024
   0.21076397  0.05382074 -0.00006615       0.024
  -0.14946088  0.04943655  0.00013231       0.024
  -0.11944215  0.04980189  0.00011577       0.024
  -0.08942341  0.05016724  0.00009923       0.024
  -0.05940467  0.05053259  0.00008269       0.024
  -0.02938593  0.05089794  0.00006615       0.012
   0.13603353  0.07853902  0.00000000       0.012
   0.16605227  0.07890437 -0.00001654       0.024
   0.19607100  0.07926972 -0.00003308       0.024
   0.22608974  0.07963507 -0.00004962       0.024
  -0.13413511  0.07525087  0.00014885       0.024
  -0.10411638  0.07561622  0.00013231       0.024
  -0.07409764  0.07598157  0.00011577       0.024
  -0.04407890  0.07634692  0.00009923       0.012
   0.18137804  0.10471869  0.00000000       0.012
   0.21139677  0.10508404 -0.00001654       0.024
   0.24141551  0.10544939 -0.00003308       0.024
  -0.11880934  0.10106519  0.00016539       0.024
  -0.08879060  0.10143054  0.00014885       0.024
  -0.05877187  0.10179589  0.00013231       0.012
   0.22672255  0.13089836  0.00000000       0.012
   0.25674128  0.13126371 -0.00001654       0.024
  -0.10348357  0.12687951  0.00018192       0.024
  -0.07346483  0.12724486  0.00016539       0.012
   0.27206706  0.15707803  0.00000000       0.012
  -0.08815780  0.15269383  0.00019846       0.012
 
 k-points in reciprocal lattice and weights: K-Spacing Value to Generate K-Mesh: 0.02
   0.00000000  0.00000000  0.00000000       0.006
   0.07692308  0.00000000 -0.00000000       0.024
   0.15384615 -0.00000000 -0.00000000       0.024
   0.23076923 -0.00000000 -0.00000000       0.024
   0.30769231 -0.00000000 -0.00000000       0.024
   0.38461538  0.00000000 -0.00000000       0.024
   0.46153846 -0.00000000 -0.00000000       0.024
   0.07692308  0.07692308  0.00000000       0.012
   0.15384615  0.07692308 -0.00000000       0.024
   0.23076923  0.07692308 -0.00000000       0.024
   0.30769231  0.07692308 -0.00000000       0.024
   0.38461538  0.07692308 -0.00000000       0.024
   0.46153846  0.07692308 -0.00000000       0.024
  -0.46153846  0.07692308  0.00000000       0.024
  -0.38461538  0.07692308  0.00000000       0.024
  -0.30769231  0.07692308  0.00000000       0.024
  -0.23076923  0.07692308  0.00000000       0.024
  -0.15384615  0.07692308  0.00000000       0.024
  -0.07692308  0.07692308  0.00000000       0.012
   0.15384615  0.15384615 -0.00000000       0.012
   0.23076923  0.15384615 -0.00000000       0.024
   0.30769231  0.15384615 -0.00000000       0.024
   0.38461538  0.15384615 -0.00000000       0.024
   0.46153846  0.15384615 -0.00000000       0.024
  -0.46153846  0.15384615  0.00000000       0.024
  -0.38461538  0.15384615  0.00000000       0.024
  -0.30769231  0.15384615  0.00000000       0.024
  -0.23076923  0.15384615  0.00000000       0.024
  -0.15384615  0.15384615  0.00000000       0.012
   0.23076923  0.23076923 -0.00000000       0.012
   0.30769231  0.23076923  0.00000000       0.024
   0.38461538  0.23076923 -0.00000000       0.024
   0.46153846  0.23076923 -0.00000000       0.024
  -0.46153846  0.23076923  0.00000000       0.024
  -0.38461538  0.23076923  0.00000000       0.024
  -0.30769231  0.23076923  0.00000000       0.024
  -0.23076923  0.23076923  0.00000000       0.012
   0.30769231  0.30769231 -0.00000000       0.012
   0.38461538  0.30769231 -0.00000000       0.024
   0.46153846  0.30769231 -0.00000000       0.024
  -0.46153846  0.30769231  0.00000000       0.024
  -0.38461538  0.30769231  0.00000000       0.024
  -0.30769231  0.30769231  0.00000000       0.012
   0.38461538  0.38461538 -0.00000000       0.012
   0.46153846  0.38461538  0.00000000       0.024
  -0.46153846  0.38461538  0.00000000       0.024
  -0.38461538  0.38461538  0.00000000       0.012
   0.46153846  0.46153846 -0.00000000       0.012
  -0.46153846  0.46153846  0.00000000       0.012
 
 position of ions in fractional coordinates (direct lattice) 
   0.50352756  0.49647244  0.23947258
   0.50535323  0.49464677  0.43041265
   0.49459801  0.50540199  0.62165651
   0.49644113  0.50355887  0.81260613
   0.84620041  0.15379959  0.30297776
   0.17568569  0.82431431  0.36669229
   0.83508138  0.16491862  0.49416507
   0.16484509  0.83515491  0.55789991
   0.82430041  0.17569959  0.68537950
   0.15381185  0.84618815  0.74910144
   0.51096735  0.48903265  0.33485152
   0.49999420  0.50000580  0.52604454
   0.48900105  0.51099895  0.71722520
   0.18244736  0.81755264  0.27111070
   0.84057940  0.15942060  0.39855656
   0.17023094  0.82976906  0.46230028
   0.82975475  0.17024525  0.58978655
   0.15940687  0.84059313  0.65352461
   0.81756639  0.18243361  0.78094918
   0.00004774  0.99995226  0.02603620
   0.98812365  0.01187635  0.20190567
   0.67654663  0.32345337  0.14445427
   0.33039452  0.66960548  0.08505665
   0.01189916  0.98810084  0.85016581
   0.66968625  0.33031375  0.96701301
   0.32350898  0.67649102  0.90762241
 
 position of ions in cartesian coordinates  (Angst):
   1.28686222  0.70936493  9.44801034
   1.29588100  0.69374394 16.98124199
   1.27197369  0.73515261 24.52638988
   1.28103835  0.71945215 32.05999851
   2.18528251 -0.84674421 11.95538419
   0.43149978  2.19089571 14.46544960
   2.16042159 -0.80368386 19.49829911
   0.40736817  2.23269287 22.00916736
   2.13644622 -0.76215731 27.04228588
   0.38273214  2.27536372 29.55264398
   1.30845511  0.67196495 13.21106802
   1.28397620  0.71436366 20.75420876
   1.25944467  0.75685351 28.29686210
   0.44707735  2.16391458 10.69447469
   2.17269074 -0.82493464 15.72625543
   0.41934388  2.21195035 18.23747317
   2.14860139 -0.78321067 23.27085588
   0.39525593  2.25367188 25.78185069
   2.12094077 -0.73530109 30.81279120
  -0.03582948  3.00033350  1.02446735
   2.55454880 -1.48633201  7.96853357
   1.73766211 -0.07144316  5.70017241
   0.83022541  1.50028286  3.35483591
   0.01349328  2.91490400 33.53919027
   1.73796835 -0.07197360 38.15281598
   0.83046596  1.49986620 35.80775690
 


--------------------------------------------------------------------------------------------------------


 k-point  1 :   0.0000 0.0000 0.0000  plane waves:    8291
 k-point  2 :   0.0769 0.0000-0.0000  plane waves:    8279
 k-point  3 :   0.1538-0.0000-0.0000  plane waves:    8248
 k-point  4 :   0.2308-0.0000-0.0000  plane waves:    8194
 k-point  5 :   0.3077-0.0000-0.0000  plane waves:    8193
 k-point  6 :   0.3846 0.0000-0.0000  plane waves:    8151
 k-point  7 :   0.4615-0.0000-0.0000  plane waves:    8103
 k-point  8 :   0.0769 0.0769 0.0000  plane waves:    8261
 k-point  9 :   0.1538 0.0769-0.0000  plane waves:    8203
 k-point 10 :   0.2308 0.0769-0.0000  plane waves:    8185
 k-point 11 :   0.3077 0.0769-0.0000  plane waves:    8143
 k-point 12 :   0.3846 0.0769-0.0000  plane waves:    8113
 k-point 13 :   0.4615 0.0769-0.0000  plane waves:    8099
 k-point 14 :  -0.4615 0.0769 0.0000  plane waves:    8139
 k-point 15 :  -0.3846 0.0769 0.0000  plane waves:    8167
 k-point 16 :  -0.3077 0.0769 0.0000  plane waves:    8205
 k-point 17 :  -0.2308 0.0769 0.0000  plane waves:    8230
 k-point 18 :  -0.1538 0.0769 0.0000  plane waves:    8267
 k-point 19 :  -0.0769 0.0769 0.0000  plane waves:    8283
 k-point 20 :   0.1538 0.1538-0.0000  plane waves:    8141
 k-point 21 :   0.2308 0.1538-0.0000  plane waves:    8166
 k-point 22 :   0.3077 0.1538-0.0000  plane waves:    8136
 k-point 23 :   0.3846 0.1538-0.0000  plane waves:    8112
 k-point 24 :   0.4615 0.1538-0.0000  plane waves:    8105
 k-point 25 :  -0.4615 0.1538 0.0000  plane waves:    8155
 k-point 26 :  -0.3846 0.1538 0.0000  plane waves:    8187
 k-point 27 :  -0.3077 0.1538 0.0000  plane waves:    8194
 k-point 28 :  -0.2308 0.1538 0.0000  plane waves:    8256
 k-point 29 :  -0.1538 0.1538 0.0000  plane waves:    8275
 k-point 30 :   0.2308 0.2308-0.0000  plane waves:    8139
 k-point 31 :   0.3077 0.2308 0.0000  plane waves:    8130
 k-point 32 :   0.3846 0.2308-0.0000  plane waves:    8134
 k-point 33 :   0.4615 0.2308-0.0000  plane waves:    8141
 k-point 34 :  -0.4615 0.2308 0.0000  plane waves:    8175
 k-point 35 :  -0.3846 0.2308 0.0000  plane waves:    8174
 k-point 36 :  -0.3077 0.2308 0.0000  plane waves:    8178
 k-point 37 :  -0.2308 0.2308 0.0000  plane waves:    8249
 k-point 38 :   0.3077 0.3077-0.0000  plane waves:    8150
 k-point 39 :   0.3846 0.3077-0.0000  plane waves:    8165
 k-point 40 :   0.4615 0.3077-0.0000  plane waves:    8159
 k-point 41 :  -0.4615 0.3077 0.0000  plane waves:    8163
 k-point 42 :  -0.3846 0.3077 0.0000  plane waves:    8132
 k-point 43 :  -0.3077 0.3077 0.0000  plane waves:    8156
 k-point 44 :   0.3846 0.3846-0.0000  plane waves:    8150
 k-point 45 :   0.4615 0.3846 0.0000  plane waves:    8134
 k-point 46 :  -0.4615 0.3846 0.0000  plane waves:    8129
 k-point 47 :  -0.3846 0.3846 0.0000  plane waves:    8124
 k-point 48 :   0.4615 0.4615-0.0000  plane waves:    8130
 k-point 49 :  -0.4615 0.4615 0.0000  plane waves:    8087

 maximum and minimum number of plane-waves per node :      2094     2000

 maximum number of plane-waves:      8291
 maximum index in each direction: 
   IXMAX=    6   IYMAX=    5   IZMAX=   73
   IXMIN=   -6   IYMIN=   -6   IZMIN=  -73

 WARNING: aliasing errors must be expected set NGX to  26 to avoid them
 NGY is ok and might be reduce to  24
 NGZ is ok and might be reduce to 294
 aliasing errors are usually negligible using standard VASP settings
 and one can safely disregard these warnings

 parallel 3D FFT for wavefunctions:
    minimum data exchange during FFTs selected (reduces bandwidth)
 parallel 3D FFT for charge:
    minimum data exchange during FFTs selected (reduces bandwidth)


 total amount of memory used by VASP on root node   186918. kBytes
========================================================================

   base      :      30000. kBytes
   nonl-proj :      32413. kBytes
   fftplans  :      50691. kBytes
   grid      :      20321. kBytes
   one-center:         56. kBytes
   wavefun   :      53437. kBytes
 
     INWAV:  cpu time    0.00: real time    0.00
 Broyden mixing: mesh for mixing (old mesh)
   NGX = 11   NGY = 11   NGZ =147
  (NGX  = 48   NGY  = 48   NGZ  =588)
  gives a total of  17787 points

 initial charge density was supplied:
 charge density of overlapping atoms calculated
 number of electron      99.0000000 magnetization 
 keeping initial charge density in first step


--------------------------------------------------------------------------------------------------------


 Maximum index for augmentation-charges        22980 (set IRDMAX)


--------------------------------------------------------------------------------------------------------


 First call to EWALD:  gamma=   0.264
 Maximum number of real-space cells 6x 6x 1
 Maximum number of reciprocal cells 1x 1x14

 FEWALD executed in parallel
    FEWALD:  cpu time    0.00: real time    0.00


----------------------------------------- Iteration    1(   1)  ---------------------------------------


    POTLOK:  cpu time    0.09: real time    0.09
    SETDIJ:  cpu time    0.09: real time    0.09
     EDDAV:  cpu time    9.31: real time    9.35
       DOS:  cpu time    0.00: real time    0.00
    --------------------------------------------
      LOOP:  cpu time    9.51: real time    9.54

 eigenvalue-minimisations  :  6296
 total energy-change (2. order) : 0.4982580E+03  (-0.4475656E+04)
 number of electron      99.0000000 magnetization 
 augmentation part       99.0000000 magnetization 

 Free energy of the ion-electron system (eV)
  ---------------------------------------------------
  alpha Z        PSCENC =       139.07084690
  Ewald energy   TEWEN  =      7514.97819711
  -Hartree energ DENC   =    -12734.62647099
  -exchange      EXHF   =         0.00000000
  -V(xc)+E(xc)   XCENC  =      -341.45863380
  PAW double counting   =      4516.65612620    -3844.19644948
  entropy T*S    EENTRO =        -0.00465981
  eigenvalues    EBANDS =       342.15818682
  atomic energy  EATOM  =      4905.68083858
  ---------------------------------------------------
  free energy    TOTEN  =       498.25798153 eV

  energy without entropy =      498.26264133  energy(sigma->0) =      498.26031143


--------------------------------------------------------------------------------------------------------




----------------------------------------- Iteration    1(   2)  ---------------------------------------


     EDDAV:  cpu time   11.05: real time   11.06
       DOS:  cpu time    0.00: real time    0.00
    --------------------------------------------
      LOOP:  cpu time   11.05: real time   11.07

 eigenvalue-minimisations  :  8032
 total energy-change (2. order) :-0.6029328E+03  (-0.5768701E+03)
 number of electron      99.0000000 magnetization 
 augmentation part       99.0000000 magnetization 

 Free energy of the ion-electron system (eV)
  ---------------------------------------------------
  alpha Z        PSCENC =       139.07084690
  Ewald energy   TEWEN  =      7514.97819711
  -Hartree energ DENC   =    -12734.62647099
  -exchange      EXHF   =         0.00000000
  -V(xc)+E(xc)   XCENC  =      -341.45863380
  PAW double counting   =      4516.65612620    -3844.19644948
  entropy T*S    EENTRO =        -0.00384430
  eigenvalues    EBANDS =      -260.77546222
  atomic energy  EATOM  =      4905.68083858
  ---------------------------------------------------
  free energy    TOTEN  =      -104.67485200 eV

  energy without entropy =     -104.67100770  energy(sigma->0) =     -104.67292985


--------------------------------------------------------------------------------------------------------




----------------------------------------- Iteration    1(   3)  ---------------------------------------


     EDDAV:  cpu time   10.47: real time   10.48
       DOS:  cpu time    0.00: real time    0.00
    --------------------------------------------
      LOOP:  cpu time   10.47: real time   10.49

 eigenvalue-minimisations  :  7384
 total energy-change (2. order) :-0.5133842E+02  (-0.5107094E+02)
 number of electron      99.0000000 magnetization 
 augmentation part       99.0000000 magnetization 

 Free energy of the ion-electron system (eV)
  ---------------------------------------------------
  alpha Z        PSCENC =       139.07084690
  Ewald energy   TEWEN  =      7514.97819711
  -Hartree energ DENC   =    -12734.62647099
  -exchange      EXHF   =         0.00000000
  -V(xc)+E(xc)   XCENC  =      -341.45863380
  PAW double counting   =      4516.65612620    -3844.19644948
  entropy T*S    EENTRO =        -0.00287209
  eigenvalues    EBANDS =      -312.11485144
  atomic energy  EATOM  =      4905.68083858
  ---------------------------------------------------
  free energy    TOTEN  =      -156.01326901 eV

  energy without entropy =     -156.01039692  energy(sigma->0) =     -156.01183297


--------------------------------------------------------------------------------------------------------




----------------------------------------- Iteration    1(   4)  ---------------------------------------


     EDDAV:  cpu time   10.03: real time   10.05
       DOS:  cpu time    0.00: real time    0.00
    --------------------------------------------
      LOOP:  cpu time   10.04: real time   10.05

 eigenvalue-minimisations  :  7368
 total energy-change (2. order) :-0.6111006E+00  (-0.6100436E+00)
 number of electron      99.0000000 magnetization 
 augmentation part       99.0000000 magnetization 

 Free energy of the ion-electron system (eV)
  ---------------------------------------------------
  alpha Z        PSCENC =       139.07084690
  Ewald energy   TEWEN  =      7514.97819711
  -Hartree energ DENC   =    -12734.62647099
  -exchange      EXHF   =         0.00000000
  -V(xc)+E(xc)   XCENC  =      -341.45863380
  PAW double counting   =      4516.65612620    -3844.19644948
  entropy T*S    EENTRO =        -0.00276049
  eigenvalues    EBANDS =      -312.72606361
  atomic energy  EATOM  =      4905.68083858
  ---------------------------------------------------
  free energy    TOTEN  =      -156.62436959 eV

  energy without entropy =     -156.62160910  energy(sigma->0) =     -156.62298934


--------------------------------------------------------------------------------------------------------




----------------------------------------- Iteration    1(   5)  ---------------------------------------


     EDDAV:  cpu time   10.27: real time   10.28
       DOS:  cpu time    0.00: real time    0.00
    CHARGE:  cpu time    0.67: real time    0.67
    MIXING:  cpu time    0.00: real time    0.00
    --------------------------------------------
      LOOP:  cpu time   10.94: real time   10.96

 eigenvalue-minimisations  :  7560
 total energy-change (2. order) :-0.8729935E-02  (-0.8726962E-02)
 number of electron      99.0000001 magnetization 
 augmentation part        7.7244509 magnetization 

 Broyden mixing:
  rms(total) = 0.22933E+01    rms(broyden)= 0.22928E+01
  rms(prec ) = 0.23544E+01
  weight for this iteration     100.00

 Free energy of the ion-electron system (eV)
  ---------------------------------------------------
  alpha Z        PSCENC =       139.07084690
  Ewald energy   TEWEN  =      7514.97819711
  -Hartree energ DENC   =    -12734.62647099
  -exchange      EXHF   =         0.00000000
  -V(xc)+E(xc)   XCENC  =      -341.45863380
  PAW double counting   =      4516.65612620    -3844.19644948
  entropy T*S    EENTRO =        -0.00276312
  eigenvalues    EBANDS =      -312.73479092
  atomic energy  EATOM  =      4905.68083858
  ---------------------------------------------------
  free energy    TOTEN  =      -156.63309952 eV

  energy without entropy =     -156.63033640  energy(sigma->0) =     -156.63171796


--------------------------------------------------------------------------------------------------------




----------------------------------------- Iteration    1(   6)  ---------------------------------------


    POTLOK:  cpu time    0.09: real time    0.09
    SETDIJ:  cpu time    0.09: real time    0.09
     EDDAV:  cpu time   10.52: real time   10.54
       DOS:  cpu time    0.00: real time    0.00
    CHARGE:  cpu time    0.69: real time    0.69
    MIXING:  cpu time    0.00: real time    0.00
    --------------------------------------------
      LOOP:  cpu time   11.40: real time   11.42

 eigenvalue-minimisations  :  7512
 total energy-change (2. order) : 0.1535111E+02  (-0.8667493E+01)
 number of electron      99.0000001 magnetization 
 augmentation part        6.2484404 magnetization 

 Broyden mixing:
  rms(total) = 0.78359E+00    rms(broyden)= 0.78263E+00
  rms(prec ) = 0.79401E+00
  weight for this iteration     100.00

 eigenvalues of (default mixing * dielectric matrix)
  average eigenvalue GAMMA=   0.8416
  0.8416

 Free energy of the ion-electron system (eV)
  ---------------------------------------------------
  alpha Z        PSCENC =       139.07084690
  Ewald energy   TEWEN  =      7514.97819711
  -Hartree energ DENC   =    -12922.26151724
  -exchange      EXHF   =         0.00000000
  -V(xc)+E(xc)   XCENC  =      -328.27260354
  PAW double counting   =      5381.62687212    -4712.57733409
  entropy T*S    EENTRO =        -0.00374704
  eigenvalues    EBANDS =      -119.52353763
  atomic energy  EATOM  =      4905.68083858
  ---------------------------------------------------
  free energy    TOTEN  =      -141.28198484 eV

  energy without entropy =     -141.27823780  energy(sigma->0) =     -141.28011132


--------------------------------------------------------------------------------------------------------




----------------------------------------- Iteration    1(   7)  ---------------------------------------


    POTLOK:  cpu time    0.09: real time    0.09
    SETDIJ:  cpu time    0.09: real time    0.09
     EDDAV:  cpu time   10.11: real time   10.12
       DOS:  cpu time    0.00: real time    0.00
    CHARGE:  cpu time    0.69: real time    0.69
    MIXING:  cpu time    0.00: real time    0.00
    --------------------------------------------
      LOOP:  cpu time   10.99: real time   11.01

 eigenvalue-minimisations  :  7016
 total energy-change (2. order) : 0.1225373E+00  (-0.2055399E+00)
 number of electron      99.0000001 magnetization 
 augmentation part        6.2822962 magnetization 

 Broyden mixing:
  rms(total) = 0.47789E+00    rms(broyden)= 0.47787E+00
  rms(prec ) = 0.48398E+00
  weight for this iteration     100.00

 eigenvalues of (default mixing * dielectric matrix)
  average eigenvalue GAMMA=   1.5598
  0.9881  2.1316

 Free energy of the ion-electron system (eV)
  ---------------------------------------------------
  alpha Z        PSCENC =       139.07084690
  Ewald energy   TEWEN  =      7514.97819711
  -Hartree energ DENC   =    -12917.47368653
  -exchange      EXHF   =         0.00000000
  -V(xc)+E(xc)   XCENC  =      -327.96790562
  PAW double counting   =      5719.32243718    -5049.81644626
  entropy T*S    EENTRO =        -0.00361605
  eigenvalues    EBANDS =      -124.95011288
  atomic energy  EATOM  =      4905.68083858
  ---------------------------------------------------
  free energy    TOTEN  =      -141.15944757 eV

  energy without entropy =     -141.15583152  energy(sigma->0) =     -141.15763954


--------------------------------------------------------------------------------------------------------




----------------------------------------- Iteration    1(   8)  ---------------------------------------


    POTLOK:  cpu time    0.09: real time    0.09
    SETDIJ:  cpu time    0.09: real time    0.09
     EDDAV:  cpu time   10.67: real time   10.69
       DOS:  cpu time    0.00: real time    0.00
    CHARGE:  cpu time    0.69: real time    0.69
    MIXING:  cpu time    0.00: real time    0.00
    --------------------------------------------
      LOOP:  cpu time   11.56: real time   11.58

 eigenvalue-minimisations  :  7432
 total energy-change (2. order) : 0.7945503E-01  (-0.7456145E-01)
 number of electron      99.0000001 magnetization 
 augmentation part        6.3510586 magnetization 

 Broyden mixing:
  rms(total) = 0.12729E+00    rms(broyden)= 0.12723E+00
  rms(prec ) = 0.13276E+00
  weight for this iteration     100.00

 eigenvalues of (default mixing * dielectric matrix)
  average eigenvalue GAMMA=   1.3405
  2.2850  0.8683  0.8683

 Free energy of the ion-electron system (eV)
  ---------------------------------------------------
  alpha Z        PSCENC =       139.07084690
  Ewald energy   TEWEN  =      7514.97819711
  -Hartree energ DENC   =    -12919.39962547
  -exchange      EXHF   =         0.00000000
  -V(xc)+E(xc)   XCENC  =      -326.72072733
  PAW double counting   =      6222.82752609    -5552.96363866
  entropy T*S    EENTRO =        -0.00289637
  eigenvalues    EBANDS =      -124.55051339
  atomic energy  EATOM  =      4905.68083858
  ---------------------------------------------------
  free energy    TOTEN  =      -141.07999254 eV

  energy without entropy =     -141.07709617  energy(sigma->0) =     -141.07854436


--------------------------------------------------------------------------------------------------------




----------------------------------------- Iteration    1(   9)  ---------------------------------------


    POTLOK:  cpu time    0.10: real time    0.10
    SETDIJ:  cpu time    0.10: real time    0.10
     EDDAV:  cpu time   10.51: real time   10.53
       DOS:  cpu time    0.00: real time    0.00
    CHARGE:  cpu time    0.69: real time    0.69
    MIXING:  cpu time    0.00: real time    0.00
    --------------------------------------------
      LOOP:  cpu time   11.41: real time   11.42

 eigenvalue-minimisations  :  7248
 total energy-change (2. order) : 0.3164045E-01  (-0.1274600E-01)
 number of electron      99.0000001 magnetization 
 augmentation part        6.3199400 magnetization 

 Broyden mixing:
  rms(total) = 0.62255E-01    rms(broyden)= 0.62248E-01
  rms(prec ) = 0.64189E-01
  weight for this iteration     100.00

 eigenvalues of (default mixing * dielectric matrix)
  average eigenvalue GAMMA=   1.4539
  2.4569  0.9229  0.9229  1.5130

 Free energy of the ion-electron system (eV)
  ---------------------------------------------------
  alpha Z        PSCENC =       139.07084690
  Ewald energy   TEWEN  =      7514.97819711
  -Hartree energ DENC   =    -12924.44615508
  -exchange      EXHF   =         0.00000000
  -V(xc)+E(xc)   XCENC  =      -326.22953075
  PAW double counting   =      6252.82076376    -5583.02739496
  entropy T*S    EENTRO =        -0.00312360
  eigenvalues    EBANDS =      -119.89279405
  atomic energy  EATOM  =      4905.68083858
  ---------------------------------------------------
  free energy    TOTEN  =      -141.04835209 eV

  energy without entropy =     -141.04522849  energy(sigma->0) =     -141.04679029


--------------------------------------------------------------------------------------------------------




----------------------------------------- Iteration    1(  10)  ---------------------------------------


    POTLOK:  cpu time    0.10: real time    0.10
    SETDIJ:  cpu time    0.10: real time    0.10
     EDDAV:  cpu time   10.41: real time   10.43
       DOS:  cpu time    0.00: real time    0.00
    CHARGE:  cpu time    0.68: real time    0.68
    MIXING:  cpu time    0.00: real time    0.00
    --------------------------------------------
      LOOP:  cpu time   11.30: real time   11.31

 eigenvalue-minimisations  :  7216
 total energy-change (2. order) :-0.3260066E-02  (-0.1125620E-01)
 number of electron      99.0000001 magnetization 
 augmentation part        6.2934016 magnetization 

 Broyden mixing:
  rms(total) = 0.44851E-01    rms(broyden)= 0.44813E-01
  rms(prec ) = 0.48361E-01
  weight for this iteration     100.00

 eigenvalues of (default mixing * dielectric matrix)
  average eigenvalue GAMMA=   1.3272
  2.5193  1.5292  0.9874  0.8000  0.8000

 Free energy of the ion-electron system (eV)
  ---------------------------------------------------
  alpha Z        PSCENC =       139.07084690
  Ewald energy   TEWEN  =      7514.97819711
  -Hartree energ DENC   =    -12926.80764954
  -exchange      EXHF   =         0.00000000
  -V(xc)+E(xc)   XCENC  =      -325.91639638
  PAW double counting   =      6236.97248100    -5567.21927770
  entropy T*S    EENTRO =        -0.00324682
  eigenvalues    EBANDS =      -117.80740531
  atomic energy  EATOM  =      4905.68083858
  ---------------------------------------------------
  free energy    TOTEN  =      -141.05161216 eV

  energy without entropy =     -141.04836534  energy(sigma->0) =     -141.04998875


--------------------------------------------------------------------------------------------------------




----------------------------------------- Iteration    1(  11)  ---------------------------------------


    POTLOK:  cpu time    0.09: real time    0.09
    SETDIJ:  cpu time    0.09: real time    0.09
     EDDAV:  cpu time   10.70: real time   10.72
       DOS:  cpu time    0.00: real time    0.00
    CHARGE:  cpu time    0.71: real time    0.71
    MIXING:  cpu time    0.00: real time    0.00
    --------------------------------------------
      LOOP:  cpu time   11.61: real time   11.62

 eigenvalue-minimisations  :  7600
 total energy-change (2. order) : 0.3179173E-02  (-0.1051581E-02)
 number of electron      99.0000001 magnetization 
 augmentation part        6.3004621 magnetization 

 Broyden mixing:
  rms(total) = 0.26165E-01    rms(broyden)= 0.26164E-01
  rms(prec ) = 0.28069E-01
  weight for this iteration     100.00

 eigenvalues of (default mixing * dielectric matrix)
  average eigenvalue GAMMA=   1.3719
  2.6000  1.8117  1.0257  1.0257  1.0420  0.7262

 Free energy of the ion-electron system (eV)
  ---------------------------------------------------
  alpha Z        PSCENC =       139.07084690
  Ewald energy   TEWEN  =      7514.97819711
  -Hartree energ DENC   =    -12926.07121840
  -exchange      EXHF   =         0.00000000
  -V(xc)+E(xc)   XCENC  =      -325.93243111
  PAW double counting   =      6230.21503461    -5560.45469480
  entropy T*S    EENTRO =        -0.00320924
  eigenvalues    EBANDS =      -118.53179663
  atomic energy  EATOM  =      4905.68083858
  ---------------------------------------------------
  free energy    TOTEN  =      -141.04843298 eV

  energy without entropy =     -141.04522374  energy(sigma->0) =     -141.04682836


--------------------------------------------------------------------------------------------------------




----------------------------------------- Iteration    1(  12)  ---------------------------------------


    POTLOK:  cpu time    0.10: real time    0.10
    SETDIJ:  cpu time    0.10: real time    0.10
     EDDAV:  cpu time   10.42: real time   10.44
       DOS:  cpu time    0.00: real time    0.00
    CHARGE:  cpu time    0.71: real time    0.71
    MIXING:  cpu time    0.00: real time    0.00
    --------------------------------------------
      LOOP:  cpu time   11.34: real time   11.36

 eigenvalue-minimisations  :  7224
 total energy-change (2. order) : 0.3628850E-03  (-0.1768115E-02)
 number of electron      99.0000001 magnetization 
 augmentation part        6.3032675 magnetization 

 Broyden mixing:
  rms(total) = 0.17508E-01    rms(broyden)= 0.17493E-01
  rms(prec ) = 0.19249E-01
  weight for this iteration     100.00

 eigenvalues of (default mixing * dielectric matrix)
  average eigenvalue GAMMA=   1.3697
  2.7879  2.4409  0.9133  0.9133  0.9484  0.9484  0.6354

 Free energy of the ion-electron system (eV)
  ---------------------------------------------------
  alpha Z        PSCENC =       139.07084690
  Ewald energy   TEWEN  =      7514.97819711
  -Hartree energ DENC   =    -12925.54753159
  -exchange      EXHF   =         0.00000000
  -V(xc)+E(xc)   XCENC  =      -325.90203161
  PAW double counting   =      6208.34806449    -5538.59448536
  entropy T*S    EENTRO =        -0.00312652
  eigenvalues    EBANDS =      -119.07884211
  atomic energy  EATOM  =      4905.68083858
  ---------------------------------------------------
  free energy    TOTEN  =      -141.04807010 eV

  energy without entropy =     -141.04494358  energy(sigma->0) =     -141.04650684


--------------------------------------------------------------------------------------------------------




----------------------------------------- Iteration    1(  13)  ---------------------------------------


    POTLOK:  cpu time    0.10: real time    0.10
    SETDIJ:  cpu time    0.11: real time    0.11
     EDDAV:  cpu time   11.75: real time   11.77
       DOS:  cpu time    0.00: real time    0.00
    CHARGE:  cpu time    0.70: real time    0.70
    MIXING:  cpu time    0.00: real time    0.00
    --------------------------------------------
      LOOP:  cpu time   12.66: real time   12.68

 eigenvalue-minimisations  :  8408
 total energy-change (2. order) : 0.7279212E-03  (-0.1902291E-03)
 number of electron      99.0000001 magnetization 
 augmentation part        6.3064918 magnetization 

 Broyden mixing:
  rms(total) = 0.10343E-01    rms(broyden)= 0.10342E-01
  rms(prec ) = 0.12466E-01
  weight for this iteration     100.00

 eigenvalues of (default mixing * dielectric matrix)
  average eigenvalue GAMMA=   1.3792
  2.8324  2.4690  0.9772  0.9772  1.2527  0.9289  0.9289  0.6669

 Free energy of the ion-electron system (eV)
  ---------------------------------------------------
  alpha Z        PSCENC =       139.07084690
  Ewald energy   TEWEN  =      7514.97819711
  -Hartree energ DENC   =    -12924.94199587
  -exchange      EXHF   =         0.00000000
  -V(xc)+E(xc)   XCENC  =      -325.91146466
  PAW double counting   =      6193.92920978    -5524.17295846
  entropy T*S    EENTRO =        -0.00313401
  eigenvalues    EBANDS =      -119.67688154
  atomic energy  EATOM  =      4905.68083858
  ---------------------------------------------------
  free energy    TOTEN  =      -141.04734218 eV

  energy without entropy =     -141.04420817  energy(sigma->0) =     -141.04577517


--------------------------------------------------------------------------------------------------------




----------------------------------------- Iteration    1(  14)  ---------------------------------------


    POTLOK:  cpu time    0.10: real time    0.10
    SETDIJ:  cpu time    0.09: real time    0.09
     EDDAV:  cpu time   11.07: real time   11.08
       DOS:  cpu time    0.00: real time    0.00
    CHARGE:  cpu time    0.69: real time    0.69
    MIXING:  cpu time    0.00: real time    0.00
    --------------------------------------------
      LOOP:  cpu time   11.95: real time   11.97

 eigenvalue-minimisations  :  7816
 total energy-change (2. order) : 0.3897473E-03  (-0.1557992E-03)
 number of electron      99.0000001 magnetization 
 augmentation part        6.3060763 magnetization 

 Broyden mixing:
  rms(total) = 0.30113E-02    rms(broyden)= 0.30052E-02
  rms(prec ) = 0.68163E-02
  weight for this iteration     100.00

 eigenvalues of (default mixing * dielectric matrix)
  average eigenvalue GAMMA=   1.3816
  2.9704  2.5538  1.5853  0.9044  0.9044  1.0282  0.8945  0.8945  0.6991

 Free energy of the ion-electron system (eV)
  ---------------------------------------------------
  alpha Z        PSCENC =       139.07084690
  Ewald energy   TEWEN  =      7514.97819711
  -Hartree energ DENC   =    -12924.65374534
  -exchange      EXHF   =         0.00000000
  -V(xc)+E(xc)   XCENC  =      -325.91017284
  PAW double counting   =      6192.89132782    -5523.13557451
  entropy T*S    EENTRO =        -0.00314090
  eigenvalues    EBANDS =      -119.96552925
  atomic energy  EATOM  =      4905.68083858
  ---------------------------------------------------
  free energy    TOTEN  =      -141.04695243 eV

  energy without entropy =     -141.04381153  energy(sigma->0) =     -141.04538198


--------------------------------------------------------------------------------------------------------




----------------------------------------- Iteration    1(  15)  ---------------------------------------


    POTLOK:  cpu time    0.10: real time    0.10
    SETDIJ:  cpu time    0.10: real time    0.10
     EDDAV:  cpu time   13.48: real time   13.50
       DOS:  cpu time    0.00: real time    0.00
    CHARGE:  cpu time    0.70: real time    0.70
    MIXING:  cpu time    0.00: real time    0.00
    --------------------------------------------
      LOOP:  cpu time   14.38: real time   14.40

 eigenvalue-minimisations  : 10000
 total energy-change (2. order) : 0.5183634E-03  (-0.3220997E-04)
 number of electron      99.0000001 magnetization 
 augmentation part        6.3061144 magnetization 

 Broyden mixing:
  rms(total) = 0.24680E-02    rms(broyden)= 0.24670E-02
  rms(prec ) = 0.53583E-02
  weight for this iteration     100.00

 eigenvalues of (default mixing * dielectric matrix)
  average eigenvalue GAMMA=   1.4354
  3.0775  2.5876  2.4182  0.9142  0.9142  0.9509  0.9509  0.9306  0.9306  0.6793

 Free energy of the ion-electron system (eV)
  ---------------------------------------------------
  alpha Z        PSCENC =       139.07084690
  Ewald energy   TEWEN  =      7514.97819711
  -Hartree energ DENC   =    -12924.01650105
  -exchange      EXHF   =         0.00000000
  -V(xc)+E(xc)   XCENC  =      -325.90641560
  PAW double counting   =      6192.18609853    -5522.43004586
  entropy T*S    EENTRO =        -0.00315307
  eigenvalues    EBANDS =      -120.60629962
  atomic energy  EATOM  =      4905.68083858
  ---------------------------------------------------
  free energy    TOTEN  =      -141.04643407 eV

  energy without entropy =     -141.04328100  energy(sigma->0) =     -141.04485753


--------------------------------------------------------------------------------------------------------




----------------------------------------- Iteration    1(  16)  ---------------------------------------


    POTLOK:  cpu time    0.09: real time    0.09
    SETDIJ:  cpu time    0.09: real time    0.09
     EDDAV:  cpu time   10.73: real time   10.74
       DOS:  cpu time    0.00: real time    0.00
    CHARGE:  cpu time    0.68: real time    0.68
    MIXING:  cpu time    0.00: real time    0.00
    --------------------------------------------
      LOOP:  cpu time   11.60: real time   11.62

 eigenvalue-minimisations  :  7544
 total energy-change (2. order) : 0.2869425E-03  (-0.3384842E-04)
 number of electron      99.0000001 magnetization 
 augmentation part        6.3054468 magnetization 

 Broyden mixing:
  rms(total) = 0.26208E-02    rms(broyden)= 0.26202E-02
  rms(prec ) = 0.47045E-02
  weight for this iteration     100.00

 eigenvalues of (default mixing * dielectric matrix)
  average eigenvalue GAMMA=   1.5040
  3.5315  2.7883  2.4327  1.2553  1.2553  0.9395  0.9395  0.9206  0.9206  0.8732
  0.6872

 Free energy of the ion-electron system (eV)
  ---------------------------------------------------
  alpha Z        PSCENC =       139.07084690
  Ewald energy   TEWEN  =      7514.97819711
  -Hartree energ DENC   =    -12923.62608576
  -exchange      EXHF   =         0.00000000
  -V(xc)+E(xc)   XCENC  =      -325.89919904
  PAW double counting   =      6195.17644269    -5525.42121284
  entropy T*S    EENTRO =        -0.00315268
  eigenvalues    EBANDS =      -121.00282209
  atomic energy  EATOM  =      4905.68083858
  ---------------------------------------------------
  free energy    TOTEN  =      -141.04614712 eV

  energy without entropy =     -141.04299445  energy(sigma->0) =     -141.04457079


--------------------------------------------------------------------------------------------------------




----------------------------------------- Iteration    1(  17)  ---------------------------------------


    POTLOK:  cpu time    0.09: real time    0.09
    SETDIJ:  cpu time    0.09: real time    0.09
     EDDAV:  cpu time   13.69: real time   13.71
       DOS:  cpu time    0.00: real time    0.00
    CHARGE:  cpu time    0.69: real time    0.69
    MIXING:  cpu time    0.00: real time    0.00
    --------------------------------------------
      LOOP:  cpu time   14.57: real time   14.59

 eigenvalue-minimisations  : 10192
 total energy-change (2. order) : 0.3476561E-03  (-0.3841247E-04)
 number of electron      99.0000001 magnetization 
 augmentation part        6.3058204 magnetization 

 Broyden mixing:
  rms(total) = 0.30042E-02    rms(broyden)= 0.30035E-02
  rms(prec ) = 0.41115E-02
  weight for this iteration     100.00

 eigenvalues of (default mixing * dielectric matrix)
  average eigenvalue GAMMA=   1.5748
  3.8864  3.1026  2.5498  2.1836  0.9354  0.9354  0.9099  0.9099  0.6841  0.9349
  0.9349  0.9307

 Free energy of the ion-electron system (eV)
  ---------------------------------------------------
  alpha Z        PSCENC =       139.07084690
  Ewald energy   TEWEN  =      7514.97819711
  -Hartree energ DENC   =    -12922.81075291
  -exchange      EXHF   =         0.00000000
  -V(xc)+E(xc)   XCENC  =      -325.90036660
  PAW double counting   =      6196.01683759    -5526.26107742
  entropy T*S    EENTRO =        -0.00315094
  eigenvalues    EBANDS =      -121.81717177
  atomic energy  EATOM  =      4905.68083858
  ---------------------------------------------------
  free energy    TOTEN  =      -141.04579947 eV

  energy without entropy =     -141.04264853  energy(sigma->0) =     -141.04422400


--------------------------------------------------------------------------------------------------------




----------------------------------------- Iteration    1(  18)  ---------------------------------------


    POTLOK:  cpu time    0.10: real time    0.10
    SETDIJ:  cpu time    0.10: real time    0.10
     EDDAV:  cpu time   11.64: real time   11.66
       DOS:  cpu time    0.00: real time    0.00
    CHARGE:  cpu time    0.70: real time    0.70
    MIXING:  cpu time    0.00: real time    0.00
    --------------------------------------------
      LOOP:  cpu time   12.54: real time   12.56

 eigenvalue-minimisations  :  8288
 total energy-change (2. order) : 0.1466683E-03  (-0.3638706E-04)
 number of electron      99.0000001 magnetization 
 augmentation part        6.3058899 magnetization 

 Broyden mixing:
  rms(total) = 0.26491E-02    rms(broyden)= 0.26488E-02
  rms(prec ) = 0.34160E-02
  weight for this iteration     100.00

 eigenvalues of (default mixing * dielectric matrix)
  average eigenvalue GAMMA=   1.5259
  3.8349  3.3761  2.5627  2.2559  0.9227  0.9227  0.9694  0.9694  0.9507  0.9349
  0.9349  0.6862  0.5158

 Free energy of the ion-electron system (eV)
  ---------------------------------------------------
  alpha Z        PSCENC =       139.07084690
  Ewald energy   TEWEN  =      7514.97819711
  -Hartree energ DENC   =    -12922.38171562
  -exchange      EXHF   =         0.00000000
  -V(xc)+E(xc)   XCENC  =      -325.89848697
  PAW double counting   =      6196.32154222    -5526.56576672
  entropy T*S    EENTRO =        -0.00315343
  eigenvalues    EBANDS =      -122.24795488
  atomic energy  EATOM  =      4905.68083858
  ---------------------------------------------------
  free energy    TOTEN  =      -141.04565280 eV

  energy without entropy =     -141.04249937  energy(sigma->0) =     -141.04407609


--------------------------------------------------------------------------------------------------------




----------------------------------------- Iteration    1(  19)  ---------------------------------------


    POTLOK:  cpu time    0.09: real time    0.09
    SETDIJ:  cpu time    0.09: real time    0.09
     EDDAV:  cpu time   12.30: real time   12.32
       DOS:  cpu time    0.00: real time    0.00
    CHARGE:  cpu time    0.69: real time    0.69
    MIXING:  cpu time    0.01: real time    0.01
    --------------------------------------------
      LOOP:  cpu time   13.19: real time   13.21

 eigenvalue-minimisations  :  8944
 total energy-change (2. order) : 0.1060736E-03  (-0.5324658E-04)
 number of electron      99.0000001 magnetization 
 augmentation part        6.3055389 magnetization 

 Broyden mixing:
  rms(total) = 0.26317E-02    rms(broyden)= 0.26303E-02
  rms(prec ) = 0.30738E-02
  weight for this iteration     100.00

 eigenvalues of (default mixing * dielectric matrix)
  average eigenvalue GAMMA=   1.7400
  6.8271  3.0115  2.6091  2.5160  1.0508  1.0508  0.9331  0.9331  1.0437  1.0437
  0.9099  0.9099  0.6814  0.8396

 Free energy of the ion-electron system (eV)
  ---------------------------------------------------
  alpha Z        PSCENC =       139.07084690
  Ewald energy   TEWEN  =      7514.97819711
  -Hartree energ DENC   =    -12922.09366213
  -exchange      EXHF   =         0.00000000
  -V(xc)+E(xc)   XCENC  =      -325.89641190
  PAW double counting   =      6196.20149428    -5526.44648209
  entropy T*S    EENTRO =        -0.00316187
  eigenvalues    EBANDS =      -122.53720561
  atomic energy  EATOM  =      4905.68083858
  ---------------------------------------------------
  free energy    TOTEN  =      -141.04554673 eV

  energy without entropy =     -141.04238486  energy(sigma->0) =     -141.04396579


--------------------------------------------------------------------------------------------------------




----------------------------------------- Iteration    1(  20)  ---------------------------------------


    POTLOK:  cpu time    0.10: real time    0.10
    SETDIJ:  cpu time    0.09: real time    0.09
     EDDAV:  cpu time   10.68: real time   10.70
       DOS:  cpu time    0.00: real time    0.00
    CHARGE:  cpu time    0.68: real time    0.68
    MIXING:  cpu time    0.01: real time    0.01
    --------------------------------------------
      LOOP:  cpu time   11.55: real time   11.57

 eigenvalue-minimisations  :  7856
 total energy-change (2. order) : 0.5456672E-04  (-0.2434922E-04)
 number of electron      99.0000001 magnetization 
 augmentation part        6.3057191 magnetization 

 Broyden mixing:
  rms(total) = 0.24376E-02    rms(broyden)= 0.24373E-02
  rms(prec ) = 0.26620E-02
  weight for this iteration     100.00

 eigenvalues of (default mixing * dielectric matrix)
  average eigenvalue GAMMA=   1.6248
  6.8305  3.0115  2.6113  2.5140  1.0512  1.0512  0.9331  0.9331  1.0439  1.0439
  0.9100  0.9100  0.6814  0.8399  0.0067

 Free energy of the ion-electron system (eV)
  ---------------------------------------------------
  alpha Z        PSCENC =       139.07084690
  Ewald energy   TEWEN  =      7514.97819711
  -Hartree energ DENC   =    -12921.77375222
  -exchange      EXHF   =         0.00000000
  -V(xc)+E(xc)   XCENC  =      -325.89830671
  PAW double counting   =      6195.57696618    -5525.82181320
  entropy T*S    EENTRO =        -0.00316227
  eigenvalues    EBANDS =      -122.85530653
  atomic energy  EATOM  =      4905.68083858
  ---------------------------------------------------
  free energy    TOTEN  =      -141.04549216 eV

  energy without entropy =     -141.04232989  energy(sigma->0) =     -141.04391103


--------------------------------------------------------------------------------------------------------




----------------------------------------- Iteration    1(  21)  ---------------------------------------


    POTLOK:  cpu time    0.09: real time    0.09
    SETDIJ:  cpu time    0.09: real time    0.09
     EDDAV:  cpu time    9.71: real time    9.73
       DOS:  cpu time    0.00: real time    0.00
    CHARGE:  cpu time    0.67: real time    0.67
    MIXING:  cpu time    0.01: real time    0.01
    --------------------------------------------
      LOOP:  cpu time   10.57: real time   10.59

 eigenvalue-minimisations  :  7160
 total energy-change (2. order) : 0.1995229E-04  (-0.1816311E-04)
 number of electron      99.0000001 magnetization 
 augmentation part        6.3059088 magnetization 

 Broyden mixing:
  rms(total) = 0.11914E-02    rms(broyden)= 0.11908E-02
  rms(prec ) = 0.14225E-02
  weight for this iteration     100.00

 eigenvalues of (default mixing * dielectric matrix)
  average eigenvalue GAMMA=   1.6382
  6.8794  3.1869  2.5801  2.4201  1.1012  1.1012  0.9350  0.9350  1.0705  1.0705
  0.9125  0.9125  0.6816  0.8192  0.8024  0.8024

 Free energy of the ion-electron system (eV)
  ---------------------------------------------------
  alpha Z        PSCENC =       139.07084690
  Ewald energy   TEWEN  =      7514.97819711
  -Hartree energ DENC   =    -12921.66055208
  -exchange      EXHF   =         0.00000000
  -V(xc)+E(xc)   XCENC  =      -325.89834175
  PAW double counting   =      6195.84384215    -5526.08845793
  entropy T*S    EENTRO =        -0.00316077
  eigenvalues    EBANDS =      -122.96868442
  atomic energy  EATOM  =      4905.68083858
  ---------------------------------------------------
  free energy    TOTEN  =      -141.04547221 eV

[...]
     53       8.2566      0.00000
     54       9.0210      0.00000
     55       9.8678      0.00000
     56      10.5281      0.00000
     57      10.7495      0.00000
     58      11.0097      0.00000
     59      11.1350      0.00000
     60      11.2843      0.00000
     61      11.5371      0.00000
     62      11.7135      0.00000
     63      11.8857      0.00000
     64      12.1250      0.00000

 k-point    47 :      -0.3846    0.3846    0.0000
  band No.  band energies     occupation 
      1     -13.0212      2.00000
      2     -13.0104      2.00000
      3     -12.9013      2.00000
      4     -12.8546      2.00000
      5     -12.7878      2.00000
      6     -12.7117      2.00000
      7     -12.6341      2.00000
      8     -12.5624      2.00000
      9     -12.5052      2.00000
     10     -12.4594      2.00000
     11      -0.9377      2.00000
     12      -0.8961      2.00000
     13      -0.8102      2.00000
     14      -0.6960      2.00000
     15      -0.5772      2.00000
     16      -0.5531      2.00000
     17      -0.4341      2.00000
     18      -0.3676      2.00000
     19      -0.2959      2.00000
     20      -0.1836      2.00000
     21      -0.0789      2.00000
     22       0.0540      2.00000
     23       0.2437      2.00000
     24       0.5247      2.00000
     25       0.7966      2.00000
     26       1.1073      2.00000
     27       1.3249      2.00000
     28       1.5879      2.00000
     29       1.8090      2.00000
     30       1.9100      2.00000
     31       1.9936      2.00000
     32       2.0184      2.00000
     33       2.0282      2.00000
     34       2.2683      2.00000
     35       2.2695      2.00000
     36       2.3120      2.00000
     37       2.3199      2.00000
     38       2.3970      2.00000
     39       2.4890      2.00000
     40       2.5362      2.00000
     41       2.5856      2.00000
     42       2.6771      2.00000
     43       2.7514      2.00000
     44       2.8088      2.00000
     45       3.4118      2.00000
     46       4.6315      2.00000
     47       4.7054      2.00000
     48       4.9769      2.00000
     49       5.5393      2.00000
     50       6.5508      2.00000
     51       6.8048      2.00000
     52       7.8309      0.00000
     53       8.2928      0.00000
     54       9.1823      0.00000
     55       9.9572      0.00000
     56      10.5809      0.00000
     57      11.0087      0.00000
     58      11.1077      0.00000
     59      11.4718      0.00000
     60      11.5994      0.00000
     61      11.9049      0.00000
     62      12.2504      0.00000
     63      12.3728      0.00000
     64      12.4996      0.00000

 k-point    48 :       0.4615    0.4615   -0.0000
  band No.  band energies     occupation 
      1     -12.8574      2.00000
      2     -12.8486      2.00000
      3     -12.6715      2.00000
      4     -12.6501      2.00000
      5     -12.6230      2.00000
      6     -12.5882      2.00000
      7     -12.5505      2.00000
      8     -12.5147      2.00000
      9     -12.4847      2.00000
     10     -12.4561      2.00000
     11      -1.1973      2.00000
     12      -1.1146      2.00000
     13      -0.9719      2.00000
     14      -0.7894      2.00000
     15      -0.6971      2.00000
     16      -0.6392      2.00000
     17      -0.5966      2.00000
     18      -0.5446      2.00000
     19      -0.4602      2.00000
     20      -0.4519      2.00000
     21       0.5818      2.00000
     22       0.5931      2.00000
     23       1.2562      2.00000
     24       1.3112      2.00000
     25       1.4361      2.00000
     26       1.5222      2.00000
     27       1.6654      2.00000
     28       1.7059      2.00000
     29       1.7724      2.00000
     30       1.8523      2.00000
     31       2.0122      2.00000
     32       2.0430      2.00000
     33       2.0748      2.00000
     34       2.1357      2.00000
     35       2.1409      2.00000
     36       2.1771      2.00000
     37       2.3010      2.00000
     38       2.3321      2.00000
     39       2.4208      2.00000
     40       2.4736      2.00000
     41       2.4919      2.00000
     42       2.5744      2.00000
     43       2.5839      2.00000
     44       2.6806      2.00000
     45       3.1405      2.00000
     46       3.2549      2.00000
     47       4.0490      2.00000
     48       4.1097      2.00000
     49       4.9481      2.00000
     50       5.7947      2.00000
     51       6.5512      2.00000
     52       7.1563      0.00009
     53       8.2495      0.00000
     54       8.8884      0.00000
     55       9.6853      0.00000
     56      10.3429      0.00000
     57      10.6130      0.00000
     58      10.8094      0.00000
     59      11.1531      0.00000
     60      11.3024      0.00000
     61      11.5756      0.00000
     62      11.6070      0.00000
     63      11.9214      0.00000
     64      12.1005      0.00000

 k-point    49 :      -0.4615    0.4615    0.0000
  band No.  band energies     occupation 
      1     -12.8932      2.00000
      2     -12.8842      2.00000
      3     -12.7199      2.00000
      4     -12.6944      2.00000
      5     -12.6588      2.00000
      6     -12.6154      2.00000
      7     -12.5699      2.00000
      8     -12.5273      2.00000
      9     -12.4924      2.00000
     10     -12.4607      2.00000
     11      -1.2215      2.00000
     12      -1.1399      2.00000
     13      -0.9987      2.00000
     14      -0.8188      2.00000
     15      -0.7353      2.00000
     16      -0.6771      2.00000
     17      -0.6291      2.00000
     18      -0.5699      2.00000
     19      -0.4906      2.00000
     20      -0.4648      2.00000
     21       0.4768      2.00000
     22       0.4928      2.00000
     23       1.1016      2.00000
     24       1.2662      2.00000
     25       1.3717      2.00000
     26       1.5334      2.00000
     27       1.5679      2.00000
     28       1.7092      2.00000
     29       1.7631      2.00000
     30       1.8542      2.00000
     31       1.9571      2.00000
     32       1.9669      2.00000
     33       2.1982      2.00000
     34       2.2064      2.00000
     35       2.2568      2.00000
     36       2.3339      2.00000
     37       2.3786      2.00000
     38       2.4258      2.00000
     39       2.4815      2.00000
     40       2.5225      2.00000
     41       2.6141      2.00000
     42       2.6885      2.00000
     43       2.7460      2.00000
     44       2.8533      2.00000
     45       3.2404      2.00000
     46       3.3581      2.00000
     47       3.8482      2.00000
     48       4.3879      2.00000
     49       4.7822      2.00000
     50       5.9874      2.00000
     51       6.2353      2.00000
     52       7.4968      0.00000
     53       7.8372      0.00000
     54       9.1843      0.00000
     55       9.3480      0.00000
     56      10.5091      0.00000
     57      10.8327      0.00000
     58      11.0868      0.00000
     59      11.4169      0.00000
     60      11.5597      0.00000
     61      12.0533      0.00000
     62      12.1080      0.00000
     63      12.3237      0.00000
     64      12.4634      0.00000


--------------------------------------------------------------------------------------------------------


 soft charge-density along one line, spin component           1
         0         1         2         3         4         5         6         7         8         9
 total charge-density along one line
 
 pseudopotential strength for first ion, spin component:           1
 12.121   0.000 -14.744   0.000  -0.001   0.000  -0.001   0.000   0.001   0.000   0.001   0.000   0.001   0.000  -0.001   0.000
-14.744   0.000  17.953   0.000   0.001   0.000   0.001   0.000  -0.001   0.000  -0.002   0.000  -0.001   0.000   0.001   0.000
 -0.001   0.000   0.001   0.000  -8.243   0.000   0.002   0.000  -0.015   0.000   9.855   0.000  -0.003   0.000   0.021   0.000
 -0.001   0.000   0.001   0.000   0.002   0.000  -8.265   0.000  -0.001   0.000  -0.003   0.000   9.885   0.000   0.002   0.000
  0.001   0.000  -0.001   0.000  -0.015   0.000  -0.001   0.000  -8.260   0.000   0.021   0.000   0.002   0.000   9.879   0.000
  0.001   0.000  -0.002   0.000   9.855   0.000  -0.003   0.000   0.021   0.000 -11.618   0.000   0.005   0.000  -0.028   0.000
  0.001   0.000  -0.001   0.000  -0.003   0.000   9.885   0.000   0.002   0.000   0.005   0.000 -11.658   0.000  -0.003   0.000
 -0.001   0.000   0.001   0.000   0.021   0.000   0.002   0.000   9.879   0.000  -0.028   0.000  -0.003   0.000 -11.650   0.000
 total augmentation occupancy for first ion, spin component:           1
  2.568   0.350   0.006   0.013  -0.003   0.002  -0.004  -0.001
  0.350   0.088   0.004   0.000  -0.002   0.000  -0.011  -0.000
  0.006   0.004   2.104   0.004   0.003   0.232  -0.002   0.019
  0.013   0.000   0.004   2.118  -0.003  -0.002   0.259   0.001
 -0.003  -0.002   0.003  -0.003   2.108   0.019   0.001   0.253
  0.002   0.000   0.232  -0.002   0.019   0.030  -0.000   0.004
 -0.004  -0.011  -0.002   0.259   0.001  -0.000   0.039   0.000
 -0.001  -0.000   0.019   0.001   0.253   0.004   0.000   0.035


------------------------ aborting loop because EDIFF is reached ----------------------------------------


    CHARGE:  cpu time    0.66: real time    0.67
    FORLOC:  cpu time    0.03: real time    0.03
    FORNL :  cpu time    5.77: real time    5.77
    STRESS:  cpu time    6.45: real time    6.46
    FORCOR:  cpu time    0.12: real time    0.12
    FORHAR:  cpu time    0.05: real time    0.05
    MIXING:  cpu time    0.00: real time    0.00
    OFIELD:  cpu time    0.00: real time    0.00

  FORCE on cell =-STRESS in cart. coord.  units (eV):
  Direction    XX          YY          ZZ          XY          YZ          ZX
  --------------------------------------------------------------------------------------
  Alpha Z   139.07085   139.07085   139.07085
  Ewald   10665.31532 10610.32995-13298.89270    47.61892   -36.89704    21.30237
  Hartree 12445.78695 12431.71738-11495.19297    12.18452   -17.81928    10.28801
  E(xc)    -415.27804  -415.32885  -415.23718     0.04399     0.09727    -0.05616
  Local  -24341.51220-24277.08053 23565.61947   -55.79913    52.48732   -30.30352
  n-local   -60.48905   -69.99472   -62.54547    -1.83977     0.51489     3.17058
  augment    60.52339    60.73972    59.80016    -0.18738     0.15855    -0.09150
  Kinetic  1511.04409  1510.49964  1496.20824    -6.18137     3.43476    -0.89104
  Fock        0.00000     0.00000     0.00000     0.00000     0.00000     0.00000
  -------------------------------------------------------------------------------------
  Total      -2.78265    -2.80262   -11.16960     0.01730     0.00039    -0.00023
  in kB     -14.69180   -14.79729   -58.97325     0.09136     0.00207    -0.00119
  external pressure =      -29.49 kB  Pullay stress =        0.00 kB


 VOLUME and BASIS-vectors are now :
 -----------------------------------------------------------------------------
  energy-cutoff  :      520.00
  volume of cell :      303.45
      direct lattice vectors                 reciprocal lattice vectors
     2.581154139 -1.532413801  0.002747772     0.390243593  0.004749548 -0.000215002
    -0.036532577  3.001551301 -0.002747772     0.199235027  0.335586188  0.000215002
     0.022204590 -0.038459471 39.453330265    -0.000013303  0.000023041  0.025346433

  length of vectors
     3.001775525  3.001774874 39.453355259     0.390272553  0.390272638  0.025346447


 FORCES acting on ions
    electron-ion (+dipol)            ewald-force                    non-local-force                 convergence-correction
 -----------------------------------------------------------------------------------------------
   -.121E+01 0.210E+01 0.109E+04   0.146E+01 -.252E+01 -.109E+04   -.242E+00 0.420E+00 0.282E+00   -.609E-04 0.105E-03 -.461E-01
   -.188E+00 0.326E+00 0.365E+03   0.186E+00 -.323E+00 -.365E+03   0.117E-02 -.203E-02 0.164E-02   -.250E-05 0.433E-05 -.273E-01
   0.190E+00 -.328E+00 -.365E+03   -.188E+00 0.326E+00 0.365E+03   -.905E-03 0.157E-02 0.174E-01   0.292E-04 -.506E-04 0.439E-01
   0.121E+01 -.210E+01 -.109E+04   -.146E+01 0.253E+01 0.109E+04   0.244E+00 -.422E+00 -.301E+00   0.998E-04 -.173E-03 0.483E-01
   -.327E+00 0.566E+00 0.852E+03   0.346E+00 -.599E+00 -.852E+03   -.194E-01 0.335E-01 0.351E-01   -.168E-03 0.291E-03 -.498E-01
   -.321E+00 0.556E+00 0.608E+03   0.321E+00 -.555E+00 -.608E+03   0.198E-03 -.343E-03 0.843E-02   -.978E-04 0.169E-03 -.458E-01
   -.612E-01 0.106E+00 0.122E+03   0.596E-01 -.103E+00 -.122E+03   0.106E-02 -.184E-02 -.911E-03   -.325E-04 0.562E-04 -.467E-02
   0.633E-01 -.110E+00 -.122E+03   -.623E-01 0.108E+00 0.122E+03   -.583E-03 0.101E-02 0.304E-01   0.528E-04 -.914E-04 0.250E-01
   0.320E+00 -.554E+00 -.608E+03   -.320E+00 0.553E+00 0.608E+03   -.293E-03 0.507E-03 -.264E-02   0.109E-03 -.190E-03 0.582E-01
   0.327E+00 -.567E+00 -.852E+03   -.347E+00 0.602E+00 0.852E+03   0.196E-01 -.339E-01 -.540E-01   0.291E-03 -.504E-03 0.600E-01
   -.143E+00 0.248E+00 0.243E+03   0.141E+00 -.244E+00 -.243E+03   0.353E-02 -.612E-02 0.913E-02   0.841E-05 -.146E-04 -.155E-01
   -.171E-02 0.296E-02 -.144E-01   0.135E-02 -.235E-02 0.666E-02   0.470E-03 -.813E-03 -.351E-02   -.155E-05 0.268E-05 0.337E-02
   0.144E+00 -.249E+00 -.243E+03   -.142E+00 0.245E+00 0.243E+03   -.379E-02 0.656E-02 -.759E-02   -.970E-05 0.168E-04 0.193E-01
   0.727E+00 -.126E+01 0.325E+03   -.435E+00 0.754E+00 -.325E+03   -.291E+00 0.504E+00 -.750E-01   0.877E-05 -.152E-04 -.156E-01
   -.901E-01 0.156E+00 0.162E+03   0.894E-01 -.155E+00 -.162E+03   0.136E-02 -.236E-02 0.755E-02   0.606E-05 -.105E-04 -.116E-01
   -.511E-01 0.885E-01 0.811E+02   0.497E-01 -.860E-01 -.811E+02   0.226E-02 -.392E-02 0.302E-02   0.313E-05 -.542E-05 -.484E-02
   0.485E-01 -.839E-01 -.812E+02   -.476E-01 0.824E-01 0.811E+02   -.153E-02 0.264E-02 -.907E-02   -.604E-05 0.105E-04 0.109E-01
   0.892E-01 -.155E+00 -.162E+03   -.886E-01 0.154E+00 0.162E+03   -.110E-02 0.190E-02 -.785E-02   -.896E-05 0.155E-04 0.163E-01
   -.730E+00 0.126E+01 -.325E+03   0.438E+00 -.758E+00 0.325E+03   0.292E+00 -.505E+00 0.873E-01   -.118E-04 0.205E-04 0.176E-01
   0.501E-04 -.868E-04 0.170E-01   -.458E-04 0.793E-04 -.839E-02   -.340E-04 0.589E-04 0.220E-03   0.542E-05 -.938E-05 -.870E-02
   0.237E+00 -.410E+00 0.592E+03   -.290E+00 0.502E+00 -.596E+03   0.546E-01 -.946E-01 0.467E+01   0.974E-05 -.169E-04 -.202E-01
   -.132E+00 0.228E+00 0.412E+03   0.120E+00 -.208E+00 -.412E+03   0.104E-01 -.180E-01 0.104E+00   0.108E-04 -.187E-04 -.186E-01
   -.231E+00 0.400E+00 0.205E+03   0.158E+00 -.273E+00 -.205E+03   0.744E-01 -.129E+00 0.413E-01   0.796E-05 -.138E-04 -.160E-01
   -.238E+00 0.413E+00 -.592E+03   0.291E+00 -.504E+00 0.596E+03   -.544E-01 0.942E-01 -.466E+01   -.116E-04 0.200E-04 0.190E-01
   0.231E+00 -.400E+00 -.204E+03   -.158E+00 0.273E+00 0.205E+03   -.745E-01 0.129E+00 -.433E-01   -.362E-06 0.626E-06 0.132E-02
   0.132E+00 -.228E+00 -.412E+03   -.120E+00 0.208E+00 0.412E+03   -.107E-01 0.185E-01 -.105E+00   -.636E-05 0.110E-04 0.113E-01
 -----------------------------------------------------------------------------------------------
   -.392E-02 0.678E-02 -.761E-01   -.787E-13 0.278E-13 0.625E-12   0.384E-02 -.664E-02 0.263E-01   0.225E-03 -.389E-03 0.497E-01
 
 
 POSITION                                       TOTAL-FORCE (eV/Angst)
 -----------------------------------------------------------------------------------
      1.28928      0.70518      9.50983         0.000868     -0.001503      0.000503
      1.29671      0.69230     17.00238        -0.000708      0.001226     -0.002344
      1.27127      0.73637     24.50515         0.000558     -0.000967      0.011109
      1.27871      0.72349     31.99871        -0.000663      0.001149     -0.018582
      2.18692     -0.84958     12.00218        -0.000181      0.000313     -0.003737
      0.43266      2.18889     14.49915        -0.000065      0.000113     -0.001721
      2.16080     -0.80433     19.50560        -0.000608      0.001053     -0.005341
      0.40722      2.23296     22.00182         0.000408     -0.000707      0.018831
      2.13527     -0.76012     27.00864         0.000198     -0.000344      0.004109
      0.38102      2.27832     29.50609        -0.000079      0.000136     -0.006375
      1.30960      0.66997     13.24988         0.001481     -0.002566      0.015354
      1.28395      0.71442     20.75415         0.000105     -0.000182     -0.007906
      1.25836      0.75872     28.25794        -0.001564      0.002709     -0.015137
      0.44892      2.16072     10.74787         0.000390     -0.000676      0.001999
      2.17344     -0.82623     15.75293         0.000597     -0.001035      0.007233
      0.41973      2.21129     18.25102         0.000811     -0.001404      0.000265
      2.14817     -0.78247     23.25722        -0.000653      0.001130     -0.014416
      0.39449      2.25500     25.75489        -0.000546      0.000946     -0.010041
      2.11900     -0.73194     30.75925        -0.000214      0.000371      0.017802
     -0.03587      3.00040      1.02456        -0.000030      0.000052      0.000168
      2.55796     -1.49225      8.03772         0.001516     -0.002627     -0.000630
      1.74633     -0.08645      5.74685        -0.001297      0.002246     -0.001272
      0.83081      1.49926      3.37651         0.001529     -0.002648     -0.008559
      0.01003      2.92090     33.46960        -0.001444      0.002501      0.009970
      1.73731     -0.07083     38.13154        -0.001531      0.002652      0.008240
      0.82174      1.51498     35.76100         0.001119     -0.001938      0.000479
 -----------------------------------------------------------------------------------
    total drift:                                0.000144     -0.000249     -0.000151


--------------------------------------------------------------------------------------------------------



  FREE ENERGIE OF THE ION-ELECTRON SYSTEM (eV)
  ---------------------------------------------------
  free  energy   TOTEN  =      -141.05443850 eV

  energy  without entropy=     -141.05012846  energy(sigma->0) =     -141.05228348
 
 d Force = 0.8345263E-05[ 0.843E-05, 0.826E-05]  d Energy =-0.1171858E-04 0.201E-04
 d Force = 0.1086938E+01[ 0.109E+01, 0.109E+01]  d Ewald  = 0.1086938E+01 0.882E-10


--------------------------------------------------------------------------------------------------------


    POTLOK:  cpu time    0.18: real time    0.18


--------------------------------------------------------------------------------------------------------




--------------------------------------------------------------------------------------------------------


  
 reached required accuracy - stopping structural energy minimisation
     LOOP+:  cpu time   64.49: real time   64.53
    4ORBIT:  cpu time    0.00: real time    0.00

 total amount of memory used by VASP on root node   186918. kBytes
========================================================================

   base      :      30000. kBytes
   nonl-proj :      32413. kBytes
   fftplans  :      50691. kBytes
   grid      :      20321. kBytes
   one-center:         56. kBytes
   wavefun   :      53437. kBytes
 
  
  
 General timing and accounting informations for this job:
 ========================================================
  
                  Total CPU time used (sec):     2289.916
                            User time (sec):     2274.458
                          System time (sec):       15.458
                         Elapsed time (sec):     2292.229
  
                   Maximum memory used (kb):      289200.
                   Average memory used (kb):           0.
  
                          Minor page faults:       386299
                          Major page faults:            0
                 Voluntary context switches:          301
