       N       E                     dE             d eps       ncg     rms          rms(c)
DAV:   1     0.577586501275E+03    0.57759E+03   -0.48074E+04  2864   0.137E+03
DAV:   2    -0.102487547142E+03   -0.68007E+03   -0.64729E+03  3716   0.268E+02
DAV:   3    -0.167482117813E+03   -0.64995E+02   -0.64589E+02  3344   0.899E+01
DAV:   4    -0.168534146302E+03   -0.10520E+01   -0.10490E+01  3344   0.124E+01
DAV:   5    -0.168556429888E+03   -0.22284E-01   -0.22266E-01  3432   0.174E+00    0.240E+01
DAV:   6    -0.151370722796E+03    0.17186E+02   -0.97122E+01  3228   0.321E+01    0.818E+00
DAV:   7    -0.151223298885E+03    0.14742E+00   -0.23828E+00  3116   0.584E+00    0.496E+00
DAV:   8    -0.151131731529E+03    0.91567E-01   -0.89980E-01  3320   0.486E+00    0.133E+00
DAV:   9    -0.151097260235E+03    0.34471E-01   -0.15943E-01  3320   0.187E+00    0.675E-01
DAV:  10    -0.151101542590E+03   -0.42824E-02   -0.14418E-01  3240   0.157E+00    0.458E-01
DAV:  11    -0.151098746502E+03    0.27961E-02   -0.13415E-02  3312   0.533E-01    0.306E-01
DAV:  12    -0.151098075228E+03    0.67127E-03   -0.19407E-02  3320   0.590E-01    0.156E-01
DAV:  13    -0.151097876355E+03    0.19887E-03   -0.19179E-03  3464   0.241E-01    0.127E-01
DAV:  14    -0.151097572473E+03    0.30388E-03   -0.11258E-03  3584   0.175E-01    0.510E-02
DAV:  15    -0.151097434821E+03    0.13765E-03   -0.33516E-04  3448   0.119E-01    0.177E-02
DAV:  16    -0.151097321907E+03    0.11291E-03   -0.10518E-04  4072   0.106E-01    0.118E-02
DAV:  17    -0.151097180421E+03    0.14149E-03   -0.20794E-04  4552   0.176E-01    0.146E-02
DAV:  18    -0.151097115407E+03    0.65014E-04   -0.18628E-04  3744   0.152E-01    0.136E-02
DAV:  19    -0.151097095533E+03    0.19873E-04   -0.12956E-04  3384   0.898E-02    0.818E-03
DAV:  20    -0.151097083842E+03    0.11691E-04   -0.49994E-05  2920   0.643E-02    0.960E-03
DAV:  21    -0.151097063528E+03    0.20314E-04   -0.15906E-05  2168   0.884E-02    0.109E-02
DAV:  22    -0.151097052843E+03    0.10685E-04   -0.31094E-05  2640   0.819E-02    0.131E-02
DAV:  23    -0.151097047178E+03    0.56652E-05   -0.55914E-05  3116   0.893E-02
   1 F= -.15109705E+03 E0= -.15109515E+03  d E =-.151097E+03
       N       E                     dE             d eps       ncg     rms          rms(c)
DAV:   1    -0.151099417789E+03   -0.23649E-02   -0.14722E-02  2920   0.430E-01    0.528E-02
DAV:   2    -0.151099354012E+03    0.63776E-04   -0.15158E-03  3304   0.163E-01    0.408E-02
DAV:   3    -0.151099330701E+03    0.23312E-04   -0.15046E-04  3240   0.536E-02    0.294E-02
DAV:   4    -0.151099307097E+03    0.23604E-04   -0.12284E-04  3196   0.440E-02    0.125E-02
DAV:   5    -0.151099298911E+03    0.81854E-05   -0.13952E-05  2296   0.213E-02    0.971E-03
DAV:   6    -0.151099296793E+03    0.21188E-05   -0.16675E-05  2264   0.188E-02
   2 F= -.15109930E+03 E0= -.15109725E+03  d E =-.224961E-02
       N       E                     dE             d eps       ncg     rms          rms(c)
DAV:   1    -0.151100325468E+03   -0.10266E-02   -0.18172E-02  2904   0.484E-01    0.551E-02
DAV:   2    -0.151100258823E+03    0.66645E-04   -0.20009E-03  3320   0.177E-01    0.472E-02
DAV:   3    -0.151100219872E+03    0.38951E-04   -0.16637E-04  3232   0.576E-02    0.338E-02
DAV:   4    -0.151100180367E+03    0.39505E-04   -0.22697E-04  3224   0.634E-02    0.171E-02
DAV:   5    -0.151100167325E+03    0.13042E-04   -0.24914E-05  2664   0.269E-02    0.154E-02
DAV:   6    -0.151100159214E+03    0.81107E-05   -0.27486E-05  2608   0.251E-02
   3 F= -.15110016E+03 E0= -.15109798E+03  d E =-.311204E-02
       N       E                     dE             d eps       ncg     rms          rms(c)
DAV:   1    -0.151101664243E+03   -0.14969E-02   -0.11807E-01  2872   0.146E+00    0.517E-02
DAV:   2    -0.151101904357E+03   -0.24011E-03   -0.30885E-03  3240   0.209E-01    0.296E-02
DAV:   3    -0.151101881954E+03    0.22402E-04   -0.59762E-05  3328   0.427E-02    0.212E-02
DAV:   4    -0.151101859511E+03    0.22443E-04   -0.26142E-05  2632   0.358E-02    0.105E-02
DAV:   5    -0.151101840587E+03    0.18924E-04   -0.13381E-05  2136   0.410E-02    0.623E-03
DAV:   6    -0.151101825443E+03    0.15144E-04   -0.25371E-05  2632   0.465E-02    0.567E-03
DAV:   7    -0.151101809362E+03    0.16081E-04   -0.12351E-05  2152   0.509E-02    0.387E-03
DAV:   8    -0.151101799607E+03    0.97551E-05   -0.19107E-05  2392   0.600E-02
   4 F= -.15110180E+03 E0= -.15109960E+03  d E =-.164039E-02
       N       E                     dE             d eps       ncg     rms          rms(c)
DAV:   1    -0.151102638507E+03   -0.82914E-03   -0.85095E-01  2864   0.389E+00    0.137E-01
DAV:   2    -0.151104434383E+03   -0.17959E-02   -0.22881E-02  3248   0.555E-01    0.811E-02
DAV:   3    -0.151104282314E+03    0.15207E-03   -0.43309E-04  3392   0.100E-01    0.563E-02
DAV:   4    -0.151104190587E+03    0.91727E-04   -0.21572E-04  3404   0.800E-02    0.294E-02
DAV:   5    -0.151104124946E+03    0.65641E-04   -0.97160E-05  3400   0.685E-02    0.127E-02
DAV:   6    -0.151104090276E+03    0.34670E-04   -0.66430E-05  3352   0.573E-02    0.934E-03
DAV:   7    -0.151104067891E+03    0.22386E-04   -0.20889E-05  2408   0.381E-02    0.856E-03
DAV:   8    -0.151104026373E+03    0.41518E-04   -0.33074E-05  2592   0.751E-02    0.438E-03
DAV:   9    -0.151104010662E+03    0.15711E-04   -0.44438E-05  2976   0.600E-02    0.686E-03
DAV:  10    -0.151104004141E+03    0.65208E-05   -0.31175E-05  2712   0.425E-02
   5 F= -.15110400E+03 E0= -.15110164E+03  d E =-.384493E-02
       N       E                     dE             d eps       ncg     rms          rms(c)
DAV:   1    -0.151105137390E+03   -0.11267E-02   -0.27987E-01  2944   0.223E+00    0.700E-02
DAV:   2    -0.151105739875E+03   -0.60249E-03   -0.68140E-03  3192   0.307E-01    0.379E-02
DAV:   3    -0.151105700750E+03    0.39125E-04   -0.77767E-05  3268   0.474E-02    0.261E-02
DAV:   4    -0.151105665416E+03    0.35334E-04   -0.50076E-05  3136   0.500E-02    0.909E-03
DAV:   5    -0.151105657627E+03    0.77887E-05   -0.42237E-05  3168   0.411E-02    0.636E-03
DAV:   6    -0.151105655405E+03    0.22227E-05   -0.14103E-05  2040   0.222E-02
   6 F= -.15110566E+03 E0= -.15110327E+03  d E =-.165126E-02
       N       E                     dE             d eps       ncg     rms          rms(c)
DAV:   1    -0.151104242839E+03    0.14148E-02   -0.25129E+00  2920   0.669E+00    0.211E-01
DAV:   2    -0.151109692078E+03   -0.54492E-02   -0.61515E-02  3168   0.917E-01    0.116E-01
DAV:   3    -0.151109323609E+03    0.36847E-03   -0.65011E-04  3368   0.124E-01    0.779E-02
DAV:   4    -0.151109017551E+03    0.30606E-03   -0.47886E-04  3384   0.141E-01    0.298E-02
DAV:   5    -0.151108940492E+03    0.77058E-04   -0.44980E-04  3312   0.950E-02    0.196E-02
DAV:   6    -0.151108906211E+03    0.34281E-04   -0.79316E-05  3232   0.441E-02    0.118E-02
DAV:   7    -0.151108844913E+03    0.61298E-04   -0.39803E-05  2712   0.559E-02    0.108E-02
DAV:   8    -0.151108809348E+03    0.35565E-04   -0.31095E-05  2816   0.534E-02    0.107E-02
DAV:   9    -0.151108768822E+03    0.40526E-04   -0.72471E-05  3412   0.836E-02    0.847E-03
DAV:  10    -0.151108751243E+03    0.17579E-04   -0.45004E-05  2904   0.603E-02    0.776E-03
DAV:  11    -0.151108737990E+03    0.13253E-04   -0.20422E-05  2376   0.652E-02    0.523E-03
DAV:  12    -0.151108733269E+03    0.47209E-05   -0.24160E-05  2544   0.482E-02
   7 F= -.15110873E+03 E0= -.15110624E+03  d E =-.472913E-02
       N       E                     dE             d eps       ncg     rms          rms(c)
DAV:   1    -0.151088284447E+03    0.20454E-01   -0.10060E+01  2944   0.135E+01    0.430E-01
DAV:   2    -0.151110399184E+03   -0.22115E-01   -0.25001E-01  3140   0.186E+00    0.244E-01
DAV:   3    -0.151108860737E+03    0.15384E-02   -0.34288E-03  3328   0.245E-01    0.160E-01
DAV:   4    -0.151108143852E+03    0.71689E-03   -0.22996E-03  3348   0.221E-01    0.932E-02
DAV:   5    -0.151107515910E+03    0.62794E-03   -0.17874E-03  3348   0.184E-01    0.343E-02
DAV:   6    -0.151107353620E+03    0.16229E-03   -0.26653E-04  3432   0.103E-01    0.225E-02
DAV:   7    -0.151107144518E+03    0.20910E-03   -0.93078E-05  3368   0.102E-01    0.148E-02
DAV:   8    -0.151106964143E+03    0.18037E-03   -0.12069E-04  3712   0.129E-01    0.127E-02
DAV:   9    -0.151106746794E+03    0.21735E-03   -0.24384E-04  4316   0.219E-01    0.132E-02
DAV:  10    -0.151106669986E+03    0.76808E-04   -0.25889E-04  3560   0.155E-01    0.102E-02
DAV:  11    -0.151106624989E+03    0.44997E-04   -0.11578E-04  3680   0.130E-01    0.851E-03
DAV:  12    -0.151106611352E+03    0.13637E-04   -0.10111E-04  3128   0.779E-02    0.105E-02
DAV:  13    -0.151106600853E+03    0.10499E-04   -0.36350E-05  2744   0.400E-02    0.837E-03
DAV:  14    -0.151106558130E+03    0.42723E-04   -0.12524E-04  3800   0.201E-01    0.262E-02
DAV:  15    -0.151106551178E+03    0.69517E-05   -0.74837E-05  2912   0.670E-02
   8 F= -.15110655E+03 E0= -.15110390E+03  d E =-.254704E-02
       N       E                     dE             d eps       ncg     rms          rms(c)
DAV:   1    -0.151099986531E+03    0.65716E-02   -0.49381E+00  2920   0.941E+00    0.302E-01
DAV:   2    -0.151110978078E+03   -0.10992E-01   -0.12442E-01  3136   0.131E+00    0.165E-01
DAV:   3    -0.151110312801E+03    0.66528E-03   -0.16002E-03  3328   0.169E-01    0.116E-01
DAV:   4    -0.151109938428E+03    0.37437E-03   -0.11884E-03  3416   0.173E-01    0.644E-02
DAV:   5    -0.151109626898E+03    0.31153E-03   -0.10842E-03  3308   0.154E-01    0.316E-02
DAV:   6    -0.151109583662E+03    0.43236E-04   -0.21604E-04  3320   0.661E-02    0.229E-02
DAV:   7    -0.151109505508E+03    0.78154E-04   -0.83614E-05  3272   0.478E-02    0.135E-02
DAV:   8    -0.151109429771E+03    0.75736E-04   -0.27457E-05  2424   0.661E-02    0.148E-02
DAV:   9    -0.151109330241E+03    0.99530E-04   -0.15307E-04  3752   0.139E-01    0.920E-03
DAV:  10    -0.151109300525E+03    0.29716E-04   -0.11116E-04  3432   0.799E-02    0.827E-03
DAV:  11    -0.151109272990E+03    0.27535E-04   -0.30765E-05  2448   0.864E-02    0.857E-03
DAV:  12    -0.151109263865E+03    0.91246E-05   -0.50205E-05  3032   0.642E-02
   9 F= -.15110926E+03 E0= -.15110673E+03  d E =-.525972E-02
       N       E                     dE             d eps       ncg     rms          rms(c)
DAV:   1    -0.151110214812E+03   -0.94182E-03   -0.42396E-01  2896   0.281E+00    0.887E-02
DAV:   2    -0.151111067418E+03   -0.85261E-03   -0.10010E-02  3184   0.386E-01    0.479E-02
DAV:   3    -0.151111019868E+03    0.47550E-04   -0.14510E-04  3392   0.531E-02    0.321E-02
DAV:   4    -0.151111001504E+03    0.18363E-04   -0.97939E-05  3264   0.419E-02    0.188E-02
DAV:   5    -0.151110982273E+03    0.19231E-04   -0.55829E-05  2620   0.441E-02    0.738E-03
DAV:   6    -0.151110980061E+03    0.22122E-05   -0.20748E-05  2064   0.260E-02
  10 F= -.15111098E+03 E0= -.15110843E+03  d E =-.171620E-02
       N       E                     dE             d eps       ncg     rms          rms(c)
DAV:   1    -0.151107318901E+03    0.36634E-02   -0.38183E+00  2896   0.844E+00    0.266E-01
DAV:   2    -0.151115022066E+03   -0.77032E-02   -0.90504E-02  3188   0.116E+00    0.146E-01
DAV:   3    -0.151114589492E+03    0.43257E-03   -0.15573E-03  3400   0.153E-01    0.963E-02
DAV:   4    -0.151114448926E+03    0.14057E-03   -0.78909E-04  3272   0.981E-02    0.598E-02
DAV:   5    -0.151114307764E+03    0.14116E-03   -0.45894E-04  3224   0.100E-01    0.212E-02
DAV:   6    -0.151114299745E+03    0.80188E-05   -0.13565E-04  3288   0.627E-02    0.172E-02
DAV:   7    -0.151114283317E+03    0.16428E-04   -0.28844E-05  2824   0.434E-02    0.105E-02
DAV:   8    -0.151114271054E+03    0.12263E-04   -0.10318E-05  1956   0.313E-02    0.719E-03
DAV:   9    -0.151114246849E+03    0.24206E-04   -0.94677E-06  2164   0.555E-02    0.427E-03
DAV:  10    -0.151114220095E+03    0.26753E-04   -0.26442E-05  2652   0.813E-02    0.644E-03
DAV:  11    -0.151114191291E+03    0.28805E-04   -0.70898E-05  3520   0.161E-01    0.872E-03
DAV:  12    -0.151114194140E+03   -0.28490E-05   -0.89493E-05  2980   0.653E-02
  11 F= -.15111419E+03 E0= -.15111162E+03  d E =-.493027E-02
       N       E                     dE             d eps       ncg     rms          rms(c)
DAV:   1    -0.151084462789E+03    0.29729E-01   -0.15264E+01  2888   0.168E+01    0.530E-01
DAV:   2    -0.151115165246E+03   -0.30702E-01   -0.36228E-01  3200   0.232E+00    0.300E-01
DAV:   3    -0.151113407719E+03    0.17575E-02   -0.51006E-03  3388   0.304E-01    0.195E-01
DAV:   4    -0.151112543078E+03    0.86464E-03   -0.30100E-03  3264   0.262E-01    0.798E-02
DAV:   5    -0.151112423067E+03    0.12001E-03   -0.12612E-03  3292   0.153E-01    0.450E-02
DAV:   6    -0.151112391813E+03    0.31254E-04   -0.29034E-04  3384   0.917E-02    0.261E-02
DAV:   7    -0.151112371915E+03    0.19898E-04   -0.40695E-05  2864   0.407E-02    0.189E-02
DAV:   8    -0.151112329666E+03    0.42249E-04   -0.28238E-05  2548   0.567E-02    0.690E-03
DAV:   9    -0.151112309831E+03    0.19835E-04   -0.22398E-05  2376   0.448E-02    0.690E-03
DAV:  10    -0.151112275154E+03    0.34677E-04   -0.30211E-05  2720   0.783E-02    0.627E-03
DAV:  11    -0.151112235283E+03    0.39872E-04   -0.40673E-05  2872   0.114E-01    0.777E-03
DAV:  12    -0.151112213928E+03    0.21355E-04   -0.69724E-05  3328   0.125E-01    0.512E-03
DAV:  13    -0.151112218716E+03   -0.47888E-05   -0.98399E-05  2940   0.572E-02
  12 F= -.15111222E+03 E0= -.15110977E+03  d E =-.295485E-02
       N       E                     dE             d eps       ncg     rms          rms(c)
DAV:   1    -0.151101684914E+03    0.10529E-01   -0.74649E+00  2864   0.116E+01    0.362E-01
DAV:   2    -0.151116243317E+03   -0.14558E-01   -0.17167E-01  3208   0.159E+00    0.201E-01
DAV:   3    -0.151115391727E+03    0.85159E-03   -0.34356E-03  3376   0.209E-01    0.135E-01
DAV:   4    -0.151115115080E+03    0.27665E-03   -0.14351E-03  3236   0.130E-01    0.837E-02
DAV:   5    -0.151114878231E+03    0.23685E-03   -0.85391E-04  3288   0.131E-01    0.319E-02
DAV:   6    -0.151114872447E+03    0.57843E-05   -0.24620E-04  3320   0.808E-02    0.232E-02
DAV:   7    -0.151114862401E+03    0.10046E-04   -0.81535E-05  3240   0.536E-02    0.152E-02
DAV:   8    -0.151114854907E+03    0.74945E-05   -0.20210E-05  2172   0.266E-02
  13 F= -.15111485E+03 E0= -.15111230E+03  d E =-.559104E-02
       N       E                     dE             d eps       ncg     rms          rms(c)
DAV:   1    -0.151115791642E+03   -0.92924E-03   -0.42336E-01  2856   0.280E+00    0.825E-02
DAV:   2    -0.151116534197E+03   -0.74255E-03   -0.87868E-03  3236   0.381E-01    0.464E-02
DAV:   3    -0.151116483713E+03    0.50484E-04   -0.15589E-04  3396   0.574E-02    0.309E-02
DAV:   4    -0.151116451573E+03    0.32140E-04   -0.74241E-05  3248   0.413E-02    0.166E-02
DAV:   5    -0.151116429831E+03    0.21741E-04   -0.55954E-05  3064   0.446E-02    0.788E-03
DAV:   6    -0.151116426555E+03    0.32768E-05   -0.26512E-05  2472   0.308E-02
  14 F= -.15111643E+03 E0= -.15111389E+03  d E =-.157165E-02
       N       E                     dE             d eps       ncg     rms          rms(c)
DAV:   1    -0.151113524020E+03    0.29058E-02   -0.38245E+00  2856   0.842E+00    0.254E-01
DAV:   2    -0.151120490826E+03   -0.69668E-02   -0.81674E-02  3208   0.115E+00    0.138E-01
DAV:   3    -0.151120041364E+03    0.44946E-03   -0.11629E-03  3396   0.156E-01    0.909E-02
DAV:   4    -0.151119741860E+03    0.29950E-03   -0.73251E-04  3368   0.138E-01    0.384E-02
DAV:   5    -0.151119668987E+03    0.72873E-04   -0.45217E-04  3304   0.114E-01    0.241E-02
DAV:   6    -0.151119658221E+03    0.10766E-04   -0.18308E-04  3284   0.781E-02    0.190E-02
DAV:   7    -0.151119642141E+03    0.16080E-04   -0.33458E-05  2732   0.427E-02    0.128E-02
DAV:   8    -0.151119621182E+03    0.20960E-04   -0.32135E-06  1976   0.407E-02    0.965E-03
DAV:   9    -0.151119591012E+03    0.30169E-04   -0.13734E-05  2152   0.589E-02    0.492E-03
DAV:  10    -0.151119544765E+03    0.46247E-04   -0.47792E-05  3140   0.134E-01    0.653E-03
DAV:  11    -0.151119518969E+03    0.25796E-04   -0.63488E-05  3376   0.138E-01    0.902E-03
DAV:  12    -0.151119514721E+03    0.42481E-05   -0.90450E-05  3200   0.947E-02
  15 F= -.15111951E+03 E0= -.15111708E+03  d E =-.465981E-02
       N       E                     dE             d eps       ncg     rms          rms(c)
DAV:   1    -0.151092903033E+03    0.26616E-01   -0.15281E+01  2856   0.167E+01    0.517E-01
DAV:   2    -0.151121828596E+03   -0.28926E-01   -0.33771E-01  3224   0.228E+00    0.291E-01
DAV:   3    -0.151119899950E+03    0.19286E-02   -0.47961E-03  3380   0.299E-01    0.188E-01
DAV:   4    -0.151118693317E+03    0.12066E-02   -0.28968E-03  3360   0.263E-01    0.716E-02
DAV:   5    -0.151118546676E+03    0.14664E-03   -0.14773E-03  3328   0.196E-01    0.451E-02
DAV:   6    -0.151118520562E+03    0.26114E-04   -0.56475E-04  3320   0.138E-01    0.320E-02
DAV:   7    -0.151118507632E+03    0.12929E-04   -0.10823E-04  3128   0.426E-02    0.250E-02
DAV:   8    -0.151118464783E+03    0.42850E-04   -0.41656E-05  2976   0.435E-02    0.116E-02
DAV:   9    -0.151118430551E+03    0.34231E-04   -0.30290E-05  2788   0.500E-02    0.121E-02
DAV:  10    -0.151118407554E+03    0.22998E-04   -0.22066E-05  2496   0.529E-02    0.576E-03
DAV:  11    -0.151118358051E+03    0.49503E-04   -0.12152E-04  4364   0.171E-01    0.225E-02
DAV:  12    -0.151118328521E+03    0.29530E-04   -0.87232E-05  2960   0.763E-02    0.136E-02
DAV:  13    -0.151118304208E+03    0.24313E-04   -0.57219E-05  3016   0.824E-02    0.104E-02
DAV:  14    -0.151118298483E+03    0.57253E-05   -0.39414E-05  2916   0.619E-02
  16 F= -.15111830E+03 E0= -.15111602E+03  d E =-.344358E-02
       N       E                     dE             d eps       ncg     rms          rms(c)
DAV:   1    -0.151110213809E+03    0.80904E-02   -0.60669E+00  2872   0.104E+01    0.322E-01
DAV:   2    -0.151121599271E+03   -0.11385E-01   -0.13202E-01  3216   0.139E+00    0.174E-01
DAV:   3    -0.151120847010E+03    0.75226E-03   -0.16575E-03  3412   0.188E-01    0.113E-01
DAV:   4    -0.151120404292E+03    0.44272E-03   -0.11241E-03  3368   0.185E-01    0.434E-02
DAV:   5    -0.151120352471E+03    0.51821E-04   -0.78657E-04  3280   0.127E-01    0.304E-02
DAV:   6    -0.151120336865E+03    0.15605E-04   -0.92807E-05  3292   0.503E-02    0.193E-02
DAV:   7    -0.151120317225E+03    0.19640E-04   -0.35865E-05  2956   0.398E-02    0.824E-03
DAV:   8    -0.151120308314E+03    0.89108E-05   -0.84482E-06  2004   0.300E-02
  17 F= -.15112031E+03 E0= -.15111793E+03  d E =-.545341E-02
       N       E                     dE             d eps       ncg     rms          rms(c)
DAV:   1    -0.151120508955E+03   -0.19173E-03   -0.13749E+00  2856   0.501E+00    0.158E-01
DAV:   2    -0.151123253184E+03   -0.27442E-02   -0.31214E-02  3176   0.676E-01    0.841E-02
DAV:   3    -0.151123101213E+03    0.15197E-03   -0.32625E-04  3384   0.927E-02    0.551E-02
DAV:   4    -0.151122973784E+03    0.12743E-03   -0.30558E-04  3388   0.114E-01    0.191E-02
DAV:   5    -0.151122952013E+03    0.21771E-04   -0.15329E-04  3300   0.688E-02    0.190E-02
DAV:   6    -0.151122917019E+03    0.34995E-04   -0.50783E-05  2836   0.624E-02    0.991E-03
DAV:   7    -0.151122893351E+03    0.23668E-04   -0.21386E-05  2412   0.480E-02    0.100E-02
DAV:   8    -0.151122868236E+03    0.25115E-04   -0.97685E-06  2064   0.446E-02    0.593E-03
DAV:   9    -0.151122798996E+03    0.69240E-04   -0.50464E-05  3124   0.141E-01    0.830E-03
DAV:  10    -0.151122748692E+03    0.50304E-04   -0.79444E-05  3456   0.149E-01    0.664E-03
DAV:  11    -0.151122727054E+03    0.21638E-04   -0.12815E-04  3784   0.198E-01    0.143E-02
DAV:  12    -0.151122738946E+03   -0.11892E-04   -0.19441E-04  2852   0.559E-02    0.117E-02
DAV:  13    -0.151122739678E+03   -0.73171E-06   -0.14923E-05  1884   0.173E-02
  18 F= -.15112274E+03 E0= -.15112041E+03  d E =-.243136E-02
       N       E                     dE             d eps       ncg     rms          rms(c)
DAV:   1    -0.151118696024E+03    0.40429E-02   -0.32813E+00  2856   0.783E+00    0.241E-01
DAV:   2    -0.151125222150E+03   -0.65261E-02   -0.73683E-02  3164   0.105E+00    0.131E-01
DAV:   3    -0.151124885001E+03    0.33715E-03   -0.73748E-04  3396   0.132E-01    0.857E-02
DAV:   4    -0.151124659326E+03    0.22568E-03   -0.77864E-04  3368   0.160E-01    0.281E-02
DAV:   5    -0.151124648585E+03    0.10741E-04   -0.31095E-04  3284   0.841E-02    0.258E-02
DAV:   6    -0.151124619719E+03    0.28866E-04   -0.63405E-05  3104   0.541E-02    0.132E-02
DAV:   7    -0.151124598735E+03    0.20984E-04   -0.11592E-05  2104   0.428E-02    0.980E-03
DAV:   8    -0.151124566753E+03    0.31982E-04   -0.75806E-06  2128   0.565E-02    0.544E-03
DAV:   9    -0.151124511375E+03    0.55378E-04   -0.33795E-05  2800   0.116E-01    0.550E-03
DAV:  10    -0.151124459284E+03    0.52091E-04   -0.70265E-05  3444   0.160E-01    0.354E-03
DAV:  11    -0.151124428839E+03    0.30445E-04   -0.12503E-04  3812   0.226E-01    0.477E-03
DAV:  12    -0.151124449262E+03   -0.20423E-04   -0.22170E-04  2840   0.505E-02    0.101E-02
DAV:  13    -0.151124449458E+03   -0.19630E-06   -0.94242E-06  1848   0.121E-02
  19 F= -.15112445E+03 E0= -.15112217E+03  d E =-.414114E-02
       N       E                     dE             d eps       ncg     rms          rms(c)
DAV:   1    -0.151123549608E+03    0.89965E-03   -0.20410E+00  2896   0.618E+00    0.187E-01
DAV:   2    -0.151127835206E+03   -0.42856E-02   -0.47045E-02  3228   0.844E-01    0.105E-01
DAV:   3    -0.151127604694E+03    0.23051E-03   -0.53555E-04  3416   0.115E-01    0.704E-02
DAV:   4    -0.151127448623E+03    0.15607E-03   -0.35686E-04  3304   0.100E-01    0.256E-02
DAV:   5    -0.151127431617E+03    0.17006E-04   -0.14797E-04  3272   0.707E-02    0.158E-02
DAV:   6    -0.151127427987E+03    0.36300E-05   -0.78248E-05  3088   0.475E-02
  20 F= -.15112743E+03 E0= -.15112510E+03  d E =-.297853E-02
       N       E                     dE             d eps       ncg     rms          rms(c)
DAV:   1    -0.151116051688E+03    0.11380E-01   -0.69764E+00  2896   0.115E+01    0.348E-01
DAV:   2    -0.151130917746E+03   -0.14866E-01   -0.16299E-01  3228   0.157E+00    0.195E-01
DAV:   3    -0.151130130740E+03    0.78701E-03   -0.18614E-03  3400   0.212E-01    0.130E-01
DAV:   4    -0.151129615416E+03    0.51532E-03   -0.11481E-03  3312   0.184E-01    0.496E-02
DAV:   5    -0.151129537617E+03    0.77799E-04   -0.49228E-04  3296   0.134E-01    0.276E-02
DAV:   6    -0.151129519086E+03    0.18531E-04   -0.23945E-04  3328   0.853E-02    0.192E-02
DAV:   7    -0.151129496778E+03    0.22308E-04   -0.22906E-05  2484   0.432E-02    0.108E-02
DAV:   8    -0.151129471851E+03    0.24927E-04   -0.21814E-05  2304   0.521E-02    0.577E-03
DAV:   9    -0.151129451783E+03    0.20068E-04   -0.10305E-05  2148   0.500E-02    0.574E-03
DAV:  10    -0.151129422431E+03    0.29352E-04   -0.22861E-05  2632   0.864E-02    0.646E-03
DAV:  11    -0.151129397561E+03    0.24870E-04   -0.39187E-05  3000   0.104E-01    0.843E-03
DAV:  12    -0.151129382004E+03    0.15557E-04   -0.47293E-05  3052   0.115E-01    0.719E-03
DAV:  13    -0.151129385001E+03   -0.29962E-05   -0.10507E-04  2932   0.584E-02    0.918E-03
DAV:  14    -0.151129386395E+03   -0.13949E-05   -0.25634E-05  2212   0.205E-02
  21 F= -.15112939E+03 E0= -.15112694E+03  d E =-.493694E-02
       N       E                     dE             d eps       ncg     rms          rms(c)
DAV:   1    -0.151126918226E+03    0.24668E-02   -0.25873E+00  2888   0.698E+00    0.209E-01
DAV:   2    -0.151132430161E+03   -0.55119E-02   -0.58876E-02  3140   0.949E-01    0.113E-01
DAV:   3    -0.151132161512E+03    0.26865E-03   -0.54782E-04  3364   0.108E-01    0.750E-02
DAV:   4    -0.151131973322E+03    0.18819E-03   -0.47960E-04  3336   0.121E-01    0.231E-02
DAV:   5    -0.151131968314E+03    0.50081E-05   -0.24229E-04  3264   0.712E-02    0.188E-02
DAV:   6    -0.151131962231E+03    0.60833E-05   -0.36942E-05  2644   0.275E-02
  22 F= -.15113196E+03 E0= -.15112948E+03  d E =-.257584E-02
       N       E                     dE             d eps       ncg     rms          rms(c)
DAV:   1    -0.151087832238E+03    0.44136E-01   -0.23268E+01  2888   0.210E+01    0.643E-01
DAV:   2    -0.151138872897E+03   -0.51041E-01   -0.54765E-01  3144   0.289E+00    0.358E-01
DAV:   3    -0.151136181439E+03    0.26915E-02   -0.55628E-03  3356   0.341E-01    0.230E-01
DAV:   4    -0.151134607465E+03    0.15740E-02   -0.40836E-03  3300   0.323E-01    0.833E-02
DAV:   5    -0.151134412168E+03    0.19530E-03   -0.22512E-03  3236   0.216E-01    0.492E-02
DAV:   6    -0.151134350389E+03    0.61779E-04   -0.43593E-04  3284   0.982E-02    0.361E-02
DAV:   7    -0.151134291801E+03    0.58587E-04   -0.40877E-05  3204   0.399E-02    0.226E-02
DAV:   8    -0.151134188098E+03    0.10370E-03   -0.37684E-05  2720   0.807E-02    0.937E-03
DAV:   9    -0.151134090959E+03    0.97139E-04   -0.67530E-05  3464   0.114E-01    0.106E-02
DAV:  10    -0.151133997017E+03    0.93941E-04   -0.81836E-05  3560   0.146E-01    0.965E-03
DAV:  11    -0.151133914828E+03    0.82189E-04   -0.14304E-04  4064   0.214E-01    0.581E-03
DAV:  12    -0.151133910884E+03    0.39439E-05   -0.21060E-04  3232   0.104E-01    0.816E-03
DAV:  13    -0.151133909067E+03    0.18171E-05   -0.71857E-05  3044   0.466E-02
  23 F= -.15113391E+03 E0= -.15113132E+03  d E =-.452267E-02
       N       E                     dE             d eps       ncg     rms          rms(c)
DAV:   1    -0.151131177069E+03    0.27338E-02   -0.15547E+00  2896   0.542E+00    0.163E-01
DAV:   2    -0.151134473959E+03   -0.32969E-02   -0.35315E-02  3144   0.736E-01    0.864E-02
DAV:   3    -0.151134316300E+03    0.15766E-03   -0.36345E-04  3372   0.860E-02    0.582E-02
DAV:   4    -0.151134216678E+03    0.99622E-04   -0.28262E-04  3292   0.818E-02    0.216E-02
DAV:   5    -0.151134202243E+03    0.14435E-04   -0.13250E-04  3260   0.558E-02    0.155E-02
DAV:   6    -0.151134200105E+03    0.21382E-05   -0.39281E-05  2800   0.292E-02
  24 F= -.15113420E+03 E0= -.15113162E+03  d E =-.481371E-02
       N       E                     dE             d eps       ncg     rms          rms(c)
DAV:   1    -0.151131638442E+03    0.25638E-02   -0.34695E+00  2872   0.811E+00    0.240E-01
DAV:   2    -0.151138641917E+03   -0.70035E-02   -0.75704E-02  3148   0.109E+00    0.129E-01
DAV:   3    -0.151138297679E+03    0.34424E-03   -0.89131E-04  3376   0.128E-01    0.858E-02
DAV:   4    -0.151138105592E+03    0.19209E-03   -0.71257E-04  3288   0.129E-01    0.359E-02
DAV:   5    -0.151138042686E+03    0.62906E-04   -0.37524E-04  3396   0.833E-02    0.306E-02
DAV:   6    -0.151138025070E+03    0.17616E-04   -0.75633E-05  3176   0.470E-02    0.202E-02
DAV:   7    -0.151137997916E+03    0.27153E-04   -0.21789E-05  2324   0.399E-02    0.119E-02
DAV:   8    -0.151137975014E+03    0.22902E-04   -0.12564E-05  2092   0.429E-02    0.811E-03
DAV:   9    -0.151137928342E+03    0.46672E-04   -0.33970E-05  2744   0.940E-02    0.692E-03
DAV:  10    -0.151137902254E+03    0.26088E-04   -0.46984E-05  2916   0.705E-02    0.842E-03
DAV:  11    -0.151137875917E+03    0.26337E-04   -0.29663E-05  2660   0.853E-02    0.892E-03
DAV:  12    -0.151137852666E+03    0.23250E-04   -0.30511E-05  2660   0.123E-01    0.108E-02
DAV:  13    -0.151137850789E+03    0.18778E-05   -0.82936E-05  2940   0.702E-02
  25 F= -.15113785E+03 E0= -.15113527E+03  d E =-.365068E-02
       N       E                     dE             d eps       ncg     rms          rms(c)
DAV:   1    -0.151123184690E+03    0.14668E-01   -0.85735E+00  2864   0.128E+01    0.383E-01
DAV:   2    -0.151140580728E+03   -0.17396E-01   -0.18799E-01  3152   0.172E+00    0.204E-01
DAV:   3    -0.151139741779E+03    0.83895E-03   -0.21974E-03  3360   0.200E-01    0.135E-01
DAV:   4    -0.151139336728E+03    0.40505E-03   -0.17440E-03  3284   0.190E-01    0.586E-02
DAV:   5    -0.151139173387E+03    0.16334E-03   -0.88439E-04  3348   0.122E-01    0.446E-02
DAV:   6    -0.151139134791E+03    0.38596E-04   -0.17133E-04  3360   0.740E-02    0.288E-02
DAV:   7    -0.151139080323E+03    0.54468E-04   -0.44588E-05  3132   0.617E-02    0.172E-02
DAV:   8    -0.151139038196E+03    0.42127E-04   -0.30045E-05  2700   0.580E-02    0.118E-02
DAV:   9    -0.151138950361E+03    0.87835E-04   -0.58348E-05  3292   0.117E-01    0.982E-03
DAV:  10    -0.151138899569E+03    0.50792E-04   -0.64256E-05  3096   0.876E-02    0.115E-02
DAV:  11    -0.151138837746E+03    0.61824E-04   -0.74178E-05  3496   0.133E-01    0.113E-02
DAV:  12    -0.151138779882E+03    0.57864E-04   -0.12101E-04  3756   0.214E-01    0.163E-02
DAV:  13    -0.151138780542E+03   -0.66048E-06   -0.20201E-04  3044   0.890E-02    0.688E-03
DAV:  14    -0.151138787617E+03   -0.70744E-05   -0.85853E-05  2896   0.327E-02
  26 F= -.15113879E+03 E0= -.15113639E+03  d E =-.458751E-02
       N       E                     dE             d eps       ncg     rms          rms(c)
DAV:   1    -0.151137428977E+03    0.13516E-02   -0.94628E-01  2864   0.423E+00    0.125E-01
DAV:   2    -0.151139305611E+03   -0.18766E-02   -0.20224E-02  3160   0.567E-01    0.645E-02
DAV:   3    -0.151139219181E+03    0.86430E-04   -0.25117E-04  3376   0.666E-02    0.430E-02
DAV:   4    -0.151139177854E+03    0.41327E-04   -0.16600E-04  3304   0.583E-02    0.202E-02
DAV:   5    -0.151139157942E+03    0.19913E-04   -0.98647E-05  3284   0.431E-02    0.141E-02
DAV:   6    -0.151139154279E+03    0.36623E-05   -0.19796E-05  2008   0.243E-02
  27 F= -.15113915E+03 E0= -.15113669E+03  d E =-.495417E-02
       N       E                     dE             d eps       ncg     rms          rms(c)
DAV:   1    -0.151131509889E+03    0.76481E-02   -0.56345E+00  2904   0.102E+01    0.298E-01
DAV:   2    -0.151142880825E+03   -0.11371E-01   -0.12189E-01  3180   0.138E+00    0.172E-01
DAV:   3    -0.151142213116E+03    0.66771E-03   -0.11865E-03  3368   0.164E-01    0.116E-01
DAV:   4    -0.151141810984E+03    0.40213E-03   -0.13854E-03  3344   0.205E-01    0.460E-02
DAV:   5    -0.151141721291E+03    0.89693E-04   -0.83313E-04  3276   0.135E-01    0.371E-02
DAV:   6    -0.151141704747E+03    0.16544E-04   -0.14396E-04  3264   0.534E-02    0.272E-02
DAV:   7    -0.151141677526E+03    0.27221E-04   -0.35156E-05  2856   0.281E-02    0.158E-02
DAV:   8    -0.151141623366E+03    0.54160E-04   -0.49983E-05  3224   0.748E-02    0.135E-02
DAV:   9    -0.151141568814E+03    0.54552E-04   -0.61205E-05  3476   0.116E-01    0.125E-02
DAV:  10    -0.151141522724E+03    0.46090E-04   -0.47226E-05  3212   0.106E-01    0.130E-02
DAV:  11    -0.151141468639E+03    0.54085E-04   -0.47460E-05  3056   0.121E-01    0.890E-03
DAV:  12    -0.151141427023E+03    0.41617E-04   -0.11140E-04  3704   0.189E-01    0.173E-02
DAV:  13    -0.151141420719E+03    0.63042E-05   -0.16511E-04  3500   0.141E-01    0.814E-03
DAV:  14    -0.151141432922E+03   -0.12203E-04   -0.15074E-04  2928   0.455E-02    0.105E-02
DAV:  15    -0.151141433419E+03   -0.49730E-06   -0.50993E-06  1688   0.815E-03
  28 F= -.15114143E+03 E0= -.15113909E+03  d E =-.227914E-02
       N       E                     dE             d eps       ncg     rms          rms(c)
DAV:   1    -0.151141252104E+03    0.18082E-03   -0.12244E-01  2960   0.151E+00    0.429E-02
DAV:   2    -0.151141504411E+03   -0.25231E-03   -0.26779E-03  3152   0.205E-01    0.250E-02
DAV:   3    -0.151141492326E+03    0.12085E-04   -0.29031E-05  2424   0.241E-02    0.171E-02
DAV:   4    -0.151141485721E+03    0.66054E-05   -0.21060E-05  1860   0.244E-02    0.770E-03
DAV:   5    -0.151141484148E+03    0.15727E-05   -0.16892E-05  1744   0.191E-02    0.474E-03
DAV:   6    -0.151141483961E+03    0.18685E-06   -0.26275E-06  1608   0.742E-03
  29 F= -.15114148E+03 E0= -.15113917E+03  d E =-.232968E-02
       N       E                     dE             d eps       ncg     rms          rms(c)
DAV:   1    -0.151141591932E+03   -0.10778E-03   -0.39125E-01  2904   0.269E+00    0.841E-02
DAV:   2    -0.151142341150E+03   -0.74922E-03   -0.90375E-03  3256   0.382E-01    0.490E-02
DAV:   3    -0.151142269524E+03    0.71627E-04   -0.19409E-04  3392   0.702E-02    0.364E-02
DAV:   4    -0.151142223180E+03    0.46344E-04   -0.84524E-05  3264   0.493E-02    0.197E-02
DAV:   5    -0.151142175815E+03    0.47365E-04   -0.64372E-05  3104   0.671E-02    0.936E-03
DAV:   6    -0.151142169635E+03    0.61798E-05   -0.52328E-05  3120   0.358E-02
  30 F= -.15114217E+03 E0= -.15113985E+03  d E =-.685674E-03
       N       E                     dE             d eps       ncg     rms          rms(c)
DAV:   1    -0.151142142457E+03    0.33357E-04   -0.49222E-02  2928   0.956E-01    0.299E-02
DAV:   2    -0.151142224772E+03   -0.82315E-04   -0.11467E-03  3256   0.140E-01    0.188E-02
DAV:   3    -0.151142208180E+03    0.16592E-04   -0.27864E-05  2576   0.328E-02    0.143E-02
DAV:   4    -0.151142192472E+03    0.15708E-04   -0.14909E-05  2052   0.288E-02    0.795E-03
DAV:   5    -0.151142174560E+03    0.17912E-04   -0.23326E-05  2544   0.474E-02    0.524E-03
DAV:   6    -0.151142173303E+03    0.12569E-05   -0.22754E-05  2292   0.215E-02
  31 F= -.15114217E+03 E0= -.15113985E+03  d E =-.689342E-03
       N       E                     dE             d eps       ncg     rms          rms(c)
DAV:   1    -0.151142277770E+03   -0.10321E-03   -0.17925E-01  2896   0.180E+00    0.584E-02
DAV:   2    -0.151142627308E+03   -0.34954E-03   -0.41084E-03  3264   0.259E-01    0.330E-02
DAV:   3    -0.151142605759E+03    0.21548E-04   -0.84493E-05  3376   0.394E-02    0.250E-02
DAV:   4    -0.151142591882E+03    0.13877E-04   -0.40860E-05  2760   0.280E-02    0.122E-02
DAV:   5    -0.151142583986E+03    0.78967E-05   -0.28334E-05  2424   0.279E-02    0.775E-03
DAV:   6    -0.151142583212E+03    0.77374E-06   -0.83188E-06  1676   0.128E-02
  32 F= -.15114258E+03 E0= -.15114025E+03  d E =-.409909E-03
       N       E                     dE             d eps       ncg     rms          rms(c)
DAV:   1    -0.151142432661E+03    0.15132E-03   -0.13923E-01  2888   0.159E+00    0.506E-02
DAV:   2    -0.151142707953E+03   -0.27529E-03   -0.32021E-03  3272   0.229E-01    0.298E-02
DAV:   3    -0.151142690249E+03    0.17704E-04   -0.62015E-05  3344   0.345E-02    0.225E-02
DAV:   4    -0.151142678264E+03    0.11985E-04   -0.36133E-05  2628   0.270E-02    0.105E-02
DAV:   5    -0.151142671891E+03    0.63732E-05   -0.20656E-05  2060   0.265E-02    0.714E-03
DAV:   6    -0.151142671104E+03    0.78700E-06   -0.77631E-06  1636   0.133E-02
  33 F= -.15114267E+03 E0= -.15114034E+03  d E =-.497801E-03
       N       E                     dE             d eps       ncg     rms          rms(c)
DAV:   1    -0.151142537761E+03    0.13413E-03   -0.30772E-01  2944   0.231E+00    0.674E-02
DAV:   2    -0.151143079322E+03   -0.54156E-03   -0.62554E-03  3280   0.310E-01    0.417E-02
DAV:   3    -0.151143029381E+03    0.49941E-04   -0.65261E-05  3292   0.517E-02    0.282E-02
DAV:   4    -0.151142983178E+03    0.46204E-04   -0.10072E-04  3264   0.811E-02    0.816E-03
DAV:   5    -0.151142985104E+03   -0.19264E-05   -0.84857E-05  3084   0.425E-02    0.110E-02
DAV:   6    -0.151142985013E+03    0.91084E-07   -0.65667E-06  1740   0.980E-03
  34 F= -.15114299E+03 E0= -.15114065E+03  d E =-.313909E-03
       N       E                     dE             d eps       ncg     rms          rms(c)
DAV:   1    -0.151142980168E+03    0.49362E-05   -0.56298E-03  3000   0.313E-01    0.156E-02
DAV:   2    -0.151142983564E+03   -0.33959E-05   -0.13108E-04  3132   0.464E-02    0.622E-03
DAV:   3    -0.151142978842E+03    0.47216E-05   -0.28533E-06  1816   0.197E-02    0.456E-03
DAV:   4    -0.151142973739E+03    0.51030E-05   -0.34413E-06  1940   0.250E-02    0.303E-03
DAV:   5    -0.151142968338E+03    0.54008E-05   -0.44422E-06  1992   0.303E-02    0.224E-03
DAV:   6    -0.151142964997E+03    0.33416E-05   -0.50668E-06  1812   0.242E-02
  35 F= -.15114296E+03 E0= -.15114064E+03  d E =-.293893E-03
       N       E                     dE             d eps       ncg     rms          rms(c)
DAV:   1    -0.151143037227E+03   -0.68888E-04   -0.12354E-02  2920   0.474E-01    0.183E-02
DAV:   2    -0.151143051601E+03   -0.14374E-04   -0.34307E-04  3304   0.843E-02    0.142E-02
DAV:   3    -0.151143046004E+03    0.55962E-05   -0.23927E-05  2452   0.262E-02    0.116E-02
DAV:   4    -0.151143040764E+03    0.52404E-05   -0.72842E-06  1820   0.149E-02    0.685E-03
DAV:   5    -0.151143032650E+03    0.81140E-05   -0.10283E-05  2068   0.298E-02    0.484E-03
DAV:   6    -0.151143030433E+03    0.22169E-05   -0.10546E-05  2056   0.214E-02
  36 F= -.15114303E+03 E0= -.15114069E+03  d E =-.654361E-04
