 vasp.5.3.5 31Mar14 (build Apr 08 2024 10:12:10) complex                        
  
 executed on             LinuxIFC date 2024.07.29  16:22:27
 running on    8 total cores
 distrk:  each k-point on    8 cores,    1 groups
 distr:  one band on NCORES_PER_BAND=   4 cores,    2 groups


--------------------------------------------------------------------------------------------------------


 INCAR:
 POTCAR:    PAW_PBE O 08Apr2002                   
 POTCAR:    PAW_PBE Mg 13Apr2007                  
 POTCAR:    PAW_PBE Al 04Jan2001                  
 POTCAR:    PAW_PBE O 08Apr2002                   
   VRHFIN =O: s2p4                                                              
   LEXCH  = PE                                                                  
   EATOM  =   432.3788 eV,   31.7789 Ry                                         
                                                                                
   TITEL  = PAW_PBE O 08Apr2002                                                 
   LULTRA =        F    use ultrasoft PP ?                                      
   IUNSCR =        1    unscreen: 0-lin 1-nonlin 2-no                           
   RPACOR =    1.200    partial core radius                                     
   POMASS =   16.000; ZVAL   =    6.000    mass and valenz                      
   RCORE  =    1.520    outmost cutoff radius                                   
   RWIGS  =    1.550; RWIGS  =    0.820    wigner-seitz radius (au A)           
   ENMAX  =  400.000; ENMIN  =  300.000 eV                                      
   ICORE  =        2    local potential                                         
   LCOR   =        T    correct aug charges                                     
   LPAW   =        T    paw PP                                                  
   EAUG   =  605.392                                                            
   DEXC   =    0.000                                                            
   RMAX   =    1.553    core radius for proj-oper                               
   RAUG   =    1.300    factor for augmentation sphere                          
   RDEP   =    1.550    radius for radial grids                                 
   RDEPT  =    1.329    core radius for aug-charge                              
                                                                                
   Atomic configuration                                                         
    4 entries                                                                   
     n  l   j            E        occ.                                          
     1  0  0.50      -514.6923   2.0000                                         
     2  0  0.50       -23.9615   2.0000                                         
     2  1  0.50        -9.0305   4.0000                                         
     3  2  1.50        -9.5241   0.0000                                         
   Description                                                                  
     l       E           TYP  RCUT    TYP  RCUT                                 
     0    -23.9615318     23  1.200                                             
     0     -9.5240782     23  1.200                                             
     1     -9.0304911     23  1.520                                             
     1      8.1634956     23  1.520                                             
     2     -9.5240782      7  1.500                                             
  local pseudopotential read in
  partial core-charges read in
  partial kinetic energy density read in
  kinetic energy density of atom read in
  atomic valenz-charges read in
  non local Contribution for L=           0  read in
    real space projection operators read in
  non local Contribution for L=           0  read in
    real space projection operators read in
  non local Contribution for L=           1  read in
    real space projection operators read in
  non local Contribution for L=           1  read in
    real space projection operators read in
    PAW grid and wavefunctions read in
 
   number of l-projection  operators is LMAX  =           4
   number of lm-projection operators is LMMAX =           8
 
 POTCAR:    PAW_PBE Mg 13Apr2007                  
   VRHFIN =Mg: s2p0                                                             
   LEXCH  = PE                                                                  
   EATOM  =    23.0369 eV,    1.6932 Ry                                         
                                                                                
   TITEL  = PAW_PBE Mg 13Apr2007                                                
   LULTRA =        F    use ultrasoft PP ?                                      
   IUNSCR =        1    unscreen: 0-lin 1-nonlin 2-no                           
   RPACOR =    1.500    partial core radius                                     
   POMASS =   24.305; ZVAL   =    2.000    mass and valenz                      
   RCORE  =    2.000    outmost cutoff radius                                   
   RWIGS  =    2.880; RWIGS  =    1.524    wigner-seitz radius (au A)           
   ENMAX  =  200.000; ENMIN  =  100.000 eV                                      
   RCLOC  =    1.506    cutoff for local pot                                    
   LCOR   =        T    correct aug charges                                     
   LPAW   =        T    paw PP                                                  
   EAUG   =  454.734                                                            
   DEXC   =    0.000                                                            
   RMAX   =    2.045    core radius for proj-oper                               
   RAUG   =    1.300    factor for augmentation sphere                          
   RDEP   =    2.025    radius for radial grids                                 
   RDEPT  =    1.942    core radius for aug-charge                              
                                                                                
   Atomic configuration                                                         
    6 entries                                                                   
     n  l   j            E        occ.                                          
     1  0  0.50     -1259.6230   2.0000                                         
     2  0  0.50       -79.8442   2.0000                                         
     2  1  1.50       -46.6121   6.0000                                         
     3  0  0.50        -4.7055   2.0000                                         
     3  1  0.50        -1.3660   0.0000                                         
     3  2  1.50        -1.3606   0.0000                                         
   Description                                                                  
     l       E           TYP  RCUT    TYP  RCUT                                 
     0     -4.7054661     23  2.000                                             
     0     27.2116520     23  2.000                                             
     1      1.3605826     23  2.000                                             
     1     27.2116520     23  2.000                                             
     2     -1.3605826     23  2.000                                             
  local pseudopotential read in
  partial core-charges read in
  partial kinetic energy density read in
  atomic valenz-charges read in
  non local Contribution for L=           0  read in
    real space projection operators read in
  non local Contribution for L=           0  read in
    real space projection operators read in
  non local Contribution for L=           1  read in
    real space projection operators read in
  non local Contribution for L=           1  read in
    real space projection operators read in
  non local Contribution for L=           2  read in
    real space projection operators read in
    PAW grid and wavefunctions read in
 
   number of l-projection  operators is LMAX  =           5
   number of lm-projection operators is LMMAX =          13
 
 POTCAR:    PAW_PBE Al 04Jan2001                  
   VRHFIN =Al: s2p1                                                             
   LEXCH  = PE                                                                  
   EATOM  =    53.5387 eV,    3.9350 Ry                                         
                                                                                
   TITEL  = PAW_PBE Al 04Jan2001                                                
   LULTRA =        F    use ultrasoft PP ?                                      
   IUNSCR =        1    unscreen: 0-lin 1-nonlin 2-no                           
   RPACOR =    1.500    partial core radius                                     
   POMASS =   26.981; ZVAL   =    3.000    mass and valenz                      
   RCORE  =    1.900    outmost cutoff radius                                   
   RWIGS  =    2.650; RWIGS  =    1.402    wigner-seitz radius (au A)           
   ENMAX  =  240.300; ENMIN  =  180.225 eV                                      
   ICORE  =        2    local potential                                         
   LCOR   =        T    correct aug charges                                     
   LPAW   =        T    paw PP                                                  
   EAUG   =  291.052                                                            
   DEXC   =    0.000                                                            
   RMAX   =    1.939    core radius for proj-oper                               
   RAUG   =    1.300    factor for augmentation sphere                          
   RDEP   =    1.966    radius for radial grids                                 
   RDEPT  =    1.856    core radius for aug-charge                              
                                                                                
   Atomic configuration                                                         
    6 entries                                                                   
     n  l   j            E        occ.                                          
     1  0  0.50     -1511.1048   2.0000                                         
     2  0  0.50      -108.1629   2.0000                                         
     2  1  1.50       -69.6402   6.0000                                         
     3  0  0.50        -7.7528   2.0000                                         
     3  1  1.50        -2.7121   1.0000                                         
     3  2  2.50        -2.7212   0.0000                                         
   Description                                                                  
     l       E           TYP  RCUT    TYP  RCUT                                 
     0     -7.7528455     23  1.900                                             
     0     -3.3096929     23  1.900                                             
     1     -2.7120682     23  1.900                                             
     1     13.6058260     23  1.900                                             
     2     -2.7211652      7  1.900                                             
  local pseudopotential read in
  partial core-charges read in
  partial kinetic energy density read in
  atomic valenz-charges read in
  non local Contribution for L=           0  read in
    real space projection operators read in
  non local Contribution for L=           0  read in
    real space projection operators read in
  non local Contribution for L=           1  read in
    real space projection operators read in
  non local Contribution for L=           1  read in
    real space projection operators read in
    PAW grid and wavefunctions read in
 
   number of l-projection  operators is LMAX  =           4
   number of lm-projection operators is LMMAX =           8
 

 ----------------------------------------------------------------------------- 
|                                                                             |
|  ADVICE TO THIS USER RUNNING 'VASP/VAMP'   (HEAR YOUR MASTER'S VOICE ...):  |
|                                                                             |
|      You have a (more or less) 'large supercell' and for larger cells       |
|      it might be more efficient to use real space projection opertators     |
|      So try LREAL= Auto  in the INCAR   file.                               |
|      Mind: At the moment your POTCAR file does not contain real space       |
|       projectors, and has to be modified,  BUT if you                       |
|      want to do an extremely  accurate calculation you might also keep the  |
|      reciprocal projection scheme          (i.e. LREAL=.FALSE.)             |
|                                                                             |
 ----------------------------------------------------------------------------- 

  PAW_PBE O 08Apr2002                   :
 energy of atom  1       EATOM= -432.3788
 kinetic energy error for atom=    0.0208 (will be added to EATOM!!)
  PAW_PBE Mg 13Apr2007                  :
 energy of atom  2       EATOM=  -23.0369
 kinetic energy error for atom=    0.0000 (will be added to EATOM!!)
  PAW_PBE Al 04Jan2001                  :
 energy of atom  3       EATOM=  -53.5387
 kinetic energy error for atom=    0.0002 (will be added to EATOM!!)
 
 
 POSCAR: Layer                                   
  positions in direct lattice
  velocities in cartesian coordinates
 exchange correlation table for  LEXCH =        8
   RHO(1)=    0.500       N(1)  =     2000
   RHO(2)=  100.500       N(2)  =     4000
 


--------------------------------------------------------------------------------------------------------


 ion  position               nearest neighbor table
   1  0.333  0.667  0.249-  12 2.15  12 2.15  12 2.15  23 2.27  23 2.27  23 2.27
   2  0.000  0.000  0.359-  19 2.13  19 2.13  19 2.13  16 2.13  16 2.13  16 2.13
   3  0.333  0.667  0.414-  16 2.13  16 2.13  16 2.13  13 2.13  13 2.13  13 2.13
   4  0.000  0.000  0.525-  17 2.13  17 2.13  17 2.13  20 2.13  20 2.13  20 2.13
   5  0.333  0.667  0.580-  14 2.13  14 2.13  14 2.13  17 2.13  17 2.13  17 2.13
   6  0.000  0.000  0.690-  18 2.13  18 2.13  18 2.13  21 2.13  21 2.13  21 2.13
   7  0.333  0.667  0.745-  15 2.12  15 2.12  15 2.12  18 2.13  18 2.13  18 2.13
   8  0.667  0.333  0.304-  12 2.12  12 2.12  12 2.12  19 2.13  19 2.13  19 2.13
   9  0.667  0.333  0.469-  13 2.13  13 2.13  13 2.13  20 2.13  20 2.13  20 2.13
  10  0.667  0.333  0.635-  21 2.13  21 2.13  21 2.13  14 2.13  14 2.13  14 2.13
  11  0.667  0.333  0.800-  15 2.15  15 2.15  15 2.15  26 2.27  26 2.27  26 2.27
  12  0.000  0.000  0.277-   8 2.12   8 2.12   8 2.12   1 2.15   1 2.15   1 2.15  23 2.78  19 3.04
                            19 3.04  19 3.04
  13  0.000  0.000  0.442-   3 2.13   3 2.13   3 2.13   9 2.13   9 2.13   9 2.13  16 3.05  16 3.05
                            16 3.05  20 3.05  20 3.05  20 3.05
  14  0.000  0.000  0.607-  10 2.13  10 2.13  10 2.13   5 2.13   5 2.13   5 2.13  21 3.05  21 3.05
                            21 3.05  17 3.05  17 3.05  17 3.05
  15  0.000  0.000  0.772-   7 2.12   7 2.12   7 2.12  11 2.15  11 2.15  11 2.15  26 2.78  18 3.04
                            18 3.04  18 3.04
  16  0.667  0.333  0.387-   3 2.13   3 2.13   3 2.13   2 2.13   2 2.13   2 2.13  19 3.04  19 3.04
                            19 3.04  13 3.05  13 3.05  13 3.05
  17  0.667  0.333  0.552-   4 2.13   4 2.13   4 2.13   5 2.13   5 2.13   5 2.13  14 3.05  14 3.05
                            14 3.05  20 3.05  20 3.05  20 3.05
  18  0.667  0.333  0.717-   6 2.13   6 2.13   6 2.13   7 2.13   7 2.13   7 2.13  15 3.04  15 3.04
                            15 3.04  21 3.04  21 3.04  21 3.04
  19  0.333  0.667  0.332-   2 2.13   2 2.13   2 2.13   8 2.13   8 2.13   8 2.13  12 3.04  12 3.04
                            12 3.04  16 3.04  16 3.04  16 3.04
  20  0.333  0.667  0.497-   9 2.13   9 2.13   9 2.13   4 2.13   4 2.13   4 2.13  13 3.05  13 3.05
                            13 3.05  17 3.05  17 3.05  17 3.05
  21  0.333  0.667  0.662-   6 2.13   6 2.13   6 2.13  10 2.13  10 2.13  10 2.13  18 3.04  18 3.04
                            18 3.04  14 3.05  14 3.05  14 3.05
  22  0.000  0.000  0.025-  25 2.92  25 2.92  25 2.92  27 2.92  27 2.92  27 2.92
  23  0.000  0.000  0.216-   1 2.27   1 2.27   1 2.27  12 2.78  24 2.81  24 2.81  24 2.81
  24  0.667  0.333  0.167-  23 2.81  23 2.81  23 2.81
  25  0.333  0.667  0.076-  22 2.92  22 2.92  22 2.92
  26  0.000  0.000  0.833-  11 2.27  11 2.27  11 2.27  15 2.78  28 2.81  28 2.81  28 2.81
  27  0.667  0.333  0.973-  22 2.92  22 2.92  22 2.92
  28  0.333  0.667  0.882-  26 2.81  26 2.81  26 2.81
 
  LATTYP: Found a hexagonal cell.
 ALAT       =     2.9737040142
 C/A-ratio  =    15.3710159869
  
  Lattice vectors:
  
 A1 = (   2.5753034102,  -1.4868516771,   0.0000000000)
 A2 = (   0.0000000000,   2.9737033542,   0.0000000000)
 A3 = (  -0.0000000000,   0.0000000000,  45.7088519425)


Analysis of symmetry for initial positions (statically):
=====================================================================
 Subroutine PRICEL returns:
 Original cell was already a primitive cell.
 

 Routine SETGRP: Setting up the symmetry group for a 
 hexagonal supercell.


 Subroutine GETGRP returns: Found 12 space group operations
 (whereof  6 operations were pure point group operations)
 out of a pool of 24 trial point group operations.


The static configuration has the point symmetry C_3v.
 The point group associated with its full space group is D_3d.


Analysis of symmetry for dynamics (positions and initial velocities):
=====================================================================
 Subroutine PRICEL returns:
 Original cell was already a primitive cell.
 

 Routine SETGRP: Setting up the symmetry group for a 
 hexagonal supercell.


 Subroutine GETGRP returns: Found 12 space group operations
 (whereof  6 operations were pure point group operations)
 out of a pool of 24 trial point group operations.


The dynamic configuration has the point symmetry C_3v.
 The point group associated with its full space group is D_3d.


Analysis of constrained symmetry for selective dynamics:
=====================================================================
 Subroutine PRICEL returns:
 Original cell was already a primitive cell.
 

 Routine SETGRP: Setting up the symmetry group for a 
 hexagonal supercell.


 Subroutine GETGRP returns: Found 12 space group operations
 (whereof  6 operations were pure point group operations)
 out of a pool of 24 trial point group operations.


The constrained configuration has the point symmetry C_3v.
 The point group associated with its full space group is D_3d.
 
 
 KPOINTS: K-Spacing Value to Generate K-Mesh: 0.02

Automatic generation of k-mesh.
Space group operators:
 irot       det(A)        alpha          n_x          n_y          n_z        tau_x        tau_y        tau_z
    1     1.000000     0.000001     1.000000     0.000000     0.000000     0.000000     0.000000     0.000000
    2     1.000000   120.000000     0.000000     0.000000    -1.000000     0.000000     0.000000     0.000000
    3     1.000000   120.000000    -0.000000     0.000000     1.000000     0.000000     0.000000     0.000000
    4    -1.000000   180.000000    -0.866025     0.500000    -0.000000     0.000000     0.000000     0.000000
    5    -1.000000   180.000000     0.000000     1.000000     0.000000     0.000000     0.000000     0.000000
    6    -1.000000   180.000000    -0.866025    -0.500000    -0.000000     0.000000     0.000000     0.000000
    7    -1.000000     0.000001     1.000000     0.000000     0.000000     0.000000     0.000000     0.049083
    8    -1.000000   120.000000     0.000000     0.000000    -1.000000     0.000000     0.000000     0.049083
    9    -1.000000   120.000000    -0.000000     0.000000     1.000000     0.000001     0.000000     0.049083
   10     1.000000   180.000000    -0.866025     0.500000    -0.000000     0.000001     0.000000     0.049083
   11     1.000000   180.000000     0.000000     1.000000     0.000000     0.000000     0.000000     0.049083
   12     1.000000   180.000000    -0.866025    -0.500000    -0.000000     0.000000     0.000000     0.049083
 
 Subroutine IBZKPT returns following result:
 ===========================================
 
 Found     21 irreducible k-points:
 
 Following reciprocal coordinates:
            Coordinates               Weight
  0.000000  0.000000  0.000000      1.000000
  0.076923  0.000000  0.000000      6.000000
  0.153846  0.000000  0.000000      6.000000
  0.230769  0.000000 -0.000000      6.000000
  0.307692  0.000000 -0.000000      6.000000
  0.384615  0.000000  0.000000      6.000000
  0.461538  0.000000 -0.000000      6.000000
  0.076923  0.076923  0.000000      6.000000
  0.153846  0.076923  0.000000     12.000000
  0.230769  0.076923 -0.000000     12.000000
  0.307692  0.076923  0.000000     12.000000
  0.384615  0.076923  0.000000     12.000000
  0.461538  0.076923  0.000000      6.000000
  0.153846  0.153846  0.000000      6.000000
  0.230769  0.153846 -0.000000     12.000000
  0.307692  0.153846  0.000000     12.000000
  0.384615  0.153846  0.000000     12.000000
  0.230769  0.230769 -0.000000      6.000000
  0.307692  0.230769 -0.000000     12.000000
  0.384615  0.230769  0.000000      6.000000
  0.307692  0.307692 -0.000000      6.000000
 
 Following cartesian coordinates:
            Coordinates               Weight
  0.000000  0.000000  0.000000      1.000000
  0.029870  0.000000  0.000000      6.000000
  0.059739  0.000000  0.000000      6.000000
  0.089609  0.000000  0.000000      6.000000
  0.119478  0.000000  0.000000      6.000000
  0.149348  0.000000  0.000000      6.000000
  0.179217  0.000000  0.000000      6.000000
  0.044804  0.025868  0.000000      6.000000
  0.074674  0.025868  0.000000     12.000000
  0.104543  0.025868  0.000000     12.000000
  0.134413  0.025868  0.000000     12.000000
  0.164282  0.025868  0.000000     12.000000
  0.194152  0.025868  0.000000      6.000000
  0.089609  0.051736  0.000000      6.000000
  0.119478  0.051736  0.000000     12.000000
  0.149348  0.051736  0.000000     12.000000
  0.179217  0.051736  0.000000     12.000000
  0.134413  0.077603  0.000000      6.000000
  0.164282  0.077603  0.000000     12.000000
  0.194152  0.077603  0.000000      6.000000
  0.179217  0.103471  0.000000      6.000000
 


--------------------------------------------------------------------------------------------------------




 Dimension of arrays:
   k-points           NKPTS =     21   k-points in BZ     NKDIM =     21   number of bands    NBANDS=     68
   number of dos      NEDOS =    301   number of ions     NIONS =     28
   non local maximal  LDIM  =      5   non local SUM 2l+1 LMDIM =     13
   total plane-waves  NPLWV = 201600
   max r-space proj   IRMAX =      1   max aug-charges    IRDMAX= 195897
   dimension x,y,z NGX =    24 NGY =   24 NGZ =  350
   dimension x,y,z NGXF=    48 NGYF=   48 NGZF=  700
   support grid    NGXF=    96 NGYF=   96 NGZF= 1400
   ions per type =              11  10   7
 NGX,Y,Z   is equivalent  to a cutoff of  13.42, 13.42, 12.73 a.u.
 NGXF,Y,Z  is equivalent  to a cutoff of  26.83, 26.83, 25.46 a.u.


 I would recommend the setting:
   dimension x,y,z NGX =    22 NGY =   22 NGZ =  340
 SYSTEM =  unknown system                          
 POSCAR =  Layer                                   

 Startparameter for this run:
   NWRITE =      2    write-flag & timer
   PREC   = accura    normal or accurate (medium, high low for compatibility)
   ISTART =      0    job   : 0-new  1-cont  2-samecut
   ICHARG =      2    charge: 1-file 2-atom 10-const
   ISPIN  =      1    spin polarized calculation?
   LNONCOLLINEAR =      F non collinear calculations
   LSORBIT =      F    spin-orbit coupling
   INIWAV =      1    electr: 0-lowe 1-rand  2-diag
   LASPH  =      F    aspherical Exc in radial PAW
   METAGGA=      F    non-selfconsistent MetaGGA calc.

 Electronic Relaxation 1
   ENCUT  =  520.0 eV  38.22 Ry    6.18 a.u.   5.53  5.53 84.99*2*pi/ulx,y,z
   ENINI  =  520.0     initial cutoff
   ENAUG  =  605.4 eV  augmentation charge cutoff
   NELM   =    100;   NELMIN=  6; NELMDL=  0     # of ELM steps 
   EDIFF  = 0.1E-04   stopping-criterion for ELM
   LREAL  =      F    real-space projection
   NLSPLINE    = F    spline interpolate recip. space projectors
   LCOMPAT=      F    compatible to vasp.4.4
   GGA_COMPAT  = T    GGA compatible to vasp.4.4-vasp.4.6
   LMAXPAW     = -100 max onsite density
   LMAXMIX     =    2 max onsite mixed and CHGCAR
   VOSKOWN=      0    Vosko Wilk Nusair interpolation
   ROPT   =    0.00000   0.00000   0.00000
 Ionic relaxation
   EDIFFG = -.2E-01   stopping-criterion for IOM
   NSW    =    500    number of steps for IOM
   NBLOCK =      1;   KBLOCK =    500    inner block; outer block 
   IBRION =      2    ionic relax: 0-MD 1-quasi-New 2-CG
   NFREE  =      1    steps in history (QN), initial steepest desc. (CG)
   ISIF   =      2    stress and relaxation
   IWAVPR =     11    prediction:  0-non 1-charg 2-wave 3-comb
   ISYM   =      2    0-nonsym 1-usesym 2-fastsym
   LCORR  =      T    Harris-Foulkes like correction to forces

   POTIM  = 0.5000    time-step for ionic-motion
   TEIN   =    0.0    initial temperature
   TEBEG  =    0.0;   TEEND  =   0.0 temperature during run
   SMASS  =  -3.00    Nose mass-parameter (am)
   estimated Nose-frequenzy (Omega)   =  0.10E-29 period in steps =****** mass=  -0.202E-27a.u.
   SCALEE = 1.0000    scale energy and forces
   NPACO  =    256;   APACO  = 16.0  distance and # of slots for P.C.
   PSTRESS=    0.0 pullay stress

  Mass of Ions in am
   POMASS =  16.00 24.30 26.98
  Ionic Valenz
   ZVAL   =   6.00  2.00  3.00
  Atomic Wigner-Seitz radii
   RWIGS  =  -1.00 -1.00 -1.00
  virtual crystal weights 
   VCA    =   1.00  1.00  1.00
   NELECT =     107.0000    total number of electrons
   NUPDOWN=      -1.0000    fix difference up-down

 DOS related values:
   EMIN   =  10.00;   EMAX   =-10.00  energy-range for DOS
   EFERMI =   0.00
   ISMEAR =     0;   SIGMA  =   0.05  broadening in eV -4-tet -1-fermi 0-gaus

 Electronic relaxation 2 (details)
   IALGO  =     38    algorithm
   LDIAG  =      T    sub-space diagonalisation (order eigenvalues)
   LSUBROT=      F    optimize rotation matrix (better conditioning)
   TURBO    =      0    0=normal 1=particle mesh
   IRESTART =      0    0=no restart 2=restart with 2 vectors
   NREBOOT  =      0    no. of reboots
   NMIN     =      0    reboot dimension
   EREF     =   0.00    reference energy to select bands
   IMIX   =      4    mixing-type and parameters
     AMIX     =   0.40;   BMIX     =  1.00
     AMIX_MAG =   1.60;   BMIX_MAG =  1.00
     AMIN     =   0.01
     WC   =   100.;   INIMIX=   1;  MIXPRE=   1;  MAXMIX= -45

 Intra band minimization:
   WEIMIN = 0.0010     energy-eigenvalue tresh-hold
   EBREAK =  0.37E-07  absolut break condition
   DEPER  =   0.30     relativ break condition  

   TIME   =   0.40     timestep for ELM

  volume/ion in A,a.u.               =      12.50        84.37
  Fermi-wavevector in a.u.,A,eV,Ry     =   1.102793  2.083976 16.546756  1.216152
  Thomas-Fermi vector in A             =   2.239241
 
 Write flags
   LWAVE  =      F    write WAVECAR
   LCHARG =      T    write CHGCAR
   LVTOT  =      F    write LOCPOT, total local potential
   LVHAR  =      F    write LOCPOT, Hartree potential only
   LELF   =      F    write electronic localiz. function (ELF)
   LORBIT =      0    0 simple, 1 ext, 2 COOP (PROOUT)


 Dipole corrections
   LMONO  =      F    monopole corrections only (constant potential shift)
   LDIPOL =      F    correct potential (dipole corrections)
   IDIPOL =      0    1-x, 2-y, 3-z, 4-all directions 
   EPSILON=  1.0000000 bulk dielectric constant

 Exchange correlation treatment:
   GGA     =    --    GGA type
   LEXCH   =     8    internal setting for exchange type
   VOSKOWN=      0    Vosko Wilk Nusair interpolation
   LHFCALC =     F    Hartree Fock is set to
   LHFONE  =     F    Hartree Fock one center treatment
   AEXX    =    0.0000 exact exchange contribution

 Linear response parameters
   LEPSILON=     F    determine dielectric tensor
   LRPA    =     F    only Hartree local field effects (RPA)
   LNABLA  =     F    use nabla operator in PAW spheres
   LVEL    =     F    velocity operator in full k-point grid
   LINTERFAST=   F  fast interpolation
   KINTER  =     0    interpolate to denser k-point grid
   CSHIFT  =0.1000    complex shift for real part using Kramers Kronig
   OMEGAMAX=  -1.0    maximum frequency
   DEG_THRESHOLD= 0.2000000E-02 threshold for treating states as degnerate
   RTIME   =    0.100 relaxation time in fs

 Orbital magnetization related:
   ORBITALMAG=     F  switch on orbital magnetization
   LCHIMAG   =     F  perturbation theory with respect to B field
   DQ        =  0.001000  dq finite difference perturbation B field



--------------------------------------------------------------------------------------------------------


 conjugate gradient relaxation of ions
   using selective dynamics as specified on POSCAR
 charge density and potential will be updated during run
 non-spin polarized calculation
 Variant of blocked Davidson
 Davidson routine will perform the subspace rotation
 perform sub-space diagonalisation
    after iterative eigenvector-optimisation
 modified Broyden-mixing scheme, WC =      100.0
 initial mixing is a Kerker type mixing with AMIX =  0.4000 and BMIX =      1.0000
 Hartree-type preconditioning will be used
 using additional bands           14
 reciprocal scheme for non local part
 use partial core corrections
 calculate Harris-corrections to forces 
   (improved forces if not selfconsistent)
 use gradient corrections 
 use of overlap-Matrix (Vanderbilt PP)
 Gauss-broadening in eV      SIGMA  =   0.05


--------------------------------------------------------------------------------------------------------


  energy-cutoff  :      520.00
  volume of cell :      350.05
      direct lattice vectors                 reciprocal lattice vectors
     2.575303410 -1.486851677  0.000000000     0.388303761  0.000000000  0.000000000
     0.000000000  2.973703354  0.000000000     0.194151881  0.336281021  0.000000000
    -0.000000000  0.000000000 45.708851943     0.000000000  0.000000000  0.021877600

  length of vectors
     2.973704014  2.973703354 45.708851943     0.388303761  0.388303847  0.021877600


 
 k-points in units of 2pi/SCALE and weight: K-Spacing Value to Generate K-Mesh: 0.02
   0.00000000  0.00000000  0.00000000       0.006
   0.02986952  0.00000000  0.00000000       0.036
   0.05973904  0.00000000  0.00000000       0.036
   0.08960856  0.00000000  0.00000000       0.036
   0.11947808  0.00000000  0.00000000       0.036
   0.14934760  0.00000000  0.00000000       0.036
   0.17921712  0.00000000  0.00000000       0.036
   0.04480428  0.02586777  0.00000000       0.036
   0.07467380  0.02586777  0.00000000       0.071
   0.10454332  0.02586777  0.00000000       0.071
   0.13441284  0.02586777  0.00000000       0.071
   0.16428236  0.02586777  0.00000000       0.071
   0.19415188  0.02586777  0.00000000       0.036
   0.08960856  0.05173554  0.00000000       0.036
   0.11947808  0.05173554  0.00000000       0.071
   0.14934760  0.05173554  0.00000000       0.071
   0.17921712  0.05173554  0.00000000       0.071
   0.13441284  0.07760331  0.00000000       0.036
   0.16428236  0.07760331  0.00000000       0.071
   0.19415188  0.07760331  0.00000000       0.036
   0.17921712  0.10347108  0.00000000       0.036
 
 k-points in reciprocal lattice and weights: K-Spacing Value to Generate K-Mesh: 0.02
   0.00000000  0.00000000  0.00000000       0.006
   0.07692308  0.00000000  0.00000000       0.036
   0.15384615  0.00000000  0.00000000       0.036
   0.23076923  0.00000000 -0.00000000       0.036
   0.30769231  0.00000000 -0.00000000       0.036
   0.38461538  0.00000000  0.00000000       0.036
   0.46153846  0.00000000 -0.00000000       0.036
   0.07692308  0.07692308  0.00000000       0.036
   0.15384615  0.07692308  0.00000000       0.071
   0.23076923  0.07692308 -0.00000000       0.071
   0.30769231  0.07692308  0.00000000       0.071
   0.38461538  0.07692308  0.00000000       0.071
   0.46153846  0.07692308  0.00000000       0.036
   0.15384615  0.15384615  0.00000000       0.036
   0.23076923  0.15384615 -0.00000000       0.071
   0.30769231  0.15384615  0.00000000       0.071
   0.38461538  0.15384615  0.00000000       0.071
   0.23076923  0.23076923 -0.00000000       0.036
   0.30769231  0.23076923 -0.00000000       0.071
   0.38461538  0.23076923  0.00000000       0.036
   0.30769231  0.30769231 -0.00000000       0.036
 
 position of ions in fractional coordinates (direct lattice) 
   0.33333300  0.66666700  0.24885124
   0.00000000  0.00000000  0.35942612
   0.33333300  0.66666700  0.41443844
   0.00000000  0.00000000  0.52454119
   0.33333300  0.66666700  0.57960505
   0.00000000  0.00000000  0.68965214
   0.33333300  0.66666700  0.74465058
   0.66666700  0.33333300  0.30443017
   0.66666700  0.33333300  0.46947728
   0.66666700  0.33333300  0.63464233
   0.66666700  0.33333300  0.80023003
   0.00000000  0.00000000  0.27703811
   0.00000000  0.00000000  0.44195665
   0.00000000  0.00000000  0.60712476
   0.00000000  0.00000000  0.77204321
   0.66666700  0.33333300  0.38693413
   0.66666700  0.33333300  0.55207187
   0.66666700  0.33333300  0.71714204
   0.33333300  0.66666700  0.33194389
   0.33333300  0.66666700  0.49700824
   0.33333300  0.66666700  0.66215138
   0.00000000  0.00000000  0.02454226
   0.00000000  0.00000000  0.21627924
   0.66666700  0.33333300  0.16749212
   0.33333300  0.66666700  0.07608638
   0.00000000  0.00000000  0.83280450
   0.66666700  0.33333300  0.97299634
   0.33333300  0.66666700  0.88159131
 
 position of ions in cartesian coordinates  (Angst):
   0.85843361  1.48685316 11.37470429
  -0.00000000  0.00000000 16.42895527
   0.85843361  1.48685316 18.94350537
  -0.00000000  0.00000000 23.97617545
   0.85843361  1.48685316 26.49308130
  -0.00000000  0.00000000 31.52320773
   0.85843361  1.48685316 34.03712329
   1.71686980 -0.00000149 13.91515379
   1.71686980 -0.00000149 21.45926734
   1.71686980 -0.00000149 29.00877210
   1.71686980 -0.00000149 36.57759612
  -0.00000000  0.00000000 12.66309390
  -0.00000000  0.00000000 20.20133129
  -0.00000000  0.00000000 27.75097592
  -0.00000000  0.00000000 35.28920882
   1.71686980 -0.00000149 17.68631485
   1.71686980 -0.00000149 25.23457134
   1.71686980 -0.00000149 32.77973940
   0.85843361  1.48685316 15.17277396
   0.85843361  1.48685316 22.71767584
   0.85843361  1.48685316 30.26617943
  -0.00000000  0.00000000  1.12179845
  -0.00000000  0.00000000  9.88587597
   1.71686980 -0.00000149  7.65587245
   0.85843361  1.48685316  3.47782098
  -0.00000000  0.00000000 38.06653739
   1.71686980 -0.00000149 44.47454583
   0.85843361  1.48685316 40.29652668
 


--------------------------------------------------------------------------------------------------------


 k-point  1 :   0.0000 0.0000 0.0000  plane waves:    9577
 k-point  2 :   0.0769 0.0000 0.0000  plane waves:    9557
 k-point  3 :   0.1538 0.0000 0.0000  plane waves:    9539
 k-point  4 :   0.2308 0.0000-0.0000  plane waves:    9482
 k-point  5 :   0.3077 0.0000-0.0000  plane waves:    9430
 k-point  6 :   0.3846 0.0000 0.0000  plane waves:    9390
 k-point  7 :   0.4615 0.0000-0.0000  plane waves:    9316
 k-point  8 :   0.0769 0.0769 0.0000  plane waves:    9551
 k-point  9 :   0.1538 0.0769 0.0000  plane waves:    9491
 k-point 10 :   0.2308 0.0769-0.0000  plane waves:    9441
 k-point 11 :   0.3077 0.0769 0.0000  plane waves:    9418
 k-point 12 :   0.3846 0.0769 0.0000  plane waves:    9364
 k-point 13 :   0.4615 0.0769 0.0000  plane waves:    9318
 k-point 14 :   0.1538 0.1538 0.0000  plane waves:    9443
 k-point 15 :   0.2308 0.1538-0.0000  plane waves:    9433
 k-point 16 :   0.3077 0.1538 0.0000  plane waves:    9403
 k-point 17 :   0.3846 0.1538 0.0000  plane waves:    9357
 k-point 18 :   0.2308 0.2308-0.0000  plane waves:    9411
 k-point 19 :   0.3077 0.2308-0.0000  plane waves:    9398
 k-point 20 :   0.3846 0.2308 0.0000  plane waves:    9396
 k-point 21 :   0.3077 0.3077-0.0000  plane waves:    9420

 maximum and minimum number of plane-waves per node :      2411     2308

 maximum number of plane-waves:      9577
 maximum index in each direction: 
   IXMAX=    5   IYMAX=    5   IZMAX=   84
   IXMIN=   -5   IYMIN=   -5   IZMIN=  -84

 NGX is ok and might be reduce to  22
 NGY is ok and might be reduce to  22
 NGZ is ok and might be reduce to 338

 parallel 3D FFT for wavefunctions:
    minimum data exchange during FFTs selected (reduces bandwidth)
 parallel 3D FFT for charge:
    minimum data exchange during FFTs selected (reduces bandwidth)


 total amount of memory used by VASP on root node   159857. kBytes
========================================================================

   base      :      30000. kBytes
   nonl-proj :      16884. kBytes
   fftplans  :      60348. kBytes
   grid      :      24192. kBytes
   one-center:         56. kBytes
   wavefun   :      28377. kBytes
 
     INWAV:  cpu time    0.00: real time    0.00
 Broyden mixing: mesh for mixing (old mesh)
   NGX = 11   NGY = 11   NGZ =169
  (NGX  = 48   NGY  = 48   NGZ  =700)
  gives a total of  20449 points

 initial charge density was supplied:
 charge density of overlapping atoms calculated
 number of electron     107.0000000 magnetization 
 keeping initial charge density in first step


--------------------------------------------------------------------------------------------------------


 Maximum index for augmentation-charges        23523 (set IRDMAX)


--------------------------------------------------------------------------------------------------------


 First call to EWALD:  gamma=   0.251
 Maximum number of real-space cells 7x 7x 1
 Maximum number of reciprocal cells 1x 1x15

 FEWALD executed in parallel
    FEWALD:  cpu time    0.00: real time    0.00


----------------------------------------- Iteration    1(   1)  ---------------------------------------


    POTLOK:  cpu time    0.12: real time    0.12
    SETDIJ:  cpu time    0.11: real time    0.11
     EDDAV:  cpu time    4.84: real time    4.85
       DOS:  cpu time    0.00: real time    0.00
    --------------------------------------------
      LOOP:  cpu time    5.07: real time    5.08

 eigenvalue-minimisations  :  2864
 total energy-change (2. order) : 0.5775865E+03  (-0.4807378E+04)
 number of electron     107.0000000 magnetization 
 augmentation part      107.0000000 magnetization 

 Free energy of the ion-electron system (eV)
  ---------------------------------------------------
  alpha Z        PSCENC =       144.25978381
  Ewald energy   TEWEN  =     21169.29928822
  -Hartree energ DENC   =    -26752.86926887
  -exchange      EXHF   =         0.00000000
  -V(xc)+E(xc)   XCENC  =      -363.40660201
  PAW double counting   =      4928.51229836    -4205.98855578
  entropy T*S    EENTRO =        -0.00465707
  eigenvalues    EBANDS =       296.70852574
  atomic energy  EATOM  =      5361.07568887
  ---------------------------------------------------
  free energy    TOTEN  =       577.58650127 eV

  energy without entropy =      577.59115834  energy(sigma->0) =      577.58882981


--------------------------------------------------------------------------------------------------------




----------------------------------------- Iteration    1(   2)  ---------------------------------------


     EDDAV:  cpu time    5.90: real time    5.90
       DOS:  cpu time    0.00: real time    0.00
    --------------------------------------------
      LOOP:  cpu time    5.90: real time    5.91

 eigenvalue-minimisations  :  3716
 total energy-change (2. order) :-0.6800740E+03  (-0.6472949E+03)
 number of electron     107.0000000 magnetization 
 augmentation part      107.0000000 magnetization 

 Free energy of the ion-electron system (eV)
  ---------------------------------------------------
  alpha Z        PSCENC =       144.25978381
  Ewald energy   TEWEN  =     21169.29928822
  -Hartree energ DENC   =    -26752.86926887
  -exchange      EXHF   =         0.00000000
  -V(xc)+E(xc)   XCENC  =      -363.40660201
  PAW double counting   =      4928.51229836    -4205.98855578
  entropy T*S    EENTRO =        -0.00578925
  eigenvalues    EBANDS =      -383.36439050
  atomic energy  EATOM  =      5361.07568887
  ---------------------------------------------------
  free energy    TOTEN  =      -102.48754714 eV

  energy without entropy =     -102.48175790  energy(sigma->0) =     -102.48465252


--------------------------------------------------------------------------------------------------------




----------------------------------------- Iteration    1(   3)  ---------------------------------------


     EDDAV:  cpu time    5.33: real time    5.34
       DOS:  cpu time    0.00: real time    0.00
    --------------------------------------------
      LOOP:  cpu time    5.34: real time    5.34

 eigenvalue-minimisations  :  3344
 total energy-change (2. order) :-0.6499457E+02  (-0.6458876E+02)
 number of electron     107.0000000 magnetization 
 augmentation part      107.0000000 magnetization 

 Free energy of the ion-electron system (eV)
  ---------------------------------------------------
  alpha Z        PSCENC =       144.25978381
  Ewald energy   TEWEN  =     21169.29928822
  -Hartree energ DENC   =    -26752.86926887
  -exchange      EXHF   =         0.00000000
  -V(xc)+E(xc)   XCENC  =      -363.40660201
  PAW double counting   =      4928.51229836    -4205.98855578
  entropy T*S    EENTRO =        -0.00455092
  eigenvalues    EBANDS =      -448.36019950
  atomic energy  EATOM  =      5361.07568887
  ---------------------------------------------------
  free energy    TOTEN  =      -167.48211781 eV

  energy without entropy =     -167.47756689  energy(sigma->0) =     -167.47984235


--------------------------------------------------------------------------------------------------------




----------------------------------------- Iteration    1(   4)  ---------------------------------------


     EDDAV:  cpu time    5.32: real time    5.32
       DOS:  cpu time    0.00: real time    0.00
    --------------------------------------------
      LOOP:  cpu time    5.32: real time    5.32

 eigenvalue-minimisations  :  3344
 total energy-change (2. order) :-0.1052028E+01  (-0.1049047E+01)
 number of electron     107.0000000 magnetization 
 augmentation part      107.0000000 magnetization 

 Free energy of the ion-electron system (eV)
  ---------------------------------------------------
  alpha Z        PSCENC =       144.25978381
  Ewald energy   TEWEN  =     21169.29928822
  -Hartree energ DENC   =    -26752.86926887
  -exchange      EXHF   =         0.00000000
  -V(xc)+E(xc)   XCENC  =      -363.40660201
  PAW double counting   =      4928.51229836    -4205.98855578
  entropy T*S    EENTRO =        -0.00440553
  eigenvalues    EBANDS =      -449.41237337
  atomic energy  EATOM  =      5361.07568887
  ---------------------------------------------------
  free energy    TOTEN  =      -168.53414630 eV

  energy without entropy =     -168.52974077  energy(sigma->0) =     -168.53194353


--------------------------------------------------------------------------------------------------------




----------------------------------------- Iteration    1(   5)  ---------------------------------------


     EDDAV:  cpu time    5.44: real time    5.45
       DOS:  cpu time    0.00: real time    0.00
    CHARGE:  cpu time    0.44: real time    0.44
    MIXING:  cpu time    0.00: real time    0.00
    --------------------------------------------
      LOOP:  cpu time    5.89: real time    5.90

 eigenvalue-minimisations  :  3432
 total energy-change (2. order) :-0.2228359E-01  (-0.2226617E-01)
 number of electron     107.0000001 magnetization 
 augmentation part        8.4847425 magnetization 

 Broyden mixing:
  rms(total) = 0.23970E+01    rms(broyden)= 0.23965E+01
  rms(prec ) = 0.24484E+01
  weight for this iteration     100.00

 Free energy of the ion-electron system (eV)
  ---------------------------------------------------
  alpha Z        PSCENC =       144.25978381
  Ewald energy   TEWEN  =     21169.29928822
  -Hartree energ DENC   =    -26752.86926887
  -exchange      EXHF   =         0.00000000
  -V(xc)+E(xc)   XCENC  =      -363.40660201
  PAW double counting   =      4928.51229836    -4205.98855578
  entropy T*S    EENTRO =        -0.00440659
  eigenvalues    EBANDS =      -449.43465589
  atomic energy  EATOM  =      5361.07568887
  ---------------------------------------------------
  free energy    TOTEN  =      -168.55642989 eV

  energy without entropy =     -168.55202329  energy(sigma->0) =     -168.55422659


--------------------------------------------------------------------------------------------------------




----------------------------------------- Iteration    1(   6)  ---------------------------------------


    POTLOK:  cpu time    0.11: real time    0.11
    SETDIJ:  cpu time    0.10: real time    0.10
     EDDAV:  cpu time    5.20: real time    5.20
       DOS:  cpu time    0.00: real time    0.00
    CHARGE:  cpu time    0.44: real time    0.44
    MIXING:  cpu time    0.01: real time    0.01
    --------------------------------------------
      LOOP:  cpu time    5.86: real time    5.86

 eigenvalue-minimisations  :  3228
 total energy-change (2. order) : 0.1718571E+02  (-0.9712248E+01)
 number of electron     107.0000002 magnetization 
 augmentation part        6.8722734 magnetization 

 Broyden mixing:
  rms(total) = 0.81780E+00    rms(broyden)= 0.81677E+00
  rms(prec ) = 0.82465E+00
  weight for this iteration     100.00

 eigenvalues of (default mixing * dielectric matrix)
  average eigenvalue GAMMA=   0.8388
  0.8388

 Free energy of the ion-electron system (eV)
  ---------------------------------------------------
  alpha Z        PSCENC =       144.25978381
  Ewald energy   TEWEN  =     21169.29928822
  -Hartree energ DENC   =    -26964.88756548
  -exchange      EXHF   =         0.00000000
  -V(xc)+E(xc)   XCENC  =      -348.95851058
  PAW double counting   =      5835.16540552    -5116.36581060
  entropy T*S    EENTRO =        -0.00309661
  eigenvalues    EBANDS =      -230.95590595
  atomic energy  EATOM  =      5361.07568887
  ---------------------------------------------------
  free energy    TOTEN  =      -151.37072280 eV

  energy without entropy =     -151.36762619  energy(sigma->0) =     -151.36917449


--------------------------------------------------------------------------------------------------------




----------------------------------------- Iteration    1(   7)  ---------------------------------------


    POTLOK:  cpu time    0.11: real time    0.11
    SETDIJ:  cpu time    0.10: real time    0.11
     EDDAV:  cpu time    5.05: real time    5.05
       DOS:  cpu time    0.00: real time    0.00
    CHARGE:  cpu time    0.44: real time    0.44
    MIXING:  cpu time    0.00: real time    0.00
    --------------------------------------------
      LOOP:  cpu time    5.71: real time    5.71

 eigenvalue-minimisations  :  3116
 total energy-change (2. order) : 0.1474239E+00  (-0.2382788E+00)
 number of electron     107.0000002 magnetization 
 augmentation part        6.9116140 magnetization 

 Broyden mixing:
  rms(total) = 0.49612E+00    rms(broyden)= 0.49610E+00
  rms(prec ) = 0.50085E+00
  weight for this iteration     100.00

 eigenvalues of (default mixing * dielectric matrix)
  average eigenvalue GAMMA=   1.5576
  0.9833  2.1318

 Free energy of the ion-electron system (eV)
  ---------------------------------------------------
  alpha Z        PSCENC =       144.25978381
  Ewald energy   TEWEN  =     21169.29928822
  -Hartree energ DENC   =    -26959.93785644
  -exchange      EXHF   =         0.00000000
  -V(xc)+E(xc)   XCENC  =      -348.64490089
  PAW double counting   =      6164.12754118    -5444.82402268
  entropy T*S    EENTRO =        -0.00270212
  eigenvalues    EBANDS =      -236.57611885
  atomic energy  EATOM  =      5361.07568887
  ---------------------------------------------------
  free energy    TOTEN  =      -151.22329889 eV

  energy without entropy =     -151.22059677  energy(sigma->0) =     -151.22194783


--------------------------------------------------------------------------------------------------------




----------------------------------------- Iteration    1(   8)  ---------------------------------------


    POTLOK:  cpu time    0.11: real time    0.11
    SETDIJ:  cpu time    0.10: real time    0.10
     EDDAV:  cpu time    5.29: real time    5.29
       DOS:  cpu time    0.00: real time    0.00
    CHARGE:  cpu time    0.44: real time    0.44
    MIXING:  cpu time    0.01: real time    0.01
    --------------------------------------------
      LOOP:  cpu time    5.94: real time    5.95

 eigenvalue-minimisations  :  3320
 total energy-change (2. order) : 0.9156736E-01  (-0.8997995E-01)
 number of electron     107.0000002 magnetization 
 augmentation part        6.9869372 magnetization 

 Broyden mixing:
  rms(total) = 0.13288E+00    rms(broyden)= 0.13281E+00
  rms(prec ) = 0.13692E+00
  weight for this iteration     100.00

 eigenvalues of (default mixing * dielectric matrix)
  average eigenvalue GAMMA=   1.3325
  2.2912  0.9002  0.8061

 Free energy of the ion-electron system (eV)
  ---------------------------------------------------
  alpha Z        PSCENC =       144.25978381
  Ewald energy   TEWEN  =     21169.29928822
  -Hartree energ DENC   =    -26963.77815085
  -exchange      EXHF   =         0.00000000
  -V(xc)+E(xc)   XCENC  =      -347.24470547
  PAW double counting   =      6664.37599409    -5944.68481610
  entropy T*S    EENTRO =        -0.00553708
  eigenvalues    EBANDS =      -234.42927701
  atomic energy  EATOM  =      5361.07568887
  ---------------------------------------------------
  free energy    TOTEN  =      -151.13173153 eV

  energy without entropy =     -151.12619445  energy(sigma->0) =     -151.12896299


--------------------------------------------------------------------------------------------------------




----------------------------------------- Iteration    1(   9)  ---------------------------------------


    POTLOK:  cpu time    0.11: real time    0.11
    SETDIJ:  cpu time    0.11: real time    0.11
     EDDAV:  cpu time    5.28: real time    5.29
       DOS:  cpu time    0.00: real time    0.00
    CHARGE:  cpu time    0.44: real time    0.44
    MIXING:  cpu time    0.00: real time    0.00
    --------------------------------------------
      LOOP:  cpu time    5.94: real time    5.94

 eigenvalue-minimisations  :  3320
 total energy-change (2. order) : 0.3447129E-01  (-0.1594340E-01)
 number of electron     107.0000002 magnetization 
 augmentation part        6.9520191 magnetization 

 Broyden mixing:
  rms(total) = 0.67521E-01    rms(broyden)= 0.67514E-01
  rms(prec ) = 0.68843E-01
  weight for this iteration     100.00

 eigenvalues of (default mixing * dielectric matrix)
  average eigenvalue GAMMA=   1.4730
  2.4856  0.9434  0.9434  1.5197

 Free energy of the ion-electron system (eV)
  ---------------------------------------------------
  alpha Z        PSCENC =       144.25978381
  Ewald energy   TEWEN  =     21169.29928822
  -Hartree energ DENC   =    -26968.98882070
  -exchange      EXHF   =         0.00000000
  -V(xc)+E(xc)   XCENC  =      -346.75497636
  PAW double counting   =      6692.06604766    -5972.45117741
  entropy T*S    EENTRO =        -0.00394537
  eigenvalues    EBANDS =      -229.59914896
  atomic energy  EATOM  =      5361.07568887
  ---------------------------------------------------
  free energy    TOTEN  =      -151.09726024 eV

  energy without entropy =     -151.09331487  energy(sigma->0) =     -151.09528755


--------------------------------------------------------------------------------------------------------




----------------------------------------- Iteration    1(  10)  ---------------------------------------


    POTLOK:  cpu time    0.11: real time    0.11
    SETDIJ:  cpu time    0.10: real time    0.10
     EDDAV:  cpu time    5.20: real time    5.21
       DOS:  cpu time    0.00: real time    0.00
    CHARGE:  cpu time    0.44: real time    0.44
    MIXING:  cpu time    0.01: real time    0.01
    --------------------------------------------
      LOOP:  cpu time    5.86: real time    5.86

 eigenvalue-minimisations  :  3240
 total energy-change (2. order) :-0.4282355E-02  (-0.1441794E-01)
 number of electron     107.0000002 magnetization 
 augmentation part        6.9272227 magnetization 

 Broyden mixing:
  rms(total) = 0.45842E-01    rms(broyden)= 0.45797E-01
  rms(prec ) = 0.48306E-01
  weight for this iteration     100.00

 eigenvalues of (default mixing * dielectric matrix)
  average eigenvalue GAMMA=   1.3001
  2.5303  1.4375  0.9782  0.7772  0.7772

 Free energy of the ion-electron system (eV)
  ---------------------------------------------------
  alpha Z        PSCENC =       144.25978381
  Ewald energy   TEWEN  =     21169.29928822
  -Hartree energ DENC   =    -26970.93426007
  -exchange      EXHF   =         0.00000000
  -V(xc)+E(xc)   XCENC  =      -346.45561185
  PAW double counting   =      6684.92305922    -5965.33594191
  entropy T*S    EENTRO =        -0.00398247
  eigenvalues    EBANDS =      -227.92956641
  atomic energy  EATOM  =      5361.07568887
  ---------------------------------------------------
  free energy    TOTEN  =      -151.10154259 eV

  energy without entropy =     -151.09756012  energy(sigma->0) =     -151.09955136


--------------------------------------------------------------------------------------------------------




----------------------------------------- Iteration    1(  11)  ---------------------------------------


    POTLOK:  cpu time    0.11: real time    0.11
    SETDIJ:  cpu time    0.10: real time    0.10
     EDDAV:  cpu time    5.28: real time    5.29
       DOS:  cpu time    0.00: real time    0.00
    CHARGE:  cpu time    0.44: real time    0.44
    MIXING:  cpu time    0.00: real time    0.00
    --------------------------------------------
      LOOP:  cpu time    5.94: real time    5.95

 eigenvalue-minimisations  :  3312
 total energy-change (2. order) : 0.2796088E-02  (-0.1341493E-02)
 number of electron     107.0000002 magnetization 
 augmentation part        6.9311404 magnetization 

 Broyden mixing:
  rms(total) = 0.30627E-01    rms(broyden)= 0.30627E-01
  rms(prec ) = 0.31627E-01
  weight for this iteration     100.00

 eigenvalues of (default mixing * dielectric matrix)
  average eigenvalue GAMMA=   1.3474
  2.5557  1.5735  0.9499  0.9499  1.0277  1.0277

 Free energy of the ion-electron system (eV)
  ---------------------------------------------------
  alpha Z        PSCENC =       144.25978381
  Ewald energy   TEWEN  =     21169.29928822
  -Hartree energ DENC   =    -26970.60933662
  -exchange      EXHF   =         0.00000000
  -V(xc)+E(xc)   XCENC  =      -346.43597561
  PAW double counting   =      6678.77386379    -5959.18769285
  entropy T*S    EENTRO =        -0.00345111
  eigenvalues    EBANDS =      -228.27091500
  atomic energy  EATOM  =      5361.07568887
  ---------------------------------------------------
  free energy    TOTEN  =      -151.09874650 eV

  energy without entropy =     -151.09529539  energy(sigma->0) =     -151.09702095


--------------------------------------------------------------------------------------------------------




----------------------------------------- Iteration    1(  12)  ---------------------------------------


    POTLOK:  cpu time    0.11: real time    0.11
    SETDIJ:  cpu time    0.10: real time    0.10
     EDDAV:  cpu time    5.30: real time    5.31
       DOS:  cpu time    0.00: real time    0.00
    CHARGE:  cpu time    0.44: real time    0.44
    MIXING:  cpu time    0.00: real time    0.00
    --------------------------------------------
      LOOP:  cpu time    5.96: real time    5.96

 eigenvalue-minimisations  :  3320
 total energy-change (2. order) : 0.6712743E-03  (-0.1940659E-02)
 number of electron     107.0000002 magnetization 
 augmentation part        6.9340229 magnetization 

 Broyden mixing:
  rms(total) = 0.15616E-01    rms(broyden)= 0.15597E-01
  rms(prec ) = 0.16328E-01
  weight for this iteration     100.00

 eigenvalues of (default mixing * dielectric matrix)
  average eigenvalue GAMMA=   1.3502
  2.6528  2.3952  0.9158  0.9158  0.9585  0.9585  0.6546

 Free energy of the ion-electron system (eV)
  ---------------------------------------------------
  alpha Z        PSCENC =       144.25978381
  Ewald energy   TEWEN  =     21169.29928822
  -Hartree energ DENC   =    -26970.21222088
  -exchange      EXHF   =         0.00000000
  -V(xc)+E(xc)   XCENC  =      -346.41890901
  PAW double counting   =      6664.94319140    -5945.36093937
  entropy T*S    EENTRO =        -0.00362944
  eigenvalues    EBANDS =      -228.68032884
  atomic energy  EATOM  =      5361.07568887
  ---------------------------------------------------
  free energy    TOTEN  =      -151.09807523 eV

  energy without entropy =     -151.09444579  energy(sigma->0) =     -151.09626051


--------------------------------------------------------------------------------------------------------




----------------------------------------- Iteration    1(  13)  ---------------------------------------


    POTLOK:  cpu time    0.11: real time    0.11
    SETDIJ:  cpu time    0.10: real time    0.10
     EDDAV:  cpu time    5.47: real time    5.47
       DOS:  cpu time    0.00: real time    0.00
    CHARGE:  cpu time    0.44: real time    0.44
    MIXING:  cpu time    0.01: real time    0.01
    --------------------------------------------
      LOOP:  cpu time    6.12: real time    6.13

 eigenvalue-minimisations  :  3464
 total energy-change (2. order) : 0.1988734E-03  (-0.1917922E-03)
 number of electron     107.0000002 magnetization 
 augmentation part        6.9365160 magnetization 

 Broyden mixing:
  rms(total) = 0.12700E-01    rms(broyden)= 0.12700E-01
  rms(prec ) = 0.13362E-01
  weight for this iteration     100.00

 eigenvalues of (default mixing * dielectric matrix)
  average eigenvalue GAMMA=   1.3509
  2.8214  2.4469  0.9069  0.9069  1.0955  0.9328  0.9328  0.7640

 Free energy of the ion-electron system (eV)
  ---------------------------------------------------
  alpha Z        PSCENC =       144.25978381
  Ewald energy   TEWEN  =     21169.29928822
  -Hartree energ DENC   =    -26969.54340667
  -exchange      EXHF   =         0.00000000
  -V(xc)+E(xc)   XCENC  =      -346.42129989
  PAW double counting   =      6648.77309203    -5929.18887507
  entropy T*S    EENTRO =        -0.00365493
  eigenvalues    EBANDS =      -229.34849272
  atomic energy  EATOM  =      5361.07568887
  ---------------------------------------------------
  free energy    TOTEN  =      -151.09787635 eV

  energy without entropy =     -151.09422142  energy(sigma->0) =     -151.09604889


--------------------------------------------------------------------------------------------------------




----------------------------------------- Iteration    1(  14)  ---------------------------------------


    POTLOK:  cpu time    0.11: real time    0.11
    SETDIJ:  cpu time    0.10: real time    0.10
     EDDAV:  cpu time    5.61: real time    5.61
       DOS:  cpu time    0.00: real time    0.00
    CHARGE:  cpu time    0.44: real time    0.44
    MIXING:  cpu time    0.00: real time    0.00
    --------------------------------------------
      LOOP:  cpu time    6.27: real time    6.27

 eigenvalue-minimisations  :  3584
 total energy-change (2. order) : 0.3038816E-03  (-0.1125848E-03)
 number of electron     107.0000002 magnetization 
 augmentation part        6.9369375 magnetization 

 Broyden mixing:
  rms(total) = 0.50994E-02    rms(broyden)= 0.50968E-02
  rms(prec ) = 0.61599E-02
  weight for this iteration     100.00

 eigenvalues of (default mixing * dielectric matrix)
  average eigenvalue GAMMA=   1.3238
  2.9076  2.4864  0.9430  0.9430  1.0271  1.0271  0.8020  0.8889  0.8889

 Free energy of the ion-electron system (eV)
  ---------------------------------------------------
  alpha Z        PSCENC =       144.25978381
  Ewald energy   TEWEN  =     21169.29928822
  -Hartree energ DENC   =    -26969.27411244
  -exchange      EXHF   =         0.00000000
  -V(xc)+E(xc)   XCENC  =      -346.41864548
  PAW double counting   =      6645.85733944    -5926.27197370
  entropy T*S    EENTRO =        -0.00369758
  eigenvalues    EBANDS =      -229.62124362
  atomic energy  EATOM  =      5361.07568887
  ---------------------------------------------------
  free energy    TOTEN  =      -151.09757247 eV

  energy without entropy =     -151.09387490  energy(sigma->0) =     -151.09572368


--------------------------------------------------------------------------------------------------------




----------------------------------------- Iteration    1(  15)  ---------------------------------------


    POTLOK:  cpu time    0.11: real time    0.11
    SETDIJ:  cpu time    0.10: real time    0.10
     EDDAV:  cpu time    5.45: real time    5.45
       DOS:  cpu time    0.00: real time    0.00
    CHARGE:  cpu time    0.44: real time    0.44
    MIXING:  cpu time    0.01: real time    0.01
    --------------------------------------------
      LOOP:  cpu time    6.11: real time    6.11

 eigenvalue-minimisations  :  3448
 total energy-change (2. order) : 0.1376518E-03  (-0.3351623E-04)
 number of electron     107.0000002 magnetization 
 augmentation part        6.9360404 magnetization 

 Broyden mixing:
  rms(total) = 0.17652E-02    rms(broyden)= 0.17631E-02
  rms(prec ) = 0.34630E-02
  weight for this iteration     100.00

 eigenvalues of (default mixing * dielectric matrix)
  average eigenvalue GAMMA=   1.3601
  2.8561  2.4519  1.7836  0.9389  0.9389  0.9536  0.9536  0.9633  0.9633  0.7976

 Free energy of the ion-electron system (eV)
  ---------------------------------------------------
  alpha Z        PSCENC =       144.25978381
  Ewald energy   TEWEN  =     21169.29928822
  -Hartree energ DENC   =    -26969.03660229
  -exchange      EXHF   =         0.00000000
  -V(xc)+E(xc)   XCENC  =      -346.41407379
  PAW double counting   =      6644.92622657    -5925.34134186
  entropy T*S    EENTRO =        -0.00371200
  eigenvalues    EBANDS =      -229.86269236
  atomic energy  EATOM  =      5361.07568887
  ---------------------------------------------------
  free energy    TOTEN  =      -151.09743482 eV

  energy without entropy =     -151.09372283  energy(sigma->0) =     -151.09557882


--------------------------------------------------------------------------------------------------------




----------------------------------------- Iteration    1(  16)  ---------------------------------------


    POTLOK:  cpu time    0.11: real time    0.11
    SETDIJ:  cpu time    0.10: real time    0.10
     EDDAV:  cpu time    6.17: real time    6.17
       DOS:  cpu time    0.00: real time    0.00
    CHARGE:  cpu time    0.45: real time    0.45
    MIXING:  cpu time    0.00: real time    0.00
    --------------------------------------------
      LOOP:  cpu time    6.83: real time    6.84

 eigenvalue-minimisations  :  4072
 total energy-change (2. order) : 0.1129145E-03  (-0.1051825E-04)
 number of electron     107.0000002 magnetization 
 augmentation part        6.9360025 magnetization 

 Broyden mixing:
  rms(total) = 0.11841E-02    rms(broyden)= 0.11834E-02
  rms(prec ) = 0.27344E-02
  weight for this iteration     100.00

 eigenvalues of (default mixing * dielectric matrix)
  average eigenvalue GAMMA=   1.4629
  3.1274  2.8532  2.4637  0.9440  0.9440  0.9350  0.9350  1.0464  1.0464  1.0455
  0.7510

 Free energy of the ion-electron system (eV)
  ---------------------------------------------------
  alpha Z        PSCENC =       144.25978381
  Ewald energy   TEWEN  =     21169.29928822
  -Hartree energ DENC   =    -26968.70447871
  -exchange      EXHF   =         0.00000000
  -V(xc)+E(xc)   XCENC  =      -346.41294141
  PAW double counting   =      6645.80020949    -5926.21418698
  entropy T*S    EENTRO =        -0.00374563
  eigenvalues    EBANDS =      -230.19693958
  atomic energy  EATOM  =      5361.07568887
  ---------------------------------------------------
  free energy    TOTEN  =      -151.09732191 eV

  energy without entropy =     -151.09357627  energy(sigma->0) =     -151.09544909


--------------------------------------------------------------------------------------------------------




----------------------------------------- Iteration    1(  17)  ---------------------------------------


    POTLOK:  cpu time    0.11: real time    0.11
    SETDIJ:  cpu time    0.10: real time    0.10
     EDDAV:  cpu time    6.80: real time    6.81
       DOS:  cpu time    0.00: real time    0.00
    CHARGE:  cpu time    0.44: real time    0.44
    MIXING:  cpu time    0.01: real time    0.01
    --------------------------------------------
      LOOP:  cpu time    7.46: real time    7.46

 eigenvalue-minimisations  :  4552
 total energy-change (2. order) : 0.1414857E-03  (-0.2079423E-04)
 number of electron     107.0000002 magnetization 
 augmentation part        6.9359799 magnetization 

 Broyden mixing:
  rms(total) = 0.14576E-02    rms(broyden)= 0.14570E-02
  rms(prec ) = 0.22576E-02
  weight for this iteration     100.00

 eigenvalues of (default mixing * dielectric matrix)
  average eigenvalue GAMMA=   1.5725
  4.2321  2.8491  2.4245  1.8084  0.9388  0.9388  0.9378  0.9378  1.0318  1.0318
  0.9744  0.7643

 Free energy of the ion-electron system (eV)
  ---------------------------------------------------
  alpha Z        PSCENC =       144.25978381
  Ewald energy   TEWEN  =     21169.29928822
  -Hartree energ DENC   =    -26968.09184427
  -exchange      EXHF   =         0.00000000
  -V(xc)+E(xc)   XCENC  =      -346.41060158
  PAW double counting   =      6646.13956840    -5926.55285471
  entropy T*S    EENTRO =        -0.00377346
  eigenvalues    EBANDS =      -230.81243570
  atomic energy  EATOM  =      5361.07568887
  ---------------------------------------------------
  free energy    TOTEN  =      -151.09718042 eV

  energy without entropy =     -151.09340696  energy(sigma->0) =     -151.09529369


--------------------------------------------------------------------------------------------------------




----------------------------------------- Iteration    1(  18)  ---------------------------------------


    POTLOK:  cpu time    0.11: real time    0.11
    SETDIJ:  cpu time    0.10: real time    0.10
     EDDAV:  cpu time    5.83: real time    5.83
       DOS:  cpu time    0.00: real time    0.00
    CHARGE:  cpu time    0.44: real time    0.44
    MIXING:  cpu time    0.01: real time    0.01
    --------------------------------------------
      LOOP:  cpu time    6.48: real time    6.49

 eigenvalue-minimisations  :  3744
 total energy-change (2. order) : 0.6501423E-04  (-0.1862776E-04)
 number of electron     107.0000002 magnetization 
 augmentation part        6.9359543 magnetization 

 Broyden mixing:
  rms(total) = 0.13625E-02    rms(broyden)= 0.13620E-02
  rms(prec ) = 0.18086E-02
  weight for this iteration     100.00

 eigenvalues of (default mixing * dielectric matrix)
  average eigenvalue GAMMA=   1.5191
  4.6662  2.8679  2.4310  1.8136  0.9357  0.9357  0.9378  0.9378  1.0272  1.0272
  0.9640  0.7593  0.4451

 Free energy of the ion-electron system (eV)
  ---------------------------------------------------
  alpha Z        PSCENC =       144.25978381
  Ewald energy   TEWEN  =     21169.29928822
  -Hartree energ DENC   =    -26967.56437819
  -exchange      EXHF   =         0.00000000
  -V(xc)+E(xc)   XCENC  =      -346.41083040
  PAW double counting   =      6646.32230885    -5926.73560403
  entropy T*S    EENTRO =        -0.00377970
  eigenvalues    EBANDS =      -231.33959282
  atomic energy  EATOM  =      5361.07568887
  ---------------------------------------------------
  free energy    TOTEN  =      -151.09711541 eV

  energy without entropy =     -151.09333570  energy(sigma->0) =     -151.09522556


--------------------------------------------------------------------------------------------------------




----------------------------------------- Iteration    1(  19)  ---------------------------------------


    POTLOK:  cpu time    0.11: real time    0.11
    SETDIJ:  cpu time    0.10: real time    0.10
     EDDAV:  cpu time    5.40: real time    5.40
       DOS:  cpu time    0.00: real time    0.00
    CHARGE:  cpu time    0.44: real time    0.44
    MIXING:  cpu time    0.01: real time    0.01
    --------------------------------------------
      LOOP:  cpu time    6.06: real time    6.06

 eigenvalue-minimisations  :  3384
 total energy-change (2. order) : 0.1987339E-04  (-0.1295640E-04)
 number of electron     107.0000002 magnetization 
 augmentation part        6.9362995 magnetization 

 Broyden mixing:
  rms(total) = 0.81757E-03    rms(broyden)= 0.81730E-03
  rms(prec ) = 0.12342E-02
  weight for this iteration     100.00

 eigenvalues of (default mixing * dielectric matrix)
  average eigenvalue GAMMA=   1.5576
  4.8892  2.9491  2.4483  1.9609  1.0593  1.0593  0.9558  0.7667  0.9511  0.9511
  0.9454  0.9454  0.9621  0.9621

 Free energy of the ion-electron system (eV)
  ---------------------------------------------------
  alpha Z        PSCENC =       144.25978381
  Ewald energy   TEWEN  =     21169.29928822
  -Hartree energ DENC   =    -26967.33724226
  -exchange      EXHF   =         0.00000000
  -V(xc)+E(xc)   XCENC  =      -346.41356253
  PAW double counting   =      6646.39939563    -5926.81204597
  entropy T*S    EENTRO =        -0.00379033
  eigenvalues    EBANDS =      -231.56461097
  atomic energy  EATOM  =      5361.07568887
  ---------------------------------------------------
  free energy    TOTEN  =      -151.09709553 eV

  energy without entropy =     -151.09330520  energy(sigma->0) =     -151.09520037


--------------------------------------------------------------------------------------------------------




----------------------------------------- Iteration    1(  20)  ---------------------------------------


    POTLOK:  cpu time    0.11: real time    0.11
    SETDIJ:  cpu time    0.10: real time    0.10
     EDDAV:  cpu time    4.85: real time    4.85
       DOS:  cpu time    0.00: real time    0.00
    CHARGE:  cpu time    0.44: real time    0.44
    MIXING:  cpu time    0.01: real time    0.01
    --------------------------------------------
      LOOP:  cpu time    5.50: real time    5.51

 eigenvalue-minimisations  :  2920
 total energy-change (2. order) : 0.1169109E-04  (-0.4999408E-05)
 number of electron     107.0000002 magnetization 
 augmentation part        6.9361560 magnetization 

 Broyden mixing:
  rms(total) = 0.95953E-03    rms(broyden)= 0.95921E-03
  rms(prec ) = 0.12447E-02
  weight for this iteration     100.00

 eigenvalues of (default mixing * dielectric matrix)
  average eigenvalue GAMMA=   1.6141
  5.5331  3.0089  2.4797  2.2560  1.2969  1.2969  0.9396  0.9396  0.9378  0.9378
  1.0851  1.0043  1.0043  0.7564  0.7354

 Free energy of the ion-electron system (eV)
  ---------------------------------------------------
  alpha Z        PSCENC =       144.25978381
  Ewald energy   TEWEN  =     21169.29928822
  -Hartree energ DENC   =    -26967.25604184
  -exchange      EXHF   =         0.00000000
  -V(xc)+E(xc)   XCENC  =      -346.41260697
  PAW double counting   =      6646.65571004    -5927.06868383
  entropy T*S    EENTRO =        -0.00378866
  eigenvalues    EBANDS =      -231.64643348
  atomic energy  EATOM  =      5361.07568887
  ---------------------------------------------------
  free energy    TOTEN  =      -151.09708384 eV

  energy without entropy =     -151.09329518  energy(sigma->0) =     -151.09518951


--------------------------------------------------------------------------------------------------------




----------------------------------------- Iteration    1(  21)  ---------------------------------------


    POTLOK:  cpu time    0.11: real time    0.11
    SETDIJ:  cpu time    0.10: real time    0.10
     EDDAV:  cpu time    3.99: real time    3.99
       DOS:  cpu time    0.00: real time    0.00
    CHARGE:  cpu time    0.44: real time    0.44
    MIXING:  cpu time    0.01: real time    0.01
    --------------------------------------------
      LOOP:  cpu time    4.65: real time    4.65

 eigenvalue-minimisations  :  2168
 total energy-change (2. order) : 0.2031437E-04  (-0.1590573E-05)
 number of electron     107.0000002 magnetization 
 augmentation part        6.9361746 magnetization 

 Broyden mixing:
  rms(total) = 0.10855E-02    rms(broyden)= 0.10855E-02
  rms(prec ) = 0.12541E-02
  weight for this iteration     100.00

 eigenvalues of (default mixing * dielectric matrix)
  average eigenvalue GAMMA=   1.7542
  7.0652  3.3503  2.7548  2.4050  1.5124  1.5124  0.9382  0.9382  1.2718  0.7686
  0.9460  0.9460  0.9483  0.9483  0.8806  0.8806

 Free energy of the ion-electron system (eV)
  ---------------------------------------------------
  alpha Z        PSCENC =       144.25978381
  Ewald energy   TEWEN  =     21169.29928822
  -Hartree energ DENC   =    -26967.05177370
  -exchange      EXHF   =         0.00000000
  -V(xc)+E(xc)   XCENC  =      -346.41100021
  PAW double counting   =      6646.78194945    -5927.19499017
  entropy T*S    EENTRO =        -0.00379374
  eigenvalues    EBANDS =      -231.85221606
  atomic energy  EATOM  =      5361.07568887
  ---------------------------------------------------
  free energy    TOTEN  =      -151.09706353 eV

  energy without entropy =     -151.09326978  energy(sigma->0) =     -151.09516666


--------------------------------------------------------------------------------------------------------




----------------------------------------- Iteration    1(  22)  ---------------------------------------


    POTLOK:  cpu time    0.11: real time    0.11
    SETDIJ:  cpu time    0.10: real time    0.10
     EDDAV:  cpu time    4.55: real time    4.55
       DOS:  cpu time    0.00: real time    0.00
    CHARGE:  cpu time    0.44: real time    0.44
    MIXING:  cpu time    0.01: real time    0.01
    --------------------------------------------
      LOOP:  cpu time    5.21: real time    5.21

 eigenvalue-minimisations  :  2640
 total energy-change (2. order) : 0.1068477E-04  (-0.3109414E-05)
 number of electron     107.0000002 magnetization 
 augmentation part        6.9360882 magnetization 

 Broyden mixing:
  rms(total) = 0.13086E-02    rms(broyden)= 0.13085E-02
  rms(prec ) = 0.13830E-02
  weight for this iteration     100.00

 eigenvalues of (default mixing * dielectric matrix)
  average eigenvalue GAMMA=   1.6540
  7.0638  3.3046  2.7451  2.3935  1.5119  1.5119  0.9383  0.9383  1.2752  0.7685
  0.9451  0.9451  0.9479  0.9479  0.8859  0.8859  0.1095

 Free energy of the ion-electron system (eV)
  ---------------------------------------------------
  alpha Z        PSCENC =       144.25978381
  Ewald energy   TEWEN  =     21169.29928822
  -Hartree energ DENC   =    -26966.88723191
  -exchange      EXHF   =         0.00000000
  -V(xc)+E(xc)   XCENC  =      -346.41015859
  PAW double counting   =      6646.85557445    -5927.26841642
  entropy T*S    EENTRO =        -0.00379861
  eigenvalues    EBANDS =      -232.01778267
  atomic energy  EATOM  =      5361.07568887
  ---------------------------------------------------
  free energy    TOTEN  =      -151.09705284 eV

  energy without entropy =     -151.09325424  energy(sigma->0) =     -151.09515354


--------------------------------------------------------------------------------------------------------




----------------------------------------- Iteration    1(  23)  ---------------------------------------


    POTLOK:  cpu time    0.11: real time    0.11
    SETDIJ:  cpu time    0.10: real time    0.10
     EDDAV:  cpu time    5.09: real time    5.10
       DOS:  cpu time    0.00: real time    0.00
    --------------------------------------------
      LOOP:  cpu time    5.31: real time    5.31

 eigenvalue-minimisations  :  3116
 total energy-change (2. order) : 0.5665242E-05  (-0.5591424E-05)
 number of electron     107.0000002 magnetization 
 augmentation part        6.9360882 magnetization 

 Free energy of the ion-electron system (eV)
  ---------------------------------------------------
  alpha Z        PSCENC =       144.25978381
  Ewald energy   TEWEN  =     21169.29928822
  -Hartree energ DENC   =    -26966.77795489
  -exchange      EXHF   =         0.00000000
  -V(xc)+E(xc)   XCENC  =      -346.41214978
  PAW double counting   =      6646.65801724    -5927.06989032
  entropy T*S    EENTRO =        -0.00379728
  eigenvalues    EBANDS =      -232.12603306
  atomic energy  EATOM  =      5361.07568887
  ---------------------------------------------------
  free energy    TOTEN  =      -151.09704718 eV

  energy without entropy =     -151.09324990  energy(sigma->0) =     -151.09514854


--------------------------------------------------------------------------------------------------------




 average (electrostatic) potential at core
  the test charge radii are     0.7215  1.0714  1.0406
  (the norm of the test charge is              1.0000)
       1 -70.5968       2 -70.5113       3 -70.5017       4 -70.4934       5 -70.4964
       6 -70.5083       7 -70.5267       8 -70.5343       9 -70.4948      10 -70.5031
      11 -70.5836      12 -36.0847      13 -36.0737      14 -36.0768      15 -36.0740
      16 -36.0812      17 -36.0731      18 -36.0903      19 -36.0980      20 -36.0722
      21 -36.0831      22 -74.3751      23 -75.2767      24 -74.4191      25 -74.4489
      26 -75.2638      27 -74.4458      28 -74.4122
 
 
 
 E-fermi :   6.2711     XC(G=0): -10.1307     alpha+bet :-12.1463


 k-point     1 :       0.0000    0.0000    0.0000
  band No.  band energies     occupation 
      1     -14.8425      2.00000
      2     -14.7970      2.00000
      3     -14.7052      2.00000
      4     -14.5867      2.00000
      5     -14.4486      2.00000
      6     -14.3022      2.00000
      7     -14.1592      2.00000
      8     -14.0285      2.00000
      9     -13.9160      2.00000
     10     -13.8258      2.00000
     11     -13.7562      2.00000
     12      -3.6029      2.00000
     13      -3.5799      2.00000
     14      -3.5646      2.00000
     15      -2.2968      2.00000
     16      -2.1061      2.00000
     17      -1.9630      2.00000
     18      -1.8101      2.00000
     19      -1.4893      2.00000
     20      -1.1372      2.00000
     21      -0.7557      2.00000
     22      -0.2812      2.00000
     23       0.2349      2.00000
     24       0.5888      2.00000
     25       0.8271      2.00000
     26       1.3934      2.00000
     27       1.7908      2.00000
     28       1.7908      2.00000
     29       1.8131      2.00000
     30       1.8131      2.00000
     31       1.8437      2.00000
     32       1.8674      2.00000
     33       1.8674      2.00000
     34       1.9359      2.00000
     35       1.9359      2.00000
     36       2.0161      2.00000
     37       2.0162      2.00000
     38       2.1016      2.00000
     39       2.1016      2.00000
     40       2.1845      2.00000
     41       2.1845      2.00000
[...]
     23      -0.6329      2.00000
     24      -0.5091      2.00000
     25      -0.3533      2.00000
     26      -0.2163      2.00000
     27      -0.0634      2.00000
     28       0.0013      2.00000
     29       0.0489      2.00000
     30       0.1217      2.00000
     31       0.1664      2.00000
     32       0.2448      2.00000
     33       0.2715      2.00000
     34       0.3533      2.00000
     35       0.4326      2.00000
     36       0.5542      2.00000
     37       0.7235      2.00000
     38       0.8707      2.00000
     39       0.9591      2.00000
     40       1.0037      2.00000
     41       1.1016      2.00000
     42       1.1545      2.00000
     43       1.1629      2.00000
     44       1.2532      2.00000
     45       1.3417      2.00000
     46       2.0388      2.00000
     47       2.0607      2.00000
     48       2.8054      2.00000
     49       4.4058      2.00000
     50       4.8564      2.00000
     51       4.8786      2.00000
     52       5.3543      2.00000
     53       5.9751      2.00000
     54       5.9974      2.00000
     55       6.1340      2.00000
     56       6.1438      2.00000
     57       6.8027      0.00000
     58       6.8366      0.00000
     59       7.7395      0.00000
     60       8.2793      0.00000
     61       8.8040      0.00000
     62       9.0110      0.00000
     63       9.1141      0.00000
     64      10.1734      0.00000
     65      10.3246      0.00000
     66      10.4238      0.00000
     67      10.6658      0.00000
     68      10.8095      0.00000

 k-point    20 :       0.3846    0.2308    0.0000
  band No.  band energies     occupation 
      1     -13.6532      2.00000
      2     -13.6429      2.00000
      3     -13.6313      2.00000
      4     -13.6143      2.00000
      5     -13.5938      2.00000
      6     -13.5733      2.00000
      7     -13.5521      2.00000
      8     -13.5331      2.00000
      9     -13.5185      2.00000
     10     -13.3951      2.00000
     11     -13.3685      2.00000
     12      -1.8271      2.00000
     13      -1.7607      2.00000
     14      -1.6527      2.00000
     15      -1.5262      2.00000
     16      -1.4015      2.00000
     17      -1.3656      2.00000
     18      -1.3466      2.00000
     19      -1.3118      2.00000
     20      -1.3048      2.00000
     21      -1.2503      2.00000
     22      -1.2415      2.00000
     23      -0.4262      2.00000
     24      -0.4020      2.00000
     25      -0.3559      2.00000
     26      -0.3174      2.00000
     27      -0.2941      2.00000
     28      -0.2459      2.00000
     29      -0.2429      2.00000
     30      -0.1366      2.00000
     31       0.0281      2.00000
     32       0.1772      2.00000
     33       0.3028      2.00000
     34       0.4046      2.00000
     35       0.4260      2.00000
     36       0.7224      2.00000
     37       0.7729      2.00000
     38       0.8143      2.00000
     39       0.8818      2.00000
     40       0.9485      2.00000
     41       1.0776      2.00000
     42       1.1586      2.00000
     43       1.2037      2.00000
     44       1.2111      2.00000
     45       2.6441      2.00000
     46       2.6998      2.00000
     47       3.0451      2.00000
     48       3.0670      2.00000
     49       3.6119      2.00000
     50       3.6335      2.00000
     51       4.1106      2.00000
     52       4.5499      2.00000
     53       5.8769      2.00000
     54       6.2182      1.99248
     55       6.2413      1.95657
     56       6.7433      0.00000
     57       7.1286      0.00000
     58       7.3917      0.00000
     59       7.4177      0.00000
     60       7.6710      0.00000
     61       7.8604      0.00000
     62       7.8927      0.00000
     63       9.6580      0.00000
     64       9.8821      0.00000
     65      10.2297      0.00000
     66      10.3170      0.00000
     67      10.4785      0.00000
     68      11.2893      0.00000

 k-point    21 :       0.3077    0.3077   -0.0000
  band No.  band energies     occupation 
      1     -13.6198      2.00000
      2     -13.6088      2.00000
      3     -13.6004      2.00000
      4     -13.5879      2.00000
      5     -13.5735      2.00000
      6     -13.5594      2.00000
      7     -13.5451      2.00000
      8     -13.5324      2.00000
      9     -13.5223      2.00000
     10     -13.3784      2.00000
     11     -13.3517      2.00000
     12      -1.4716      2.00000
     13      -1.4621      2.00000
     14      -1.4223      2.00000
     15      -1.3933      2.00000
     16      -1.3421      2.00000
     17      -1.2824      2.00000
     18      -1.2543      2.00000
     19      -1.1417      2.00000
     20      -1.0569      2.00000
     21      -0.9834      2.00000
     22      -0.9764      2.00000
     23      -0.8767      2.00000
     24      -0.7498      2.00000
     25      -0.6728      2.00000
     26      -0.6013      2.00000
     27      -0.5381      2.00000
     28      -0.4801      2.00000
     29      -0.4393      2.00000
     30      -0.3125      2.00000
     31      -0.2925      2.00000
     32      -0.1628      2.00000
     33      -0.1559      2.00000
     34       0.4180      2.00000
     35       0.4422      2.00000
     36       0.7331      2.00000
     37       0.8424      2.00000
     38       0.9297      2.00000
     39       0.9566      2.00000
     40       0.9828      2.00000
     41       1.0300      2.00000
     42       1.0303      2.00000
     43       1.0785      2.00000
     44       1.1717      2.00000
     45       2.5479      2.00000
     46       3.1624      2.00000
     47       3.1843      2.00000
     48       4.0733      2.00000
     49       4.1483      2.00000
     50       4.2791      2.00000
     51       4.4467      2.00000
     52       4.4689      2.00000
     53       5.0534      2.00000
     54       5.0746      2.00000
     55       5.6875      2.00000
     56       6.0137      2.00000
     57       6.8849      0.00000
     58       7.3605      0.00000
     59       7.4363      0.00000
     60       8.2459      0.00000
     61       8.5761      0.00000
     62       8.7055      0.00000
     63       8.7386      0.00000
     64       9.1284      0.00000
     65       9.1493      0.00000
     66       9.7914      0.00000
     67      11.1763      0.00000
     68      11.3238      0.00000


--------------------------------------------------------------------------------------------------------


 soft charge-density along one line, spin component           1
         0         1         2         3         4         5         6         7         8         9
 total charge-density along one line
 
 pseudopotential strength for first ion, spin component:           1
 12.262   0.000 -14.926   0.000  -0.000   0.000  -0.005   0.000   0.000   0.000   0.000   0.000   0.006   0.000  -0.000   0.000
-14.926   0.000  18.189   0.000   0.000   0.000   0.006   0.000  -0.000   0.000  -0.000   0.000  -0.008   0.000   0.000   0.000
 -0.000   0.000   0.000   0.000  -8.441   0.000  -0.000   0.000   0.000   0.000  10.133   0.000   0.000   0.000  -0.000   0.000
 -0.005   0.000   0.006   0.000  -0.000   0.000  -8.450   0.000   0.000   0.000   0.000   0.000  10.145   0.000  -0.000   0.000
  0.000   0.000  -0.000   0.000   0.000   0.000   0.000   0.000  -8.441   0.000  -0.000   0.000  -0.000   0.000  10.133   0.000
  0.000   0.000  -0.000   0.000  10.133   0.000   0.000   0.000  -0.000   0.000 -12.009   0.000  -0.000   0.000   0.000   0.000
  0.006   0.000  -0.008   0.000   0.000   0.000  10.145   0.000  -0.000   0.000  -0.000   0.000 -12.025   0.000   0.000   0.000
 -0.000   0.000   0.000   0.000  -0.000   0.000  -0.000   0.000  10.133   0.000   0.000   0.000   0.000   0.000 -12.009   0.000
 total augmentation occupancy for first ion, spin component:           1
  2.526   0.327   0.000   0.037  -0.000   0.000   0.005  -0.000
  0.327   0.082   0.000   0.016  -0.000   0.000  -0.008   0.000
 -0.000   0.000   2.073   0.000   0.000   0.234   0.000   0.000
  0.037   0.016   0.000   2.073  -0.000   0.000   0.243  -0.000
 -0.000  -0.000   0.000  -0.000   2.073   0.000  -0.000   0.234
  0.000   0.000   0.234   0.000   0.000   0.031   0.000   0.000
  0.005  -0.008   0.000   0.243  -0.000   0.000   0.035  -0.000
 -0.000   0.000   0.000  -0.000   0.234   0.000  -0.000   0.031


------------------------ aborting loop because EDIFF is reached ----------------------------------------


    CHARGE:  cpu time    0.44: real time    0.44
    FORLOC:  cpu time    0.04: real time    0.04
    FORNL :  cpu time    3.61: real time    3.61
    STRESS:  cpu time    4.61: real time    4.61
    FORCOR:  cpu time    0.15: real time    0.15
    FORHAR:  cpu time    0.06: real time    0.06
    MIXING:  cpu time    0.00: real time    0.00
    OFIELD:  cpu time    0.00: real time    0.00

  FORCE on cell =-STRESS in cart. coord.  units (eV):
  Direction    XX          YY          ZZ          XY          YZ          ZX
  --------------------------------------------------------------------------------------
  Alpha Z   144.25978   144.25978   144.25978
  Ewald   26411.31709 26411.31761-29326.01305    -0.00019    -0.00001    -0.00013
  Hartree 28252.35559 28252.35549-27221.10866     0.00000     0.00000     0.00005
  E(xc)    -451.01243  -451.01245  -451.17833    -0.00000     0.00000     0.00000
  Local  -55995.76969-55995.76913 55222.95019    -0.00019    -0.00001     0.00004
  n-local   -73.18113   -86.80445   -80.41481     3.26945    -1.76981     5.07258
  augment    66.91514    66.91487    66.41965     0.00019    -0.00000     0.00000
  Kinetic  1652.00735  1643.83614  1640.28334    -1.89270     0.11425     1.58974
  Fock        0.00000     0.00000     0.00000     0.00000     0.00000     0.00000
  -------------------------------------------------------------------------------------
  Total      -4.00523    -4.00523    -4.80188     0.00000     0.00000     0.00000
  in kB     -18.33207   -18.33206   -21.97839     0.00000     0.00000     0.00000
  external pressure =      -19.55 kB  Pullay stress =        0.00 kB


 VOLUME and BASIS-vectors are now :
 -----------------------------------------------------------------------------
  energy-cutoff  :      520.00
  volume of cell :      350.05
      direct lattice vectors                 reciprocal lattice vectors
     2.575303410 -1.486851677  0.000000000     0.388303761  0.000000000  0.000000000
     0.000000000  2.973703354  0.000000000     0.194151881  0.336281021  0.000000000
    -0.000000000  0.000000000 45.708851943     0.000000000  0.000000000  0.021877600

  length of vectors
     2.973704014  2.973703354 45.708851943     0.388303761  0.388303847  0.021877600


 FORCES acting on ions
    electron-ion (+dipol)            ewald-force                    non-local-force                 convergence-correction
 -----------------------------------------------------------------------------------------------
   0.586E-03 -.102E-02 0.155E+04   0.526E-04 -.623E-04 -.155E+04   0.334E-16 -.416E-16 0.187E+01   0.460E-08 -.827E-08 -.165E-01
   -.471E-03 0.815E-03 0.938E+03   -.740E-07 0.826E-07 -.938E+03   0.132E-18 0.000E+00 -.642E-02   0.268E-09 -.388E-09 0.250E-01
   0.583E-03 -.101E-02 0.625E+03   0.575E-04 -.996E-04 -.625E+03   0.115E-18 -.678E-20 -.565E-02   -.804E-08 0.148E-07 0.505E-01
   -.471E-03 0.815E-03 0.115E-01   0.494E-08 -.558E-08 -.101E-02   -.377E-21 -.169E-20 -.108E-18   0.463E-08 -.802E-08 -.466E-04
   0.583E-03 -.101E-02 -.312E+03   0.575E-04 -.995E-04 0.312E+03   0.428E-18 -.136E-19 -.211E-01   0.107E-07 -.189E-07 -.357E-01
   -.471E-03 0.815E-03 -.938E+03   0.443E-07 -.486E-07 0.938E+03   -.134E-18 0.000E+00 0.642E-02   0.186E-08 -.330E-08 -.250E-01
   0.583E-03 -.101E-02 -.125E+04   0.574E-04 -.989E-04 0.125E+04   0.327E-18 0.163E-18 -.143E-01   -.529E-08 0.903E-08 -.451E-02
   -.152E-02 0.264E-02 0.125E+04   -.574E-04 0.989E-04 -.125E+04   -.370E-18 -.271E-19 0.143E-01   0.136E-07 -.234E-07 0.451E-02
   -.152E-02 0.264E-02 0.312E+03   -.575E-04 0.995E-04 -.312E+03   -.437E-18 -.136E-19 0.211E-01   -.281E-07 0.491E-07 0.356E-01
   -.152E-02 0.264E-02 -.625E+03   -.575E-04 0.996E-04 0.625E+03   -.124E-18 0.102E-19 0.565E-02   0.205E-07 -.363E-07 -.506E-01
   -.153E-02 0.265E-02 -.155E+04   -.526E-04 0.623E-04 0.155E+04   -.298E-16 0.416E-16 -.187E+01   -.110E-07 0.193E-07 0.165E-01
   0.210E-04 -.372E-04 0.467E+03   0.109E-05 -.136E-05 -.467E+03   -.124E-17 0.000E+00 -.362E-01   -.673E-09 0.128E-08 -.358E-02
   0.226E-04 -.392E-04 0.156E+03   0.709E-07 -.800E-07 -.156E+03   0.182E-18 -.136E-18 -.843E-02   0.959E-09 -.192E-08 0.174E-01
   0.227E-04 -.392E-04 -.156E+03   -.713E-07 0.804E-07 0.156E+03   -.205E-18 0.108E-18 0.843E-02   -.926E-09 0.186E-08 -.174E-01
   0.223E-04 -.378E-04 -.467E+03   -.109E-05 0.136E-05 0.467E+03   0.812E-18 0.000E+00 0.362E-01   0.643E-09 -.123E-08 0.359E-02
   0.665E-04 -.115E-03 0.261E+03   -.493E-04 0.854E-04 -.261E+03   0.570E-19 -.949E-19 -.529E-02   0.707E-11 0.514E-10 0.131E-01
   0.664E-04 -.115E-03 -.520E+02   -.492E-04 0.852E-04 0.520E+02   0.805E-20 0.339E-20 -.470E-03   0.730E-10 -.326E-09 -.614E-02
   0.665E-04 -.115E-03 -.365E+03   -.493E-04 0.853E-04 0.365E+03   -.111E-18 -.108E-18 0.146E-01   -.292E-10 0.870E-10 -.434E-02
   -.213E-04 0.367E-04 0.365E+03   0.493E-04 -.853E-04 -.365E+03   0.157E-18 0.163E-18 -.146E-01   -.907E-11 -.207E-10 0.434E-02
   -.212E-04 0.367E-04 0.520E+02   0.492E-04 -.852E-04 -.520E+02   -.705E-20 -.678E-20 0.470E-03   -.284E-10 0.249E-09 0.611E-02
   -.212E-04 0.368E-04 -.261E+03   0.493E-04 -.854E-04 0.261E+03   -.687E-19 0.108E-18 0.529E-02   -.648E-10 0.486E-10 -.131E-01
   0.510E-05 -.883E-05 0.441E-02   -.375E-09 0.373E-09 -.104E-01   -.139E-19 0.000E+00 -.217E-18   -.237E-12 0.411E-12 0.134E-04
   0.218E-04 -.248E-04 0.831E+03   -.222E-04 0.234E-04 -.838E+03   -.171E-15 0.139E-16 0.677E+01   -.152E-09 0.389E-09 -.833E-02
   0.221E-04 -.377E-04 0.699E+03   -.277E-05 0.289E-05 -.698E+03   0.384E-16 -.416E-16 -.117E+01   0.166E-11 -.138E-10 -.125E-01
   -.104E-04 0.174E-04 0.171E+03   0.207E-05 -.197E-05 -.173E+03   -.580E-16 0.416E-16 0.149E+01   0.812E-11 -.165E-10 -.109E-01
   0.359E-05 -.192E-04 -.831E+03   0.222E-04 -.234E-04 0.838E+03   0.150E-15 -.278E-16 -.677E+01   0.169E-09 -.419E-09 0.835E-02
   0.208E-04 -.355E-04 -.171E+03   -.207E-05 0.197E-05 0.173E+03   0.510E-16 -.278E-16 -.149E+01   -.331E-10 0.597E-10 0.109E-01
   -.106E-04 0.177E-04 -.699E+03   0.277E-05 -.289E-05 0.698E+03   -.469E-16 0.416E-16 0.117E+01   -.383E-11 0.176E-10 0.126E-01
 -----------------------------------------------------------------------------------------------
   -.490E-02 0.849E-02 0.651E+00   0.350E-13 -.246E-13 0.682E-12   -.332E-16 0.147E-18 0.000E+00   0.363E-08 -.629E-08 -.179E-03
 
 
 POSITION                                       TOTAL-FORCE (eV/Angst)
 -----------------------------------------------------------------------------------
      0.85843      1.48685     11.56819        -0.000000      0.000000      0.000567
     -0.00000      0.00000     16.55004         0.000000     -0.000000     -0.002525
      0.85843      1.48685     19.02444         0.000000     -0.000000      0.001874
     -0.00000      0.00000     23.97618        -0.000000      0.000000      0.000000
      0.85843      1.48685     26.45342         0.000000      0.000000     -0.015128
     -0.00000     -0.00000     31.40212        -0.000000      0.000000      0.002525
      0.85843      1.48685     33.87732        -0.000000     -0.000000      0.014347
      1.71687     -0.00000     14.07496         0.000000      0.000000     -0.014347
      1.71687     -0.00000     21.49893        -0.000000      0.000000      0.015128
      1.71687     -0.00000     28.92783        -0.000000      0.000000     -0.001874
      1.71687     -0.00000     36.38411         0.000000     -0.000000     -0.000567
     -0.00000      0.00000     12.84002        -0.000000      0.000000      0.005512
     -0.00000      0.00000     20.26242         0.000000     -0.000000     -0.003918
     -0.00000      0.00000     27.68989        -0.000000     -0.000000      0.003918
     -0.00000      0.00000     35.11228         0.000000     -0.000000     -0.005512
      1.71687     -0.00000     17.78778        -0.000000      0.000000      0.006114
      1.71687     -0.00000     25.21465         0.000000     -0.000000     -0.005134
      1.71687     -0.00000     32.63882         0.000000      0.000000     -0.001899
      0.85843      1.48685     15.31369        -0.000000     -0.000000      0.001899
      0.85843      1.48685     22.73760        -0.000000      0.000000      0.005134
      0.85843      1.48685     30.16472         0.000000     -0.000000     -0.006114
     -0.00000      0.00000      1.12180        -0.000000      0.000000     -0.000000
     -0.00000      0.00000     10.09776         0.000000      0.000000     -0.010911
      1.71687     -0.00000      7.90237        -0.000000     -0.000000      0.001250
      0.85843      1.48685      3.43880         0.000000     -0.000000     -0.002232
     -0.00000      0.00000     37.85465        -0.000000     -0.000000      0.010911
      1.71687     -0.00000     44.51356        -0.000000      0.000000      0.002232
      0.85843      1.48685     40.05003         0.000000      0.000000     -0.001250
 -----------------------------------------------------------------------------------
    total drift:                               -0.004899      0.008486      0.651202


--------------------------------------------------------------------------------------------------------



  FREE ENERGIE OF THE ION-ELECTRON SYSTEM (eV)
  ---------------------------------------------------
  free  energy   TOTEN  =      -151.14303043 eV

  energy  without entropy=     -151.13834771  energy(sigma->0) =     -151.14068907
 
 d Force = 0.7093912E-04[-0.387E-04, 0.181E-03]  d Energy = 0.6543608E-04 0.550E-05
 d Force =-0.1160078E+01[-0.116E+01,-0.116E+01]  d Ewald  =-0.1160078E+01 0.130E-06


--------------------------------------------------------------------------------------------------------


    POTLOK:  cpu time    0.22: real time    0.22


--------------------------------------------------------------------------------------------------------


 Conjugate gradient step on ions:
 trial-energy change:   -0.000065  1 .order   -0.000071   -0.000181    0.000039
  (g-gl).g = 0.114E-03      g.g   = 0.128E-03  gl.gl    = 0.437E-03
 g(Force)  = 0.128E-03   g(Stress)= 0.000E+00 ortho     =-0.191E-04
 gamma     =   0.26002
 trial     =   1.46466
 opt step  =   1.20617  (harmonic =   1.20617) maximal distance =0.00182956
 next E    =  -151.143039   (d E  =  -0.00007)


--------------------------------------------------------------------------------------------------------


  
 reached required accuracy - stopping structural energy minimisation
     LOOP+:  cpu time   39.55: real time   39.59
    4ORBIT:  cpu time    0.00: real time    0.00

 total amount of memory used by VASP on root node   159857. kBytes
========================================================================

   base      :      30000. kBytes
   nonl-proj :      16884. kBytes
   fftplans  :      60348. kBytes
   grid      :      24192. kBytes
   one-center:         56. kBytes
   wavefun   :      28377. kBytes
 
  
  
 General timing and accounting informations for this job:
 ========================================================
  
                  Total CPU time used (sec):     2284.510
                            User time (sec):     2262.773
                          System time (sec):       21.737
                         Elapsed time (sec):     2285.876
  
                   Maximum memory used (kb):      268328.
                   Average memory used (kb):           0.
  
                          Minor page faults:       584157
                          Major page faults:            0
                 Voluntary context switches:          254
