       N       E                     dE             d eps       ncg     rms          rms(c)
DAV:   1     0.347864423559E+03    0.34786E+03   -0.20703E+04  1400   0.107E+03
DAV:   2    -0.362665687001E+02   -0.38413E+03   -0.37151E+03  1845   0.266E+02
DAV:   3    -0.805865834451E+02   -0.44320E+02   -0.44092E+02  1595   0.980E+01
DAV:   4    -0.814641881104E+02   -0.87760E+00   -0.87573E+00  1950   0.160E+01
DAV:   5    -0.814765480615E+02   -0.12360E-01   -0.12355E-01  1755   0.176E+00
DAV:   6    -0.814768536459E+02   -0.30558E-03   -0.30540E-03  1920   0.267E-01
DAV:   7    -0.814768632021E+02   -0.95562E-05   -0.95547E-05  1665   0.431E-02
DAV:   8    -0.814768634948E+02   -0.29271E-06   -0.29262E-06  1490   0.798E-03    0.181E+01
RMM:   9    -0.714860791338E+02    0.99908E+01   -0.45061E+01  1400   0.280E+01    0.581E+00
RMM:  10    -0.712930993222E+02    0.19298E+00   -0.40446E-01  1400   0.297E+00    0.374E+00
RMM:  11    -0.712446208555E+02    0.48478E-01   -0.33494E-01  1400   0.422E+00    0.743E-01
RMM:  12    -0.712511602176E+02   -0.65394E-02   -0.35926E-02  1402   0.783E-01    0.382E-01
RMM:  13    -0.712314552609E+02    0.19705E-01   -0.49323E-03  1400   0.266E-01    0.217E-01
RMM:  14    -0.712624635435E+02   -0.31008E-01   -0.12320E-02  1400   0.424E-01    0.398E-01
RMM:  15    -0.712337845059E+02    0.28679E-01   -0.22766E-03  1400   0.152E-01    0.218E-01
RMM:  16    -0.712345107008E+02   -0.72619E-03   -0.16855E-03  1400   0.156E-01    0.194E-01
RMM:  17    -0.712314941988E+02    0.30165E-02   -0.57891E-04  1400   0.950E-02    0.690E-02
RMM:  18    -0.712312328514E+02    0.26135E-03   -0.23481E-05   958   0.239E-02    0.232E-02
RMM:  19    -0.712312812551E+02   -0.48404E-04   -0.22058E-05   953   0.184E-02    0.337E-02
RMM:  20    -0.712312117234E+02    0.69532E-04   -0.40449E-06   872   0.873E-03    0.450E-03
RMM:  21    -0.712312139590E+02   -0.22356E-05   -0.10651E-06   743   0.448E-03
   1 F= -.71231214E+02 E0= -.71229431E+02  d E =-.712312E+02
       N       E                     dE             d eps       ncg     rms          rms(c)
DAV:   1    -0.712451512566E+02   -0.13940E-01   -0.23300E+00  1500   0.864E+00
DAV:   2    -0.712489933744E+02   -0.38421E-02   -0.38420E-02  1640   0.965E-01
DAV:   3    -0.712490152041E+02   -0.21830E-04   -0.21830E-04  1850   0.741E-02
DAV:   4    -0.712490154775E+02   -0.27339E-06   -0.27316E-06  1375   0.762E-03
DAV:   5    -0.712490155218E+02   -0.44266E-07   -0.44345E-07  1020   0.275E-03
DAV:   6    -0.712490155353E+02   -0.13485E-07   -0.13487E-07   925   0.140E-03
DAV:   7    -0.712490155397E+02   -0.44829E-08   -0.45147E-08   910   0.790E-04
DAV:   8    -0.712490155414E+02   -0.16921E-08   -0.15471E-08   895   0.435E-04    0.205E-01
RMM:   9    -0.712922246241E+02   -0.43209E-01   -0.96569E-03  1400   0.292E-01    0.648E-01
RMM:  10    -0.712449214069E+02    0.47303E-01   -0.40472E-03  1400   0.189E-01    0.157E-01
RMM:  11    -0.712507639575E+02   -0.58426E-02   -0.34233E-03  1399   0.178E-01    0.201E-01
RMM:  12    -0.712430594831E+02    0.77045E-02   -0.41718E-04  1292   0.628E-02    0.187E-02
RMM:  13    -0.712430517745E+02    0.77086E-05   -0.27812E-05   990   0.170E-02
   2 F= -.71243052E+02 E0= -.71241270E+02  d E =-.118378E-01
       N       E                     dE             d eps       ncg     rms          rms(c)
DAV:   1    -0.712437459481E+02   -0.68646E-03   -0.93755E-02  1560   0.166E+00
DAV:   2    -0.712438972317E+02   -0.15128E-03   -0.15128E-03  1620   0.183E-01
DAV:   3    -0.712438979702E+02   -0.73846E-06   -0.73820E-06  1520   0.130E-02
DAV:   4    -0.712438980380E+02   -0.67848E-07   -0.67777E-07  1050   0.371E-03
DAV:   5    -0.712438980545E+02   -0.16462E-07   -0.16519E-07   915   0.168E-03
DAV:   6    -0.712438980591E+02   -0.45648E-08   -0.47312E-08   895   0.849E-04
DAV:   7    -0.712438980608E+02   -0.17467E-08   -0.14553E-08   875   0.443E-04
DAV:   8    -0.712438980613E+02   -0.48112E-09   -0.47157E-09   865   0.242E-04    0.780E-02
RMM:   9    -0.712606990562E+02   -0.16801E-01   -0.18775E-03  1400   0.123E-01    0.254E-01
RMM:  10    -0.712442329504E+02    0.16466E-01   -0.88044E-04  1398   0.880E-02    0.119E-01
RMM:  11    -0.712477155430E+02   -0.34826E-02   -0.59340E-04  1281   0.672E-02    0.190E-01
RMM:  12    -0.712441135457E+02    0.36020E-02   -0.75761E-05  1256   0.301E-02    0.104E-01
RMM:  13    -0.712433618961E+02    0.75165E-03   -0.57789E-05  1194   0.207E-02    0.215E-02
RMM:  14    -0.712433493316E+02    0.12564E-04   -0.24337E-06   761   0.746E-03    0.123E-02
RMM:  15    -0.712433403819E+02    0.89498E-05   -0.68995E-07   574   0.373E-03
   3 F= -.71243340E+02 E0= -.71241570E+02  d E =-.121264E-01
       N       E                     dE             d eps       ncg     rms          rms(c)
DAV:   1    -0.712438781224E+02   -0.52879E-03   -0.23647E-01  1495   0.263E+00
DAV:   2    -0.712442213700E+02   -0.34325E-03   -0.34325E-03  1800   0.295E-01
DAV:   3    -0.712442224768E+02   -0.11068E-05   -0.11068E-05  1490   0.172E-02
DAV:   4    -0.712442225496E+02   -0.72815E-07   -0.72779E-07   955   0.403E-03
DAV:   5    -0.712442225638E+02   -0.14152E-07   -0.14340E-07   910   0.170E-03
DAV:   6    -0.712442225673E+02   -0.35029E-08   -0.34891E-08   885   0.787E-04
DAV:   7    -0.712442225684E+02   -0.11137E-08   -0.94902E-09   865   0.409E-04
DAV:   8    -0.712442225687E+02   -0.36744E-09   -0.28229E-09   850   0.214E-04    0.459E-02
RMM:   9    -0.712442679754E+02   -0.45407E-04   -0.27179E-04  1274   0.531E-02    0.628E-02
RMM:  10    -0.712440946915E+02    0.17328E-03   -0.23911E-05   998   0.159E-02    0.363E-02
RMM:  11    -0.712439819627E+02    0.11273E-03   -0.15510E-04  1225   0.390E-02    0.681E-03
RMM:  12    -0.712439765446E+02    0.54180E-05   -0.12354E-05   876   0.118E-02
   4 F= -.71243977E+02 E0= -.71242205E+02  d E =-.636163E-03
       N       E                     dE             d eps       ncg     rms          rms(c)
DAV:   1    -0.712439713033E+02    0.10659E-04   -0.40043E-03  1600   0.350E-01
DAV:   2    -0.712439790965E+02   -0.77933E-05   -0.77932E-05  1735   0.448E-02
DAV:   3    -0.712439791179E+02   -0.21390E-07   -0.21539E-07  1070   0.251E-03
DAV:   4    -0.712439791206E+02   -0.26557E-08   -0.27368E-08   905   0.782E-04
DAV:   5    -0.712439791213E+02   -0.67712E-09   -0.64280E-09   850   0.350E-04
DAV:   6    -0.712439791216E+02   -0.35971E-09   -0.17893E-09   850   0.172E-04
DAV:   7    -0.712439791215E+02    0.17462E-09   -0.54257E-10   835   0.900E-05
DAV:   8    -0.712439791214E+02    0.58208E-10   -0.17810E-10   810   0.491E-05    0.616E-03
RMM:   9    -0.712439781115E+02    0.10099E-05   -0.42587E-06   640   0.695E-03
   5 F= -.71243978E+02 E0= -.71242202E+02  d E =-.637730E-03
       N       E                     dE             d eps       ncg     rms          rms(c)
DAV:   1    -0.712440909777E+02   -0.11186E-03   -0.36288E-02  1400   0.106E+00
DAV:   2    -0.712441559830E+02   -0.65005E-04   -0.65006E-04  1685   0.126E-01
DAV:   3    -0.712441561878E+02   -0.20484E-06   -0.20476E-06  1290   0.731E-03
DAV:   4    -0.712441562053E+02   -0.17465E-07   -0.17209E-07   820   0.196E-03
DAV:   5    -0.712441562091E+02   -0.38854E-08   -0.38216E-08   820   0.856E-04
DAV:   6    -0.712441562099E+02   -0.78217E-09   -0.10019E-08   780   0.418E-04
DAV:   7    -0.712441562102E+02   -0.24374E-09   -0.28520E-09   765   0.213E-04
DAV:   8    -0.712441562104E+02   -0.26921E-09   -0.86911E-10   745   0.114E-04    0.178E-02
RMM:   9    -0.712441543142E+02    0.18962E-05   -0.33293E-05  1055   0.193E-02
   6 F= -.71244154E+02 E0= -.71242373E+02  d E =-.176203E-03
       N       E                     dE             d eps       ncg     rms          rms(c)
DAV:   1    -0.712441042381E+02    0.51972E-04   -0.64889E-02  1415   0.141E+00
DAV:   2    -0.712442269281E+02   -0.12269E-03   -0.12269E-03  1685   0.173E-01
DAV:   3    -0.712442272927E+02   -0.36458E-06   -0.36459E-06  1415   0.974E-03
DAV:   4    -0.712442273226E+02   -0.29849E-07   -0.29802E-07   910   0.255E-03
DAV:   5    -0.712442273292E+02   -0.66138E-08   -0.66432E-08   870   0.111E-03
DAV:   6    -0.712442273310E+02   -0.18008E-08   -0.17446E-08   820   0.543E-04
DAV:   7    -0.712442273315E+02   -0.57116E-09   -0.49815E-09   815   0.277E-04
DAV:   8    -0.712442273315E+02    0.90949E-10   -0.15178E-09   780   0.148E-04    0.297E-02
RMM:   9    -0.712445309493E+02   -0.30362E-03   -0.10575E-04  1219   0.329E-02    0.787E-02
RMM:  10    -0.712441644821E+02    0.36647E-03   -0.13287E-05   891   0.124E-02    0.139E-02
RMM:  11    -0.712441529574E+02    0.11525E-04   -0.45686E-05  1165   0.235E-02    0.439E-03
RMM:  12    -0.712441525732E+02    0.38427E-06   -0.29450E-06   826   0.679E-03
   7 F= -.71244153E+02 E0= -.71242379E+02  d E =-.174462E-03
       N       E                     dE             d eps       ncg     rms          rms(c)
DAV:   1    -0.712441631773E+02   -0.10220E-04   -0.86626E-03  1565   0.515E-01
DAV:   2    -0.712441790335E+02   -0.15856E-04   -0.15856E-04  1625   0.622E-02
DAV:   3    -0.712441790822E+02   -0.48638E-07   -0.48751E-07  1075   0.369E-03
DAV:   4    -0.712441790878E+02   -0.56375E-08   -0.59433E-08   860   0.115E-03
DAV:   5    -0.712441790892E+02   -0.14365E-08   -0.14154E-08   805   0.516E-04
DAV:   6    -0.712441790900E+02   -0.74579E-09   -0.39517E-09   805   0.261E-04
DAV:   7    -0.712441790899E+02    0.10959E-09   -0.12007E-09   790   0.137E-04
DAV:   8    -0.712441790900E+02   -0.10959E-09   -0.38774E-10   785   0.755E-05    0.826E-03
RMM:   9    -0.712441799334E+02   -0.84344E-06   -0.57673E-06   734   0.876E-03
   8 F= -.71244180E+02 E0= -.71242401E+02  d E =-.201822E-03
       N       E                     dE             d eps       ncg     rms          rms(c)
DAV:   1    -0.712441763050E+02    0.27850E-05   -0.82644E-04  1495   0.163E-01
DAV:   2    -0.712441783073E+02   -0.20024E-05   -0.20020E-05  1455   0.227E-02
DAV:   3    -0.712441783311E+02   -0.23776E-07   -0.24002E-07   780   0.219E-03
DAV:   4    -0.712441783346E+02   -0.34406E-08   -0.34746E-08   740   0.738E-04
DAV:   5    -0.712441783352E+02   -0.66984E-09   -0.72423E-09   730   0.321E-04
DAV:   6    -0.712441783354E+02   -0.21828E-09   -0.17721E-09   730   0.155E-04
DAV:   7    -0.712441783357E+02   -0.24011E-09   -0.48481E-10   720   0.788E-05
DAV:   8    -0.712441783355E+02    0.16007E-09   -0.14537E-10   715   0.422E-05    0.992E-03
RMM:   9    -0.712444890997E+02   -0.31076E-03   -0.16794E-05   910   0.128E-02    0.708E-02
RMM:  10    -0.712441700047E+02    0.31909E-03   -0.90574E-06   877   0.104E-02    0.371E-03
RMM:  11    -0.712441721403E+02   -0.21356E-05   -0.25374E-06   703   0.652E-03
   9 F= -.71244172E+02 E0= -.71242400E+02  d E =-.194029E-03
       N       E                     dE             d eps       ncg     rms          rms(c)
DAV:   1    -0.712441733637E+02   -0.33590E-05   -0.18019E-04  1590   0.744E-02
DAV:   2    -0.712441737270E+02   -0.36333E-06   -0.36315E-06   895   0.957E-03
DAV:   3    -0.712441737443E+02   -0.17296E-07   -0.17325E-07   790   0.212E-03
DAV:   4    -0.712441737468E+02   -0.24647E-08   -0.22867E-08   755   0.715E-04
DAV:   5    -0.712441737471E+02   -0.33788E-09   -0.45735E-09   715   0.296E-04
DAV:   6    -0.712441737470E+02    0.13142E-09   -0.10976E-09   715   0.139E-04
DAV:   7    -0.712441737473E+02   -0.29104E-09   -0.29889E-10   715   0.693E-05
DAV:   8    -0.712441737470E+02    0.29468E-09   -0.90289E-11   715   0.367E-05    0.134E-03
RMM:   9    -0.712441739689E+02   -0.22192E-06    0.00000E+00   126   0.145E-03
  10 F= -.71244174E+02 E0= -.71242399E+02  d E =-.195857E-03
       N       E                     dE             d eps       ncg     rms          rms(c)
DAV:   1    -0.712441741934E+02   -0.44638E-06   -0.82877E-05  1445   0.514E-02
DAV:   2    -0.712441743576E+02   -0.16421E-06   -0.16438E-06   715   0.651E-03
DAV:   3    -0.712441743650E+02   -0.74119E-08   -0.71656E-08   700   0.142E-03
DAV:   4    -0.712441743659E+02   -0.88403E-09   -0.86047E-09   700   0.456E-04
DAV:   5    -0.712441743658E+02    0.90949E-10   -0.16406E-09   700   0.182E-04
DAV:   6    -0.712441743660E+02   -0.20327E-09   -0.38207E-10   700   0.832E-05
DAV:   7    -0.712441743660E+02   -0.21828E-10   -0.10704E-10   700   0.406E-05
DAV:   8    -0.712441743658E+02    0.20054E-09   -0.31215E-11   700   0.211E-05    0.129E-03
RMM:   9    -0.712441744797E+02   -0.11386E-06    0.00000E+00   124   0.141E-03
  11 F= -.71244174E+02 E0= -.71242400E+02  d E =-.196368E-03
       N       E                     dE             d eps       ncg     rms          rms(c)
DAV:   1    -0.712441742546E+02    0.11119E-06   -0.10552E-05   885   0.194E-02
DAV:   2    -0.712441743074E+02   -0.52784E-07   -0.52653E-07   700   0.450E-03
DAV:   3    -0.712441743104E+02   -0.30118E-08   -0.31247E-08   700   0.946E-04
DAV:   4    -0.712441743111E+02   -0.73123E-09   -0.38286E-09   700   0.317E-04
DAV:   5    -0.712441743112E+02   -0.72760E-10   -0.69133E-10   700   0.117E-04
DAV:   6    -0.712441743112E+02    0.29104E-10   -0.15665E-10   700   0.531E-05
DAV:   7    -0.712441743107E+02    0.44747E-09   -0.40978E-11   700   0.249E-05
DAV:   8    -0.712441743110E+02   -0.29468E-09   -0.13641E-11   700   0.128E-05    0.851E-04
RMM:   9    -0.712441745345E+02   -0.22343E-06    0.00000E+00   113   0.956E-04
  12 F= -.71244175E+02 E0= -.71242400E+02  d E =-.196423E-03
       N       E                     dE             d eps       ncg     rms          rms(c)
DAV:   1    -0.712442118540E+02   -0.37543E-04   -0.41706E-03  1400   0.348E-01
DAV:   2    -0.712442171550E+02   -0.53010E-05   -0.53012E-05  1775   0.361E-02
DAV:   3    -0.712442171747E+02   -0.19751E-07   -0.19722E-07   820   0.225E-03
DAV:   4    -0.712442171779E+02   -0.31428E-08   -0.29685E-08   715   0.732E-04
DAV:   5    -0.712442171783E+02   -0.46930E-09   -0.69573E-09   715   0.326E-04
DAV:   6    -0.712442171787E+02   -0.38972E-09   -0.18570E-09   715   0.159E-04
DAV:   7    -0.712442171788E+02   -0.83219E-10   -0.53743E-10   715   0.820E-05
DAV:   8    -0.712442171789E+02   -0.12733E-09   -0.16740E-10   700   0.441E-05    0.739E-03
RMM:   9    -0.712443992769E+02   -0.18210E-03   -0.13397E-05   893   0.113E-02    0.558E-02
RMM:  10    -0.712442098419E+02    0.18943E-03   -0.48679E-06   758   0.804E-03    0.356E-03
RMM:  11    -0.712442103084E+02   -0.46656E-06   -0.29655E-06   759   0.660E-03
  13 F= -.71244210E+02 E0= -.71242437E+02  d E =-.357740E-04
       N       E                     dE             d eps       ncg     rms          rms(c)
DAV:   1    -0.712442315884E+02   -0.21747E-04   -0.10797E-02  1520   0.560E-01
DAV:   2    -0.712442466665E+02   -0.15078E-04   -0.15078E-04  1860   0.608E-02
DAV:   3    -0.712442467083E+02   -0.41756E-07   -0.41886E-07   950   0.350E-03
DAV:   4    -0.712442467144E+02   -0.61045E-08   -0.58843E-08   890   0.114E-03
DAV:   5    -0.712442467156E+02   -0.11860E-08   -0.14014E-08   860   0.510E-04
DAV:   6    -0.712442467163E+02   -0.70213E-09   -0.38821E-09   830   0.256E-04
DAV:   7    -0.712442467163E+02   -0.72760E-11   -0.11723E-09   800   0.134E-04
DAV:   8    -0.712442467164E+02   -0.14188E-09   -0.37936E-10   765   0.738E-05    0.119E-02
RMM:   9    -0.712447005334E+02   -0.45382E-03   -0.37121E-05  1101   0.181E-02    0.874E-02
RMM:  10    -0.712442286971E+02    0.47184E-03   -0.14881E-05   906   0.128E-02    0.584E-03
RMM:  11    -0.712442289532E+02   -0.25615E-06   -0.72586E-06   808   0.995E-03
  14 F= -.71244229E+02 E0= -.71242455E+02  d E =-.544188E-04
       N       E                     dE             d eps       ncg     rms          rms(c)
DAV:   1    -0.712442435674E+02   -0.14870E-04   -0.11662E-03  1575   0.190E-01
DAV:   2    -0.712442456499E+02   -0.20825E-05   -0.20828E-05  1595   0.230E-02
DAV:   3    -0.712442456754E+02   -0.25462E-07   -0.25083E-07   885   0.213E-03
DAV:   4    -0.712442456793E+02   -0.38785E-08   -0.40208E-08   840   0.736E-04
DAV:   5    -0.712442456801E+02   -0.82582E-09   -0.89311E-09   825   0.332E-04
DAV:   6    -0.712442456801E+02   -0.68212E-11   -0.22906E-09   800   0.162E-04
DAV:   7    -0.712442456806E+02   -0.50204E-09   -0.65519E-10   775   0.851E-05
DAV:   8    -0.712442456803E+02    0.27967E-09   -0.20065E-10   740   0.459E-05    0.328E-03
RMM:   9    -0.712442535782E+02   -0.78979E-05   -0.50252E-07   448   0.319E-03
  15 F= -.71244254E+02 E0= -.71242474E+02  d E =-.246249E-04
       N       E                     dE             d eps       ncg     rms          rms(c)
DAV:   1    -0.712442788832E+02   -0.33203E-04   -0.10457E-02  1400   0.568E-01
DAV:   2    -0.712442965519E+02   -0.17669E-04   -0.17669E-04  1585   0.670E-02
DAV:   3    -0.712442966149E+02   -0.63058E-07   -0.63269E-07   855   0.424E-03
DAV:   4    -0.712442966241E+02   -0.91804E-08   -0.89869E-08   760   0.139E-03
DAV:   5    -0.712442966264E+02   -0.23106E-08   -0.22773E-08   745   0.619E-04
DAV:   6    -0.712442966271E+02   -0.64074E-09   -0.67147E-09   735   0.319E-04
DAV:   7    -0.712442966270E+02    0.65484E-10   -0.21260E-09   725   0.167E-04
DAV:   8    -0.712442966273E+02   -0.34925E-09   -0.70899E-10   715   0.934E-05    0.980E-03
RMM:   9    -0.712443673652E+02   -0.70738E-04   -0.79292E-06   828   0.997E-03    0.358E-02
RMM:  10    -0.712442919188E+02    0.75446E-04   -0.19299E-06   670   0.550E-03    0.541E-03
RMM:  11    -0.712442917005E+02    0.21834E-06   -0.29820E-06   755   0.740E-03
  16 F= -.71244292E+02 E0= -.71242520E+02  d E =-.627472E-04
       N       E                     dE             d eps       ncg     rms          rms(c)
DAV:   1    -0.712443008068E+02   -0.88880E-05   -0.41829E-02  1400   0.114E+00
DAV:   2    -0.712443707241E+02   -0.69917E-04   -0.69917E-04  1585   0.134E-01
DAV:   3    -0.712443709961E+02   -0.27198E-06   -0.27162E-06  1305   0.843E-03
DAV:   4    -0.712443710204E+02   -0.24305E-07   -0.24358E-07   840   0.229E-03
DAV:   5    -0.712443710260E+02   -0.56471E-08   -0.57849E-08   815   0.996E-04
DAV:   6    -0.712443710277E+02   -0.17094E-08   -0.16227E-08   775   0.501E-04
DAV:   7    -0.712443710281E+02   -0.38881E-09   -0.49416E-09   775   0.259E-04
DAV:   8    -0.712443710282E+02   -0.11732E-09   -0.15955E-09   745   0.142E-04    0.167E-02
RMM:   9    -0.712446703473E+02   -0.29932E-03   -0.30623E-05  1100   0.183E-02    0.721E-02
RMM:  10    -0.712443556877E+02    0.31466E-03   -0.96464E-06   869   0.108E-02    0.896E-03
RMM:  11    -0.712443553112E+02    0.37649E-06   -0.69057E-06   829   0.111E-02
  17 F= -.71244355E+02 E0= -.71242585E+02  d E =-.126358E-03
       N       E                     dE             d eps       ncg     rms          rms(c)
DAV:   1    -0.712444016677E+02   -0.45980E-04   -0.16529E-02  1420   0.697E-01
DAV:   2    -0.712444284677E+02   -0.26800E-04   -0.26800E-04  1595   0.789E-02
DAV:   3    -0.712444285576E+02   -0.89943E-07   -0.89865E-07  1035   0.505E-03
DAV:   4    -0.712444285694E+02   -0.11851E-07   -0.11795E-07   870   0.164E-03
DAV:   5    -0.712444285721E+02   -0.26635E-08   -0.27736E-08   800   0.732E-04
DAV:   6    -0.712444285729E+02   -0.75670E-09   -0.76500E-09   760   0.370E-04
DAV:   7    -0.712444285731E+02   -0.28285E-09   -0.22853E-09   760   0.191E-04
DAV:   8    -0.712444285731E+02    0.43201E-10   -0.73006E-10   745   0.105E-04    0.119E-02
RMM:   9    -0.712445435082E+02   -0.11494E-03   -0.15295E-05   871   0.133E-02    0.449E-02
RMM:  10    -0.712444174138E+02    0.12609E-03   -0.45254E-06   757   0.770E-03    0.594E-03
RMM:  11    -0.712444161675E+02    0.12463E-05   -0.69911E-06   789   0.964E-03
  18 F= -.71244416E+02 E0= -.71242646E+02  d E =-.608562E-04
       N       E                     dE             d eps       ncg     rms          rms(c)
DAV:   1    -0.712443646370E+02    0.52777E-04   -0.12589E-01  1430   0.193E+00
DAV:   2    -0.712445484918E+02   -0.18385E-03   -0.18385E-03  1590   0.208E-01
DAV:   3    -0.712445491764E+02   -0.68458E-06   -0.68456E-06  1430   0.134E-02
DAV:   4    -0.712445492399E+02   -0.63563E-07   -0.63480E-07   970   0.362E-03
DAV:   5    -0.712445492544E+02   -0.14479E-07   -0.14467E-07   910   0.159E-03
DAV:   6    -0.712445492581E+02   -0.37071E-08   -0.39002E-08   880   0.797E-04
DAV:   7    -0.712445492593E+02   -0.11751E-08   -0.11409E-08   870   0.408E-04
DAV:   8    -0.712445492597E+02   -0.40745E-09   -0.35868E-09   850   0.221E-04    0.324E-02
RMM:   9    -0.712453096415E+02   -0.76038E-03   -0.12695E-04  1263   0.369E-02    0.111E-01
RMM:  10    -0.712444677873E+02    0.84185E-03   -0.38670E-05  1143   0.193E-02    0.154E-02
RMM:  11    -0.712444516340E+02    0.16153E-04   -0.44915E-05  1115   0.233E-02    0.577E-03
RMM:  12    -0.712444495027E+02    0.21313E-05   -0.58248E-06   804   0.867E-03
  19 F= -.71244450E+02 E0= -.71242678E+02  d E =-.941915E-04
       N       E                     dE             d eps       ncg     rms          rms(c)
DAV:   1    -0.712444425877E+02    0.90463E-05   -0.18828E-02  1540   0.748E-01
DAV:   2    -0.712444734943E+02   -0.30907E-04   -0.30907E-04  1615   0.853E-02
DAV:   3    -0.712444735959E+02   -0.10151E-06   -0.10146E-06  1045   0.538E-03
DAV:   4    -0.712444736078E+02   -0.11960E-07   -0.11828E-07   905   0.169E-03
DAV:   5    -0.712444736103E+02   -0.24661E-08   -0.27157E-08   870   0.745E-04
DAV:   6    -0.712444736112E+02   -0.88357E-09   -0.74094E-09   855   0.374E-04
DAV:   7    -0.712444736112E+02   -0.61846E-10   -0.21949E-09   850   0.193E-04
DAV:   8    -0.712444736115E+02   -0.22874E-09   -0.69772E-10   820   0.105E-04    0.133E-02
RMM:   9    -0.712446697539E+02   -0.19614E-03   -0.21976E-05   954   0.157E-02    0.587E-02
RMM:  10    -0.712444601287E+02    0.20963E-03   -0.75492E-06   825   0.949E-03    0.611E-03
RMM:  11    -0.712444597985E+02    0.33020E-06   -0.71639E-06   785   0.988E-03
  20 F= -.71244460E+02 E0= -.71242688E+02  d E =-.104487E-03
       N       E                     dE             d eps       ncg     rms          rms(c)
DAV:   1    -0.712444577839E+02    0.23448E-05   -0.69737E-04  1580   0.144E-01
DAV:   2    -0.712444588504E+02   -0.10665E-05   -0.10666E-05  1330   0.163E-02
DAV:   3    -0.712444588724E+02   -0.21960E-07   -0.21976E-07   880   0.224E-03
DAV:   4    -0.712444588755E+02   -0.31132E-08   -0.28048E-08   825   0.722E-04
DAV:   5    -0.712444588761E+02   -0.62937E-09   -0.55359E-09   790   0.309E-04
DAV:   6    -0.712444588760E+02    0.12324E-09   -0.13165E-09   785   0.145E-04
DAV:   7    -0.712444588760E+02   -0.43201E-10   -0.36475E-10   745   0.740E-05
DAV:   8    -0.712444588759E+02    0.94587E-10   -0.10932E-10   735   0.390E-05    0.272E-03
RMM:   9    -0.712444643539E+02   -0.54779E-05   -0.42498E-07   390   0.304E-03
  21 F= -.71244464E+02 E0= -.71242686E+02  d E =-.109043E-03
       N       E                     dE             d eps       ncg     rms          rms(c)
DAV:   1    -0.712444585784E+02    0.29752E-06   -0.12683E-04  1525   0.640E-02
DAV:   2    -0.712444588876E+02   -0.30918E-06   -0.30949E-06   845   0.903E-03
DAV:   3    -0.712444589036E+02   -0.15948E-07   -0.15697E-07   775   0.210E-03
DAV:   4    -0.712444589054E+02   -0.18144E-08   -0.19583E-08   760   0.694E-04
DAV:   5    -0.712444589060E+02   -0.57844E-09   -0.36439E-09   715   0.281E-04
DAV:   6    -0.712444589060E+02   -0.61391E-10   -0.80863E-10   715   0.127E-04
DAV:   7    -0.712444589058E+02    0.20691E-09   -0.20877E-10   715   0.619E-05
DAV:   8    -0.712444589060E+02   -0.21100E-09   -0.60002E-11   715   0.317E-05    0.100E-03
RMM:   9    -0.712444596584E+02   -0.75234E-06    0.00000E+00   189   0.107E-03
  22 F= -.71244460E+02 E0= -.71242686E+02  d E =-.104347E-03
       N       E                     dE             d eps       ncg     rms          rms(c)
DAV:   1    -0.712444594416E+02   -0.53562E-06   -0.63867E-05  1470   0.440E-02
DAV:   2    -0.712444595582E+02   -0.11658E-06   -0.11654E-06   745   0.547E-03
DAV:   3    -0.712444595640E+02   -0.57521E-08   -0.57451E-08   700   0.128E-03
DAV:   4    -0.712444595650E+02   -0.10691E-08   -0.72166E-09   700   0.423E-04
DAV:   5    -0.712444595650E+02    0.65938E-10   -0.13695E-09   700   0.173E-04
DAV:   6    -0.712444595649E+02    0.68667E-10   -0.30751E-10   700   0.792E-05
DAV:   7    -0.712444595650E+02   -0.86857E-10   -0.84356E-11   700   0.389E-05
DAV:   8    -0.712444595650E+02   -0.43656E-10   -0.24732E-11   700   0.200E-05    0.869E-04
RMM:   9    -0.712444601602E+02   -0.59518E-06    0.00000E+00   141   0.890E-04
  23 F= -.71244460E+02 E0= -.71242693E+02  d E =-.104849E-03
       N       E                     dE             d eps       ncg     rms          rms(c)
DAV:   1    -0.712444781422E+02   -0.18577E-04   -0.65120E-03  1400   0.447E-01
DAV:   2    -0.712444891967E+02   -0.11055E-04   -0.11054E-04  1610   0.529E-02
DAV:   3    -0.712444892331E+02   -0.36358E-07   -0.36424E-07   805   0.331E-03
DAV:   4    -0.712444892382E+02   -0.51509E-08   -0.49949E-08   715   0.108E-03
DAV:   5    -0.712444892393E+02   -0.10577E-08   -0.11865E-08   715   0.483E-04
DAV:   6    -0.712444892399E+02   -0.57025E-09   -0.32927E-09   700   0.242E-04
DAV:   7    -0.712444892399E+02   -0.21828E-10   -0.99223E-10   700   0.126E-04
DAV:   8    -0.712444892400E+02   -0.72760E-10   -0.32055E-10   700   0.685E-05    0.725E-03
RMM:   9    -0.712445008132E+02   -0.11573E-04   -0.27526E-06   730   0.648E-03    0.155E-02
RMM:  10    -0.712444865593E+02    0.14254E-04   -0.49184E-07   445   0.331E-03    0.461E-03
RMM:  11    -0.712444858357E+02    0.72369E-06   -0.27443E-06   750   0.677E-03
  24 F= -.71244486E+02 E0= -.71242715E+02  d E =-.256754E-04
       N       E                     dE             d eps       ncg     rms          rms(c)
DAV:   1    -0.712444494871E+02    0.37072E-04   -0.30498E-02  1400   0.969E-01
DAV:   2    -0.712444996593E+02   -0.50172E-04   -0.50172E-04  1605   0.112E-01
DAV:   3    -0.712444998350E+02   -0.17574E-06   -0.17588E-06  1260   0.700E-03
DAV:   4    -0.712444998515E+02   -0.16502E-07   -0.16494E-07   790   0.194E-03
DAV:   5    -0.712444998549E+02   -0.33615E-08   -0.36626E-08   780   0.841E-04
DAV:   6    -0.712444998560E+02   -0.11314E-08   -0.96970E-09   760   0.412E-04
DAV:   7    -0.712444998563E+02   -0.27649E-09   -0.28163E-09   760   0.211E-04
DAV:   8    -0.712444998563E+02   -0.21828E-10   -0.87804E-10   745   0.113E-04    0.152E-02
RMM:   9    -0.712445473514E+02   -0.47495E-04   -0.12042E-05   841   0.135E-02    0.314E-02
RMM:  10    -0.712444893697E+02    0.57982E-04   -0.33122E-06   733   0.672E-03    0.980E-03
RMM:  11    -0.712444852219E+02    0.41478E-05   -0.94413E-06   812   0.124E-02
  25 F= -.71244485E+02 E0= -.71242713E+02  d E =-.250616E-04
       N       E                     dE             d eps       ncg     rms          rms(c)
DAV:   1    -0.712444881930E+02    0.11766E-05   -0.63614E-03  1490   0.442E-01
DAV:   2    -0.712444995366E+02   -0.11344E-04   -0.11343E-04  1630   0.532E-02
DAV:   3    -0.712444995743E+02   -0.37662E-07   -0.37507E-07   900   0.333E-03
DAV:   4    -0.712444995792E+02   -0.48799E-08   -0.51539E-08   845   0.109E-03
DAV:   5    -0.712444995808E+02   -0.15880E-08   -0.12333E-08   790   0.488E-04
DAV:   6    -0.712444995811E+02   -0.36380E-09   -0.34584E-09   770   0.246E-04
DAV:   7    -0.712444995810E+02    0.70031E-10   -0.10535E-09   745   0.128E-04
DAV:   8    -0.712444995811E+02   -0.43656E-10   -0.34047E-10   730   0.704E-05    0.684E-03
RMM:   9    -0.712445021835E+02   -0.26024E-05   -0.23599E-06   668   0.610E-03
  26 F= -.71244502E+02 E0= -.71242723E+02  d E =-.420233E-04
       N       E                     dE             d eps       ncg     rms          rms(c)
DAV:   1    -0.712444961792E+02    0.34019E-05   -0.24794E-03  1465   0.277E-01
DAV:   2    -0.712445007865E+02   -0.46073E-05   -0.46071E-05  1585   0.344E-02
DAV:   3    -0.712445008010E+02   -0.14477E-07   -0.14868E-07   770   0.213E-03
DAV:   4    -0.712445008033E+02   -0.23197E-08   -0.20739E-08   725   0.696E-04
DAV:   5    -0.712445008037E+02   -0.39972E-09   -0.49329E-09   715   0.313E-04
DAV:   6    -0.712445008039E+02   -0.20009E-09   -0.13671E-09   700   0.157E-04
DAV:   7    -0.712445008040E+02   -0.46839E-10   -0.41376E-10   700   0.821E-05
DAV:   8    -0.712445008041E+02   -0.13097E-09   -0.13342E-10   700   0.450E-05    0.882E-03
RMM:   9    -0.712446302235E+02   -0.12942E-03   -0.72307E-06   858   0.907E-03    0.465E-02
RMM:  10    -0.712444951977E+02    0.13503E-03   -0.38034E-06   702   0.687E-03    0.415E-03
RMM:  11    -0.712444961741E+02   -0.97641E-06   -0.27988E-06   743   0.724E-03
  27 F= -.71244496E+02 E0= -.71242724E+02  d E =-.360139E-04
       N       E                     dE             d eps       ncg     rms          rms(c)
DAV:   1    -0.712444968099E+02   -0.16122E-05   -0.52475E-04  1585   0.127E-01
DAV:   2    -0.712444977569E+02   -0.94704E-06   -0.94667E-06  1130   0.156E-02
DAV:   3    -0.712444977837E+02   -0.26704E-07   -0.26801E-07   775   0.244E-03
DAV:   4    -0.712444977877E+02   -0.40141E-08   -0.40566E-08   760   0.839E-04
DAV:   5    -0.712444977886E+02   -0.92678E-09   -0.88138E-09   715   0.370E-04
DAV:   6    -0.712444977888E+02   -0.17053E-09   -0.22397E-09   715   0.177E-04
DAV:   7    -0.712444977887E+02    0.61846E-10   -0.64263E-10   715   0.921E-05
DAV:   8    -0.712444977888E+02   -0.13461E-09   -0.19893E-10   715   0.492E-05    0.197E-03
RMM:   9    -0.712444976458E+02    0.14308E-06   -0.93811E-10   132   0.174E-03
  28 F= -.71244498E+02 E0= -.71242727E+02  d E =-.374855E-04
       N       E                     dE             d eps       ncg     rms          rms(c)
DAV:   1    -0.712444975169E+02    0.27192E-06   -0.16619E-04  1480   0.726E-02
DAV:   2    -0.712444978186E+02   -0.30170E-06   -0.30170E-06   710   0.897E-03
DAV:   3    -0.712444978328E+02   -0.14145E-07   -0.14486E-07   700   0.203E-03
DAV:   4    -0.712444978348E+02   -0.20623E-08   -0.18709E-08   700   0.674E-04
DAV:   5    -0.712444978352E+02   -0.41473E-09   -0.36903E-09   700   0.276E-04
DAV:   6    -0.712444978354E+02   -0.13415E-09   -0.87997E-10   700   0.127E-04
DAV:   7    -0.712444978354E+02    0.21828E-10   -0.23833E-10   700   0.630E-05
DAV:   8    -0.712444978354E+02   -0.32742E-10   -0.71388E-11   700   0.328E-05    0.291E-03
RMM:   9    -0.712445244244E+02   -0.26589E-04   -0.98046E-07   547   0.356E-03    0.208E-02
RMM:  10    -0.712444967864E+02    0.27638E-04   -0.96665E-08   304   0.266E-03    0.128E-03
RMM:  11    -0.712444972397E+02   -0.45325E-06   -0.77496E-07   498   0.360E-03
  29 F= -.71244497E+02 E0= -.71242725E+02  d E =-.370795E-04
       N       E                     dE             d eps       ncg     rms          rms(c)
DAV:   1    -0.712445025531E+02   -0.57667E-05   -0.17459E-03  1440   0.223E-01
DAV:   2    -0.712445049686E+02   -0.24155E-05   -0.24154E-05  1500   0.241E-02
DAV:   3    -0.712445049977E+02   -0.29096E-07   -0.29340E-07   730   0.239E-03
DAV:   4    -0.712445050030E+02   -0.52928E-08   -0.49888E-08   700   0.828E-04
DAV:   5    -0.712445050040E+02   -0.97543E-09   -0.11843E-08   700   0.377E-04
DAV:   6    -0.712445050045E+02   -0.53114E-09   -0.32870E-09   700   0.186E-04
DAV:   7    -0.712445050043E+02    0.22919E-09   -0.99503E-10   700   0.974E-05
DAV:   8    -0.712445050046E+02   -0.37835E-09   -0.32353E-10   700   0.530E-05    0.434E-03
RMM:   9    -0.712445452863E+02   -0.40282E-04   -0.40271E-06   715   0.625E-03    0.268E-02
RMM:  10    -0.712445021577E+02    0.43129E-04   -0.11116E-06   633   0.401E-03    0.202E-03
RMM:  11    -0.712445021466E+02    0.11117E-07   -0.16967E-06   690   0.482E-03
  30 F= -.71244502E+02 E0= -.71242730E+02  d E =-.490693E-05
