 vasp.5.4.4.18Apr17-6-g9f103f2a35 (build Nov 15 2019 10:10:58) complex          
  
 executed on             LinuxIFC date 2024.06.26  20:24:51
 running on   20 total cores
 distrk:  each k-point on   20 cores,    1 groups
 distr:  one band on NCORES_PER_BAND=   4 cores,    5 groups


--------------------------------------------------------------------------------------------------------


 INCAR:
 POTCAR:    PAW_PBE Mg 13Apr2007                  
 POTCAR:    PAW_PBE O 08Apr2002                   
 POTCAR:    PAW_PBE Mg 13Apr2007                  
   VRHFIN =Mg: s2p0                                                             
   LEXCH  = PE                                                                  
   EATOM  =    23.0369 eV,    1.6932 Ry                                         
                                                                                
   TITEL  = PAW_PBE Mg 13Apr2007                                                
   LULTRA =        F    use ultrasoft PP ?                                      
   IUNSCR =        1    unscreen: 0-lin 1-nonlin 2-no                           
   RPACOR =    1.500    partial core radius                                     
   POMASS =   24.305; ZVAL   =    2.000    mass and valenz                      
   RCORE  =    2.000    outmost cutoff radius                                   
   RWIGS  =    2.880; RWIGS  =    1.524    wigner-seitz radius (au A)           
   ENMAX  =  200.000; ENMIN  =  100.000 eV                                      
   RCLOC  =    1.506    cutoff for local pot                                    
   LCOR   =        T    correct aug charges                                     
   LPAW   =        T    paw PP                                                  
   EAUG   =  454.734                                                            
   DEXC   =    0.000                                                            
   RMAX   =    2.045    core radius for proj-oper                               
   RAUG   =    1.300    factor for augmentation sphere                          
   RDEP   =    2.025    radius for radial grids                                 
   RDEPT  =    1.942    core radius for aug-charge                              
                                                                                
   Atomic configuration                                                         
    6 entries                                                                   
     n  l   j            E        occ.                                          
     1  0  0.50     -1259.6230   2.0000                                         
     2  0  0.50       -79.8442   2.0000                                         
     2  1  1.50       -46.6121   6.0000                                         
     3  0  0.50        -4.7055   2.0000                                         
     3  1  0.50        -1.3660   0.0000                                         
     3  2  1.50        -1.3606   0.0000                                         
   Description                                                                  
     l       E           TYP  RCUT    TYP  RCUT                                 
     0     -4.7054661     23  2.000                                             
     0     27.2116520     23  2.000                                             
     1      1.3605826     23  2.000                                             
     1     27.2116520     23  2.000                                             
     2     -1.3605826     23  2.000                                             
  local pseudopotential read in
  partial core-charges read in
  partial kinetic energy density read in
  atomic valenz-charges read in
  non local Contribution for L=           0  read in
    real space projection operators read in
  non local Contribution for L=           0  read in
    real space projection operators read in
  non local Contribution for L=           1  read in
    real space projection operators read in
  non local Contribution for L=           1  read in
    real space projection operators read in
  non local Contribution for L=           2  read in
    real space projection operators read in
    PAW grid and wavefunctions read in
 
   number of l-projection  operators is LMAX  =           5
   number of lm-projection operators is LMMAX =          13
 
 POTCAR:    PAW_PBE O 08Apr2002                   
   VRHFIN =O: s2p4                                                              
   LEXCH  = PE                                                                  
   EATOM  =   432.3788 eV,   31.7789 Ry                                         
                                                                                
   TITEL  = PAW_PBE O 08Apr2002                                                 
   LULTRA =        F    use ultrasoft PP ?                                      
   IUNSCR =        1    unscreen: 0-lin 1-nonlin 2-no                           
   RPACOR =    1.200    partial core radius                                     
   POMASS =   16.000; ZVAL   =    6.000    mass and valenz                      
   RCORE  =    1.520    outmost cutoff radius                                   
   RWIGS  =    1.550; RWIGS  =    0.820    wigner-seitz radius (au A)           
   ENMAX  =  400.000; ENMIN  =  300.000 eV                                      
   ICORE  =        2    local potential                                         
   LCOR   =        T    correct aug charges                                     
   LPAW   =        T    paw PP                                                  
   EAUG   =  605.392                                                            
   DEXC   =    0.000                                                            
   RMAX   =    1.553    core radius for proj-oper                               
   RAUG   =    1.300    factor for augmentation sphere                          
   RDEP   =    1.550    radius for radial grids                                 
   RDEPT  =    1.329    core radius for aug-charge                              
                                                                                
   Atomic configuration                                                         
    4 entries                                                                   
     n  l   j            E        occ.                                          
     1  0  0.50      -514.6923   2.0000                                         
     2  0  0.50       -23.9615   2.0000                                         
     2  1  0.50        -9.0305   4.0000                                         
     3  2  1.50        -9.5241   0.0000                                         
   Description                                                                  
     l       E           TYP  RCUT    TYP  RCUT                                 
     0    -23.9615318     23  1.200                                             
     0     -9.5240782     23  1.200                                             
     1     -9.0304911     23  1.520                                             
     1      8.1634956     23  1.520                                             
     2     -9.5240782      7  1.500                                             
  local pseudopotential read in
  partial core-charges read in
  partial kinetic energy density read in
  kinetic energy density of atom read in
  atomic valenz-charges read in
  non local Contribution for L=           0  read in
    real space projection operators read in
  non local Contribution for L=           0  read in
    real space projection operators read in
  non local Contribution for L=           1  read in
    real space projection operators read in
  non local Contribution for L=           1  read in
    real space projection operators read in
    PAW grid and wavefunctions read in
 
   number of l-projection  operators is LMAX  =           4
   number of lm-projection operators is LMMAX =           8
 
 Optimization of the real space projectors (new method)

 maximal supplied QI-value         = 18.90
 optimisation between [QCUT,QGAM] = [ 10.77, 27.02] = [ 32.49,204.49] Ry 
 Optimized for a Real-space Cutoff    1.14 Angstroem

   l    n(q)    QCUT    max X(q) W(low)/X(q) W(high)/X(q)  e(spline) 
   0      9    10.771    28.265    0.55E-04    0.11E-03    0.18E-06
   0      9    10.771    10.429    0.35E-04    0.89E-04    0.15E-06
   1      9    10.771    13.073    0.36E-03    0.68E-04    0.34E-06
   1      9    10.771     9.625    0.30E-03    0.60E-04    0.28E-06
   2      8    10.771     4.652    0.10E-03    0.16E-03    0.22E-06
 Optimization of the real space projectors (new method)

 maximal supplied QI-value         = 24.76
 optimisation between [QCUT,QGAM] = [ 10.64, 26.98] = [ 31.73,203.89] Ry 
 Optimized for a Real-space Cutoff    0.98 Angstroem

   l    n(q)    QCUT    max X(q) W(low)/X(q) W(high)/X(q)  e(spline) 
   0      8    10.645    20.381    0.22E-03    0.11E-04    0.15E-06
   0      8    10.645    15.268    0.23E-03    0.14E-04    0.16E-06
   1      7    10.645     5.964    0.39E-03    0.37E-03    0.76E-07
   1      7    10.645     5.382    0.33E-03    0.32E-03    0.66E-07
  PAW_PBE Mg 13Apr2007                  :
 energy of atom  1       EATOM=  -23.0369
 kinetic energy error for atom=    0.0001 (will be added to EATOM!!)
  PAW_PBE O 08Apr2002                   :
 energy of atom  2       EATOM= -432.3788
 kinetic energy error for atom=    0.0389 (will be added to EATOM!!)
 
 
 POSCAR: MgO13                                   
  positions in direct lattice
  No initial velocities read in
 exchange correlation table for  LEXCH =        8
   RHO(1)=    0.500       N(1)  =     2000
   RHO(2)=  100.500       N(2)  =     4000

 VTST: version 3.2, (02/03/18)

 CHAIN: initializing optimizer
 
 OPT: Using VASP Conjugate-Gradient optimizer
 CHAIN: Read ICHAIN            0
 
 POSCAR: MgO13                                   
  positions in direct lattice
  No initial velocities read in
 


--------------------------------------------------------------------------------------------------------


 ion  position               nearest neighbor table
   1  0.000  0.000  0.034-  10 2.12  10 2.12  10 2.12   2 3.00   2 3.00   2 3.00
   2  0.333  0.667  0.116-   8 2.12  10 2.12  10 2.12   8 2.12   8 2.12  10 2.12   6 3.00   1 3.00
                             6 3.00   1 3.00   1 3.00   6 3.00
   3  0.000  0.000  0.281-  11 2.12  12 2.12  11 2.12  12 2.12  11 2.12  12 2.12   4 3.00   6 3.00
                             4 3.00   6 3.00   6 3.00   4 3.00
   4  0.333  0.667  0.364-   9 2.12  11 2.12  11 2.12   9 2.12   9 2.12  11 2.12   7 3.00   3 3.00
                             7 3.00   3 3.00   3 3.00   7 3.00
   5  0.000  0.000  0.529-  13 2.12  13 2.12  13 2.12   7 3.00   7 3.00   7 3.00
   6  0.667  0.333  0.199-   8 2.12  12 2.12  12 2.12   8 2.12   8 2.12  12 2.12   2 3.00   3 3.00
                             2 3.00   3 3.00   3 3.00   2 3.00
   7  0.667  0.333  0.446-   9 2.12  13 2.12  13 2.12   9 2.12   9 2.12  13 2.12   4 3.00   5 3.00
                             4 3.00   5 3.00   5 3.00   4 3.00
   8  0.000  0.000  0.157-   2 2.12   6 2.12   6 2.12   2 2.12   6 2.12   2 2.12
   9  0.000  0.000  0.405-   4 2.12   7 2.12   7 2.12   4 2.12   7 2.12   4 2.12
  10  0.667  0.333  0.075-   1 2.12   2 2.12   2 2.12   1 2.12   1 2.12   2 2.12
  11  0.667  0.333  0.323-   3 2.12   4 2.12   4 2.12   3 2.12   3 2.12   4 2.12
  12  0.333  0.667  0.240-   3 2.12   6 2.12   6 2.12   3 2.12   3 2.12   6 2.12
  13  0.333  0.667  0.488-   5 2.12   7 2.12   7 2.12   5 2.12   5 2.12   7 2.12
 
  LATTYP: Found a hexagonal cell.
 ALAT       =     3.0044062036
 C/A-ratio  =     9.8916454082
  
  Lattice vectors:
  
 A1 = (   2.1244360000,  -2.1244350000,   0.0000000000)
 A2 = (   0.0000000000,   2.1244360000,  -2.1244360000)
 A3 = (  17.1579960000,  17.1579960000,  17.1579960000)


Analysis of symmetry for initial positions (statically):
=====================================================================
 Subroutine PRICEL returns:
 Original cell was already a primitive cell.
 

 Routine SETGRP: Setting up the symmetry group for a 
 hexagonal supercell.


 Subroutine GETGRP returns: Found 12 space group operations
 (whereof  6 operations were pure point group operations)
 out of a pool of 24 trial point group operations.


The static configuration has the point symmetry C_3v.
 The point group associated with its full space group is D_3d.


Analysis of symmetry for dynamics (positions and initial velocities):
=====================================================================
 Subroutine PRICEL returns:
 Original cell was already a primitive cell.
 

 Routine SETGRP: Setting up the symmetry group for a 
 hexagonal supercell.


 Subroutine GETGRP returns: Found 12 space group operations
 (whereof  6 operations were pure point group operations)
 out of a pool of 24 trial point group operations.


The dynamic configuration has the point symmetry C_3v.
 The point group associated with its full space group is D_3d.


Analysis of constrained symmetry for selective dynamics:
=====================================================================
 Subroutine PRICEL returns:
 Original cell was already a primitive cell.
 

 Routine SETGRP: Setting up the symmetry group for a 
 hexagonal supercell.


 Subroutine GETGRP returns: Found  6 space group operations
 (whereof  6 operations were pure point group operations)
 out of a pool of 24 trial point group operations.


The constrained configuration has the point symmetry C_3v.


 Subroutine INISYM returns: Found  6 space group operations
 (whereof  6 operations are pure point group operations),
 and found     1 'primitive' translations

 
 
 KPOINTS: K-Spacing Value to Generate K-Mesh: 0.02

Automatic generation of k-mesh.
Space group operators:
 irot       det(A)        alpha          n_x          n_y          n_z        tau_x        tau_y        tau_z
    1     1.000000     0.000000     1.000000     0.000000     0.000000     0.000000     0.000000     0.000000
    2     1.000000   120.000000    -0.577350    -0.577350    -0.577350     0.000000     0.000000     0.000000
    3     1.000000   120.000000     0.577350     0.577350     0.577350     0.000000     0.000000     0.000000
    4    -1.000000   180.000000     0.707107    -0.707107    -0.000000     0.000000     0.000000     0.000000
    5    -1.000000   180.000000    -0.000000     0.707107    -0.707107     0.000000     0.000000     0.000000
    6    -1.000000   180.000000    -0.707107     0.000000     0.707107     0.000000     0.000000     0.000000
 
 Subroutine IBZKPT returns following result:
 ===========================================
 
 Found     20 irreducible k-points:
 
 Following reciprocal coordinates:
            Coordinates               Weight
  0.062500  0.062500  0.000000     48.000000
  0.187500  0.062500  0.000000     96.000000
  0.312500  0.062500  0.000000     96.000000
  0.437500  0.062500  0.000000     96.000000
 -0.437500  0.062500 -0.000000     96.000000
 -0.312500  0.062500  0.000000     96.000000
 -0.187500  0.062500 -0.000000     96.000000
 -0.062500  0.062500  0.000000     48.000000
  0.187500  0.187500  0.000000     48.000000
  0.312500  0.187500  0.000000     96.000000
  0.437500  0.187500  0.000000     96.000000
 -0.437500  0.187500  0.000000     96.000000
 -0.312500  0.187500  0.000000     96.000000
 -0.187500  0.187500  0.000000     48.000000
  0.312500  0.312500  0.000000     48.000000
  0.437500  0.312500  0.000000     96.000000
 -0.437500  0.312500 -0.000000     96.000000
 -0.312500  0.312500  0.000000     48.000000
  0.437500  0.437500  0.000000     48.000000
 -0.437500  0.437500  0.000000     48.000000
 
 Following cartesian coordinates:
            Coordinates               Weight
  0.029420  0.000000 -0.029420     48.000000
  0.068646 -0.019613 -0.049033     96.000000
  0.107872 -0.039226 -0.068646     96.000000
  0.147098 -0.058839 -0.088259     96.000000
 -0.127485  0.078452  0.049033     96.000000
 -0.088259  0.058839  0.029420     96.000000
 -0.049033  0.039226  0.009807     96.000000
 -0.009807  0.019613 -0.009807     48.000000
  0.088259  0.000000 -0.088259     48.000000
  0.127485 -0.019613 -0.107872     96.000000
  0.166711 -0.039226 -0.127485     96.000000
 -0.107872  0.098065  0.009807     96.000000
 -0.068646  0.078452 -0.009807     96.000000
 -0.029420  0.058839 -0.029420     48.000000
  0.147098  0.000000 -0.147098     48.000000
  0.186324 -0.019613 -0.166711     96.000000
 -0.088259  0.117678 -0.029420     96.000000
 -0.049033  0.098065 -0.049033     48.000000
  0.205937  0.000000 -0.205937     48.000000
 -0.068646  0.137291 -0.068646     48.000000
 


--------------------------------------------------------------------------------------------------------




 Dimension of arrays:
   k-points           NKPTS =     20   k-points in BZ     NKDIM =     20   number of bands    NBANDS=     35
   number of dos      NEDOS =    301   number of ions     NIONS =     13
   non local maximal  LDIM  =      5   non local SUM 2l+1 LMDIM =     13
   total plane-waves  NPLWV = 120960
   max r-space proj   IRMAX =   3262   max aug-charges    IRDMAX=   7688
   dimension x,y,z NGX =    24 NGY =   24 NGZ =  210
   dimension x,y,z NGXF=    32 NGYF=   32 NGZF=  320
   support grid    NGXF=    32 NGYF=   32 NGZF=  320
   ions per type =               7   6
   NGX,Y,Z   is equivalent  to a cutoff of  13.28, 13.28, 11.75 a.u.
   NGXF,Y,Z  is equivalent  to a cutoff of  17.71, 17.71, 17.90 a.u.

 SYSTEM =  Al110                                   
 POSCAR =  MgO13                                   

 Startparameter for this run:
   NWRITE =      2    write-flag & timer
   PREC   = h         normal or accurate (medium, high low for compatibility)
   ISTART =      0    job   : 0-new  1-cont  2-samecut
   ICHARG =      2    charge: 1-file 2-atom 10-const
   ISPIN  =      1    spin polarized calculation?
   LNONCOLLINEAR =      F non collinear calculations
   LSORBIT =      F    spin-orbit coupling
   INIWAV =      1    electr: 0-lowe 1-rand  2-diag
   LASPH  =      F    aspherical Exc in radial PAW
   METAGGA=      F    non-selfconsistent MetaGGA calc.

 Electronic Relaxation 1
   ENCUT  =  450.0 eV  33.07 Ry    5.75 a.u.   5.20  5.20 51.40*2*pi/ulx,y,z
   ENINI  =  450.0     initial cutoff
   ENAUG  =  605.4 eV  augmentation charge cutoff
   NELM   =    100;   NELMIN=  8; NELMDL=  8     # of ELM steps 
   EDIFF  = 0.1E-04   stopping-criterion for ELM
   LREAL  =      T    real-space projection
   NLSPLINE    = F    spline interpolate recip. space projectors
   LCOMPAT=      F    compatible to vasp.4.4
   GGA_COMPAT  = T    GGA compatible to vasp.4.4-vasp.4.6
   LMAXPAW     = -100 max onsite density
   LMAXMIX     =    2 max onsite mixed and CHGCAR
   VOSKOWN=      0    Vosko Wilk Nusair interpolation
   ROPT   =   -0.00040  -0.00040
 Ionic relaxation
   EDIFFG = -.1E-01   stopping-criterion for IOM
   NSW    =    500    number of steps for IOM
   NBLOCK =      1;   KBLOCK =    500    inner block; outer block 
   IBRION =      2    ionic relax: 0-MD 1-quasi-New 2-CG
   NFREE  =      1    steps in history (QN), initial steepest desc. (CG)
   ISIF   =      2    stress and relaxation
   IWAVPR =     11    prediction:  0-non 1-charg 2-wave 3-comb
   ISYM   =      2    0-nonsym 1-usesym 2-fastsym
   LCORR  =      T    Harris-Foulkes like correction to forces

   POTIM  = 0.5000    time-step for ionic-motion
   TEIN   =    0.0    initial temperature
   TEBEG  =    0.0;   TEEND  =   0.0 temperature during run
   SMASS  =  -3.00    Nose mass-parameter (am)
   estimated Nose-frequenzy (Omega)   =  0.10E-29 period in steps =****** mass=  -0.206E-27a.u.
   SCALEE = 1.0000    scale energy and forces
   NPACO  =    256;   APACO  = 16.0  distance and # of slots for P.C.
   PSTRESS=    0.0 pullay stress

  Mass of Ions in am
   POMASS =  24.30 16.00
  Ionic Valenz
   ZVAL   =   2.00  6.00
  Atomic Wigner-Seitz radii
   RWIGS  =  -1.00 -1.00
  virtual crystal weights 
   VCA    =   1.00  1.00
   NELECT =      50.0000    total number of electrons
   NUPDOWN=      -1.0000    fix difference up-down

 DOS related values:
   EMIN   =  10.00;   EMAX   =-10.00  energy-range for DOS
   EFERMI =   0.00
   ISMEAR =     0;   SIGMA  =   0.05  broadening in eV -4-tet -1-fermi 0-gaus

 Electronic relaxation 2 (details)
   IALGO  =     68    algorithm
   LDIAG  =      T    sub-space diagonalisation (order eigenvalues)
   LSUBROT=      F    optimize rotation matrix (better conditioning)
   TURBO    =      0    0=normal 1=particle mesh
   IRESTART =      0    0=no restart 2=restart with 2 vectors
   NREBOOT  =      0    no. of reboots
   NMIN     =      0    reboot dimension
   EREF     =   0.00    reference energy to select bands
   IMIX   =      4    mixing-type and parameters
     AMIX     =   0.40;   BMIX     =  1.00
     AMIX_MAG =   1.60;   BMIX_MAG =  1.00
     AMIN     =   0.10
     WC   =   100.;   INIMIX=   1;  MIXPRE=   1;  MAXMIX= -45

 Intra band minimization:
   WEIMIN = 0.0010     energy-eigenvalue tresh-hold
   EBREAK =  0.71E-07  absolut break condition
   DEPER  =   0.30     relativ break condition  

   TIME   =   0.40     timestep for ELM

  volume/ion in A,a.u.               =      17.87       120.59
  Fermi-wavevector in a.u.,A,eV,Ry     =   0.981085  1.853981 13.095976  0.962527
  Thomas-Fermi vector in A             =   2.112064
 
 Write flags
   LWAVE        =      F    write WAVECAR
   LDOWNSAMPLE  =      F    k-point downsampling of WAVECAR
   LCHARG       =      F    write CHGCAR
   LVTOT        =      F    write LOCPOT, total local potential
   LVHAR        =      F    write LOCPOT, Hartree potential only
   LELF         =      F    write electronic localiz. function (ELF)
   LORBIT       =      0    0 simple, 1 ext, 2 COOP (PROOUT), +10 PAW based schemes


 Dipole corrections
   LMONO  =      F    monopole corrections only (constant potential shift)
   LDIPOL =      F    correct potential (dipole corrections)
   IDIPOL =      0    1-x, 2-y, 3-z, 4-all directions 
   EPSILON=  1.0000000 bulk dielectric constant

 Exchange correlation treatment:
   GGA     =    --    GGA type
   LEXCH   =     8    internal setting for exchange type
   VOSKOWN=      0    Vosko Wilk Nusair interpolation
   LHFCALC =     F    Hartree Fock is set to
   LHFONE  =     F    Hartree Fock one center treatment
   AEXX    =    0.0000 exact exchange contribution

 Linear response parameters
   LEPSILON=     F    determine dielectric tensor
   LRPA    =     F    only Hartree local field effects (RPA)
   LNABLA  =     F    use nabla operator in PAW spheres
   LVEL    =     F    velocity operator in full k-point grid
   LINTERFAST=   F  fast interpolation
   KINTER  =     0    interpolate to denser k-point grid
   CSHIFT  =0.1000    complex shift for real part using Kramers Kronig
   OMEGAMAX=  -1.0    maximum frequency
   DEG_THRESHOLD= 0.2000000E-02 threshold for treating states as degnerate
   RTIME   =   -0.100 relaxation time in fs
  (WPLASMAI=    0.000 imaginary part of plasma frequency in eV, 0.658/RTIME)
   DFIELD  = 0.0000000 0.0000000 0.0000000 field for delta impulse in time
 
 Orbital magnetization related:
   ORBITALMAG=     F  switch on orbital magnetization
   LCHIMAG   =     F  perturbation theory with respect to B field
   DQ        =  0.001000  dq finite difference perturbation B field
   LLRAUG    =     F  two centre corrections for induced B field



--------------------------------------------------------------------------------------------------------


 conjugate gradient relaxation of ions
   using selective dynamics as specified on POSCAR
 charge density and potential will be updated during run
 non-spin polarized calculation
 RMM-DIIS sequential band-by-band and
  variant of blocked Davidson during initial phase
 perform sub-space diagonalisation
    before iterative eigenvector-optimisation
 modified Broyden-mixing scheme, WC =      100.0
 initial mixing is a Kerker type mixing with AMIX =  0.4000 and BMIX =      1.0000
 Hartree-type preconditioning will be used
 using additional bands           10
 real space projection scheme for non local part
 use partial core corrections
 calculate Harris-corrections to forces 
   (improved forces if not selfconsistent)
 use gradient corrections 
 use of overlap-Matrix (Vanderbilt PP)
 Gauss-broadening in eV      SIGMA  =   0.05


--------------------------------------------------------------------------------------------------------


  energy-cutoff  :      450.00
  volume of cell :      232.31
      direct lattice vectors                 reciprocal lattice vectors
     2.124436000 -2.124435000  0.000000000     0.313808828 -0.156904414 -0.156904414
     0.000000000  2.124436000 -2.124436000     0.156904340  0.156904414 -0.313808754
    17.157996000 17.157996000 17.157996000     0.019427282  0.019427291  0.019427291

  length of vectors
     3.004405496  3.004406204 29.718520828     0.384335753  0.384335662  0.033649050


 
 k-points in units of 2pi/SCALE and weight: K-Spacing Value to Generate K-Mesh: 0.02
   0.02941957  0.00000000 -0.02941957       0.031
   0.06864568 -0.01961305 -0.04903262       0.062
   0.10787178 -0.03922610 -0.06864568       0.062
   0.14709788 -0.05883916 -0.08825873       0.062
  -0.12748484  0.07845221  0.04903263       0.062
  -0.08825874  0.05883916  0.02941958       0.062
  -0.04903263  0.03922610  0.00980653       0.062
  -0.00980653  0.01961305 -0.00980652       0.031
   0.08825872  0.00000000 -0.08825872       0.031
   0.12748482 -0.01961305 -0.10787177       0.062
   0.16671093 -0.03922610 -0.12748482       0.062
  -0.10787180  0.09806526  0.00980654       0.062
  -0.06864569  0.07845221 -0.00980651       0.062
  -0.02941959  0.05883916 -0.02941956       0.031
   0.14709787  0.00000000 -0.14709787       0.031
   0.18632397 -0.01961305 -0.16671092       0.062
  -0.08825876  0.11767831 -0.02941955       0.062
  -0.04903265  0.09806526 -0.04903261       0.031
   0.20593701  0.00000000 -0.20593701       0.031
  -0.06864571  0.13729136 -0.06864565       0.031
 
 k-points in reciprocal lattice and weights: K-Spacing Value to Generate K-Mesh: 0.02
   0.06250000  0.06250000  0.00000000       0.031
   0.18750000  0.06250000  0.00000000       0.062
   0.31250000  0.06250000  0.00000000       0.062
   0.43750000  0.06250000  0.00000000       0.062
  -0.43750000  0.06250000 -0.00000000       0.062
  -0.31250000  0.06250000  0.00000000       0.062
  -0.18750000  0.06250000 -0.00000000       0.062
  -0.06250000  0.06250000  0.00000000       0.031
   0.18750000  0.18750000  0.00000000       0.031
   0.31250000  0.18750000  0.00000000       0.062
   0.43750000  0.18750000  0.00000000       0.062
  -0.43750000  0.18750000  0.00000000       0.062
  -0.31250000  0.18750000  0.00000000       0.062
  -0.18750000  0.18750000  0.00000000       0.031
   0.31250000  0.31250000  0.00000000       0.031
   0.43750000  0.31250000  0.00000000       0.062
  -0.43750000  0.31250000 -0.00000000       0.062
  -0.31250000  0.31250000  0.00000000       0.031
   0.43750000  0.43750000  0.00000000       0.031
  -0.43750000  0.43750000  0.00000000       0.031
 
 position of ions in fractional coordinates (direct lattice) 
   0.00000000  0.00000000  0.03364900
   0.33333300  0.66666700  0.11619300
   0.00000000  0.00000000  0.28128100
   0.33333300  0.66666700  0.36382500
   0.00000000  0.00000000  0.52891300
   0.66666700  0.33333300  0.19873700
   0.66666700  0.33333300  0.44636900
   0.00000000  0.00000000  0.15746500
   0.00000000  0.00000000  0.40509700
   0.66666700  0.33333300  0.07492100
   0.66666700  0.33333300  0.32255300
   0.33333300  0.66666700  0.24000900
   0.33333300  0.66666700  0.48764100
 
 position of ions in cartesian coordinates  (Angst):
   0.57734941  0.57734941  0.57734941
   2.70178365  2.70178611  0.57734765
   4.82621827  4.82621827  4.82621827
   6.95065252  6.95065498  4.82621652
   9.07508714  9.07508714  9.07508714
   4.82622003  2.70178257  2.70178403
   9.07508889  6.95065143  6.95065289
   2.70178384  2.70178384  2.70178384
   6.95065271  6.95065271  6.95065271
   2.70178559  0.57734814  0.57734959
   6.95065446  4.82621700  4.82621846
   4.82621809  4.82622054  2.70178209
   9.07508695  9.07508941  6.95065095
 


--------------------------------------------------------------------------------------------------------


 k-point  1 :   0.0625 0.0625 0.0000  plane waves:    5013
 k-point  2 :   0.1875 0.0625 0.0000  plane waves:    5012
 k-point  3 :   0.3125 0.0625 0.0000  plane waves:    5056
 k-point  4 :   0.4375 0.0625 0.0000  plane waves:    5050
 k-point  5 :  -0.4375 0.0625-0.0000  plane waves:    5062
 k-point  6 :  -0.3125 0.0625 0.0000  plane waves:    5046
 k-point  7 :  -0.1875 0.0625-0.0000  plane waves:    5013
 k-point  8 :  -0.0625 0.0625 0.0000  plane waves:    5005
 k-point  9 :   0.1875 0.1875 0.0000  plane waves:    5015
 k-point 10 :   0.3125 0.1875 0.0000  plane waves:    5035
 k-point 11 :   0.4375 0.1875 0.0000  plane waves:    5037
 k-point 12 :  -0.4375 0.1875 0.0000  plane waves:    5043
 k-point 13 :  -0.3125 0.1875 0.0000  plane waves:    5020
 k-point 14 :  -0.1875 0.1875 0.0000  plane waves:    5001
 k-point 15 :   0.3125 0.3125 0.0000  plane waves:    5011
 k-point 16 :   0.4375 0.3125 0.0000  plane waves:    5024
 k-point 17 :  -0.4375 0.3125-0.0000  plane waves:    5047
 k-point 18 :  -0.3125 0.3125 0.0000  plane waves:    5045
 k-point 19 :   0.4375 0.4375 0.0000  plane waves:    5032
 k-point 20 :  -0.4375 0.4375 0.0000  plane waves:    5073

 maximum and minimum number of plane-waves per node :      1286     1232

 maximum number of plane-waves:      5073
 maximum index in each direction: 
   IXMAX=    5   IYMAX=    5   IZMAX=   51
   IXMIN=   -5   IYMIN=   -5   IZMIN=  -51


 real space projection operators:
  total allocation   :       2971.50 KBytes
  max/ min on nodes  :        751.20        736.17


 parallel 3D FFT for wavefunctions:
    minimum data exchange during FFTs selected (reduces bandwidth)
 parallel 3D FFT for charge:
    minimum data exchange during FFTs selected (reduces bandwidth)


 total amount of memory used by VASP MPI-rank0    38612. kBytes
=======================================================================

   base      :      30000. kBytes
   nonlr-proj:       1641. kBytes
   fftplans  :       1620. kBytes
   grid      :       2363. kBytes
   one-center:         32. kBytes
   wavefun   :       2956. kBytes
 
     INWAV:  cpu time    0.0000: real time    0.0001
 Broyden mixing: mesh for mixing (old mesh)
   NGX = 11   NGY = 11   NGZ =103
  (NGX  = 32   NGY  = 32   NGZ  =320)
  gives a total of  12463 points

 initial charge density was supplied:
 charge density of overlapping atoms calculated
 number of electron      50.0000000 magnetization 
 keeping initial charge density in first step


--------------------------------------------------------------------------------------------------------


 Maximum index for non-local projection operator          796
 Maximum index for augmentation-charges          555 (set IRDMAX)


--------------------------------------------------------------------------------------------------------


 First call to EWALD:  gamma=   0.288
 Maximum number of real-space cells 6x 6x 1
 Maximum number of reciprocal cells 2x 2x11

    FEWALD:  cpu time    0.0013: real time    0.0013


--------------------------------------- Iteration      1(   1)  ---------------------------------------


    POTLOK:  cpu time    0.0109: real time    0.0111
    SETDIJ:  cpu time    0.0022: real time    0.0022
     EDDAV:  cpu time    1.1543: real time    1.1679
       DOS:  cpu time    0.0009: real time    0.0014
    --------------------------------------------
      LOOP:  cpu time    1.1683: real time    1.1825

 eigenvalue-minimisations  :  1400
 total energy-change (2. order) : 0.3478644E+03  (-0.2070312E+04)
 number of electron      50.0000000 magnetization 
 augmentation part       50.0000000 magnetization 

 Free energy of the ion-electron system (eV)
  ---------------------------------------------------
  alpha Z        PSCENC =        63.80903988
  Ewald energy   TEWEN  =     14819.91245240
  -Hartree energ DENC   =    -17382.88908326
  -exchange      EXHF   =         0.00000000
  -V(xc)+E(xc)   XCENC  =      -172.38929806
  PAW double counting   =      2536.44372822    -2184.19659649
  entropy T*S    EENTRO =        -0.00436320
  eigenvalues    EBANDS =       -88.11837563
  atomic energy  EATOM  =      2755.29691970
  Solvation  Ediel_sol  =         0.00000000
  ---------------------------------------------------
  free energy    TOTEN  =       347.86442356 eV

  energy without entropy =      347.86878676  energy(sigma->0) =      347.86660516


--------------------------------------------------------------------------------------------------------




--------------------------------------- Iteration      1(   2)  ---------------------------------------


     EDDAV:  cpu time    1.2913: real time    1.2929
       DOS:  cpu time    0.0007: real time    0.0007
    --------------------------------------------
      LOOP:  cpu time    1.2920: real time    1.2936

 eigenvalue-minimisations  :  1845
 total energy-change (2. order) :-0.3841310E+03  (-0.3715086E+03)
 number of electron      50.0000000 magnetization 
 augmentation part       50.0000000 magnetization 

 Free energy of the ion-electron system (eV)
  ---------------------------------------------------
  alpha Z        PSCENC =        63.80903988
  Ewald energy   TEWEN  =     14819.91245240
  -Hartree energ DENC   =    -17382.88908326
  -exchange      EXHF   =         0.00000000
  -V(xc)+E(xc)   XCENC  =      -172.38929806
  PAW double counting   =      2536.44372822    -2184.19659649
  entropy T*S    EENTRO =        -0.00350740
  eigenvalues    EBANDS =      -472.25022370
  atomic energy  EATOM  =      2755.29691970
  Solvation  Ediel_sol  =         0.00000000
  ---------------------------------------------------
  free energy    TOTEN  =       -36.26656870 eV

  energy without entropy =      -36.26306130  energy(sigma->0) =      -36.26481500


--------------------------------------------------------------------------------------------------------




--------------------------------------- Iteration      1(   3)  ---------------------------------------


     EDDAV:  cpu time    1.2001: real time    1.2017
       DOS:  cpu time    0.0010: real time    0.0015
    --------------------------------------------
      LOOP:  cpu time    1.2010: real time    1.2032

 eigenvalue-minimisations  :  1595
 total energy-change (2. order) :-0.4432001E+02  (-0.4409228E+02)
 number of electron      50.0000000 magnetization 
 augmentation part       50.0000000 magnetization 

 Free energy of the ion-electron system (eV)
  ---------------------------------------------------
  alpha Z        PSCENC =        63.80903988
  Ewald energy   TEWEN  =     14819.91245240
  -Hartree energ DENC   =    -17382.88908326
  -exchange      EXHF   =         0.00000000
  -V(xc)+E(xc)   XCENC  =      -172.38929806
  PAW double counting   =      2536.44372822    -2184.19659649
  entropy T*S    EENTRO =        -0.00036027
  eigenvalues    EBANDS =      -516.57338557
  atomic energy  EATOM  =      2755.29691970
  Solvation  Ediel_sol  =         0.00000000
  ---------------------------------------------------
  free energy    TOTEN  =       -80.58658345 eV

  energy without entropy =      -80.58622318  energy(sigma->0) =      -80.58640331


--------------------------------------------------------------------------------------------------------




--------------------------------------- Iteration      1(   4)  ---------------------------------------


     EDDAV:  cpu time    1.3157: real time    1.3193
       DOS:  cpu time    0.0006: real time    0.0006
    --------------------------------------------
      LOOP:  cpu time    1.3163: real time    1.3199

 eigenvalue-minimisations  :  1950
 total energy-change (2. order) :-0.8776047E+00  (-0.8757338E+00)
 number of electron      50.0000000 magnetization 
 augmentation part       50.0000000 magnetization 

 Free energy of the ion-electron system (eV)
  ---------------------------------------------------
  alpha Z        PSCENC =        63.80903988
  Ewald energy   TEWEN  =     14819.91245240
  -Hartree energ DENC   =    -17382.88908326
  -exchange      EXHF   =         0.00000000
  -V(xc)+E(xc)   XCENC  =      -172.38929806
  PAW double counting   =      2536.44372822    -2184.19659649
  entropy T*S    EENTRO =        -0.00050153
  eigenvalues    EBANDS =      -517.45084897
  atomic energy  EATOM  =      2755.29691970
  Solvation  Ediel_sol  =         0.00000000
  ---------------------------------------------------
  free energy    TOTEN  =       -81.46418811 eV

  energy without entropy =      -81.46368658  energy(sigma->0) =      -81.46393734


--------------------------------------------------------------------------------------------------------




--------------------------------------- Iteration      1(   5)  ---------------------------------------


     EDDAV:  cpu time    1.3374: real time    1.3395
       DOS:  cpu time    0.0007: real time    0.0013
    --------------------------------------------
      LOOP:  cpu time    1.3382: real time    1.3408

 eigenvalue-minimisations  :  1755
 total energy-change (2. order) :-0.1235995E-01  (-0.1235460E-01)
 number of electron      50.0000000 magnetization 
 augmentation part       50.0000000 magnetization 

 Free energy of the ion-electron system (eV)
  ---------------------------------------------------
  alpha Z        PSCENC =        63.80903988
  Ewald energy   TEWEN  =     14819.91245240
  -Hartree energ DENC   =    -17382.88908326
  -exchange      EXHF   =         0.00000000
  -V(xc)+E(xc)   XCENC  =      -172.38929806
  PAW double counting   =      2536.44372822    -2184.19659649
  entropy T*S    EENTRO =        -0.00051182
  eigenvalues    EBANDS =      -517.46319864
  atomic energy  EATOM  =      2755.29691970
  Solvation  Ediel_sol  =         0.00000000
  ---------------------------------------------------
  free energy    TOTEN  =       -81.47654806 eV

  energy without entropy =      -81.47603624  energy(sigma->0) =      -81.47629215


--------------------------------------------------------------------------------------------------------




--------------------------------------- Iteration      1(   6)  ---------------------------------------


     EDDAV:  cpu time    1.2448: real time    1.2502
       DOS:  cpu time    0.0006: real time    0.0006
    --------------------------------------------
      LOOP:  cpu time    1.2454: real time    1.2509

 eigenvalue-minimisations  :  1920
 total energy-change (2. order) :-0.3055844E-03  (-0.3053968E-03)
 number of electron      50.0000000 magnetization 
 augmentation part       50.0000000 magnetization 

 Free energy of the ion-electron system (eV)
  ---------------------------------------------------
  alpha Z        PSCENC =        63.80903988
  Ewald energy   TEWEN  =     14819.91245240
  -Hartree energ DENC   =    -17382.88908326
  -exchange      EXHF   =         0.00000000
  -V(xc)+E(xc)   XCENC  =      -172.38929806
  PAW double counting   =      2536.44372822    -2184.19659649
  entropy T*S    EENTRO =        -0.00051196
  eigenvalues    EBANDS =      -517.46350408
  atomic energy  EATOM  =      2755.29691970
  Solvation  Ediel_sol  =         0.00000000
  ---------------------------------------------------
  free energy    TOTEN  =       -81.47685365 eV

  energy without entropy =      -81.47634169  energy(sigma->0) =      -81.47659767


--------------------------------------------------------------------------------------------------------




--------------------------------------- Iteration      1(   7)  ---------------------------------------


     EDDAV:  cpu time    1.1881: real time    1.1927
       DOS:  cpu time    0.0007: real time    0.0007
    --------------------------------------------
      LOOP:  cpu time    1.1887: real time    1.1933

 eigenvalue-minimisations  :  1665
 total energy-change (2. order) :-0.9556235E-05  (-0.9554733E-05)
 number of electron      50.0000000 magnetization 
 augmentation part       50.0000000 magnetization 

 Free energy of the ion-electron system (eV)
  ---------------------------------------------------
  alpha Z        PSCENC =        63.80903988
  Ewald energy   TEWEN  =     14819.91245240
  -Hartree energ DENC   =    -17382.88908326
  -exchange      EXHF   =         0.00000000
  -V(xc)+E(xc)   XCENC  =      -172.38929806
  PAW double counting   =      2536.44372822    -2184.19659649
  entropy T*S    EENTRO =        -0.00051196
  eigenvalues    EBANDS =      -517.46351364
  atomic energy  EATOM  =      2755.29691970
  Solvation  Ediel_sol  =         0.00000000
  ---------------------------------------------------
  free energy    TOTEN  =       -81.47686320 eV

  energy without entropy =      -81.47635124  energy(sigma->0) =      -81.47660722


--------------------------------------------------------------------------------------------------------




--------------------------------------- Iteration      1(   8)  ---------------------------------------


     EDDAV:  cpu time    1.1536: real time    1.1634
       DOS:  cpu time    0.0007: real time    0.0007
    CHARGE:  cpu time    0.0468: real time    0.0468
    MIXING:  cpu time    0.0008: real time    0.0009
    --------------------------------------------
      LOOP:  cpu time    1.2018: real time    1.2118

 eigenvalue-minimisations  :  1490
 total energy-change (2. order) :-0.2927109E-06  (-0.2926164E-06)
 number of electron      50.0000029 magnetization 
 augmentation part        4.8112514 magnetization 

 Broyden mixing:
  rms(total) = 0.18116E+01    rms(broyden)= 0.18111E+01
  rms(prec ) = 0.19042E+01
  weight for this iteration     100.00

 Free energy of the ion-electron system (eV)
  ---------------------------------------------------
  alpha Z        PSCENC =        63.80903988
  Ewald energy   TEWEN  =     14819.91245240
  -Hartree energ DENC   =    -17382.88908326
  -exchange      EXHF   =         0.00000000
  -V(xc)+E(xc)   XCENC  =      -172.38929806
  PAW double counting   =      2536.44372822    -2184.19659649
  entropy T*S    EENTRO =        -0.00051196
  eigenvalues    EBANDS =      -517.46351393
  atomic energy  EATOM  =      2755.29691970
  Solvation  Ediel_sol  =         0.00000000
  ---------------------------------------------------
  free energy    TOTEN  =       -81.47686349 eV

  energy without entropy =      -81.47635154  energy(sigma->0) =      -81.47660751


--------------------------------------------------------------------------------------------------------




--------------------------------------- Iteration      1(   9)  ---------------------------------------


    POTLOK:  cpu time    0.0089: real time    0.0089
    SETDIJ:  cpu time    0.0032: real time    0.0032
    EDDIAG:  cpu time    0.1828: real time    0.1831
  RMM-DIIS:  cpu time    0.6141: real time    0.6157
    ORTHCH:  cpu time    0.0165: real time    0.0165
       DOS:  cpu time    0.0007: real time    0.0007
    CHARGE:  cpu time    0.0448: real time    0.0449
    MIXING:  cpu time    0.0007: real time    0.0007
    --------------------------------------------
      LOOP:  cpu time    0.8716: real time    0.8736

 eigenvalue-minimisations  :  1400
 total energy-change (2. order) : 0.9990784E+01  (-0.4506139E+01)
 number of electron      50.0000024 magnetization 
 augmentation part        3.9522754 magnetization 

 Broyden mixing:
  rms(total) = 0.58097E+00    rms(broyden)= 0.58014E+00
  rms(prec ) = 0.59062E+00
  weight for this iteration     100.00

 eigenvalues of (default mixing * dielectric matrix)
  average eigenvalue GAMMA=   0.8456
  0.8456

 Free energy of the ion-electron system (eV)
  ---------------------------------------------------
  alpha Z        PSCENC =        63.80903988
  Ewald energy   TEWEN  =     14819.91245240
  -Hartree energ DENC   =    -17538.17154039
  -exchange      EXHF   =         0.00000000
  -V(xc)+E(xc)   XCENC  =      -164.26068207
  PAW double counting   =      2981.71763371    -2631.51764389
  entropy T*S    EENTRO =        -0.00359929
  eigenvalues    EBANDS =      -358.26865918
  atomic energy  EATOM  =      2755.29691970
  Solvation  Ediel_sol  =         0.00000000
  ---------------------------------------------------
  free energy    TOTEN  =       -71.48607913 eV

  energy without entropy =      -71.48247985  energy(sigma->0) =      -71.48427949


--------------------------------------------------------------------------------------------------------




--------------------------------------- Iteration      1(  10)  ---------------------------------------


    POTLOK:  cpu time    0.0078: real time    0.0079
    SETDIJ:  cpu time    0.0019: real time    0.0019
    EDDIAG:  cpu time    0.1572: real time    0.1574
  RMM-DIIS:  cpu time    0.7194: real time    0.7482
    ORTHCH:  cpu time    0.0188: real time    0.0188
       DOS:  cpu time    0.0008: real time    0.0015
    CHARGE:  cpu time    0.0473: real time    0.0474
    MIXING:  cpu time    0.0007: real time    0.0007
    --------------------------------------------
      LOOP:  cpu time    0.9540: real time    0.9838

 eigenvalue-minimisations  :  1400
 total energy-change (2. order) : 0.1929798E+00  (-0.4044621E-01)
 number of electron      50.0000024 magnetization 
 augmentation part        3.9514088 magnetization 

 Broyden mixing:
  rms(total) = 0.37419E+00    rms(broyden)= 0.37415E+00
  rms(prec ) = 0.38114E+00
  weight for this iteration     100.00

 eigenvalues of (default mixing * dielectric matrix)
  average eigenvalue GAMMA=   1.6527
  1.0068  2.2985

 Free energy of the ion-electron system (eV)
  ---------------------------------------------------
  alpha Z        PSCENC =        63.80903988
  Ewald energy   TEWEN  =     14819.91245240
  -Hartree energ DENC   =    -17538.75918379
  -exchange      EXHF   =         0.00000000
  -V(xc)+E(xc)   XCENC  =      -164.03822209
  PAW double counting   =      3114.82391672    -2764.41336788
  entropy T*S    EENTRO =        -0.00357183
  eigenvalues    EBANDS =      -357.92108243
  atomic energy  EATOM  =      2755.29691970
  Solvation  Ediel_sol  =         0.00000000
  ---------------------------------------------------
  free energy    TOTEN  =       -71.29309932 eV

  energy without entropy =      -71.28952749  energy(sigma->0) =      -71.29131341


--------------------------------------------------------------------------------------------------------




--------------------------------------- Iteration      1(  11)  ---------------------------------------


    POTLOK:  cpu time    0.0093: real time    0.0116
    SETDIJ:  cpu time    0.0031: real time    0.0031
    EDDIAG:  cpu time    0.1829: real time    0.1849
  RMM-DIIS:  cpu time    0.7045: real time    0.7069
    ORTHCH:  cpu time    0.0172: real time    0.0174
       DOS:  cpu time    0.0007: real time    0.0007
    CHARGE:  cpu time    0.0579: real time    0.0583
    MIXING:  cpu time    0.0006: real time    0.0007
    --------------------------------------------
      LOOP:  cpu time    0.9762: real time    0.9836

 eigenvalue-minimisations  :  1400
 total energy-change (2. order) : 0.4847847E-01  (-0.3349407E-01)
 number of electron      50.0000024 magnetization 
 augmentation part        4.0014748 magnetization 

 Broyden mixing:
  rms(total) = 0.74261E-01    rms(broyden)= 0.74225E-01
  rms(prec ) = 0.82297E-01
  weight for this iteration     100.00

 eigenvalues of (default mixing * dielectric matrix)
  average eigenvalue GAMMA=   1.4363
  2.4899  0.9095  0.9095

 Free energy of the ion-electron system (eV)
  ---------------------------------------------------
  alpha Z        PSCENC =        63.80903988
  Ewald energy   TEWEN  =     14819.91245240
  -Hartree energ DENC   =    -17540.09716403
  -exchange      EXHF   =         0.00000000
  -V(xc)+E(xc)   XCENC  =      -163.47768020
  PAW double counting   =      3343.30362527    -2992.59991064
  entropy T*S    EENTRO =        -0.00288457
  eigenvalues    EBANDS =      -357.38901867
  atomic energy  EATOM  =      2755.29691970
  Solvation  Ediel_sol  =         0.00000000
  ---------------------------------------------------
  free energy    TOTEN  =       -71.24462086 eV

  energy without entropy =      -71.24173628  energy(sigma->0) =      -71.24317857


--------------------------------------------------------------------------------------------------------




--------------------------------------- Iteration      1(  12)  ---------------------------------------


    POTLOK:  cpu time    0.0078: real time    0.0079
    SETDIJ:  cpu time    0.0019: real time    0.0019
    EDDIAG:  cpu time    0.1555: real time    0.1561
  RMM-DIIS:  cpu time    0.6960: real time    0.6990
    ORTHCH:  cpu time    0.0185: real time    0.0185
       DOS:  cpu time    0.0007: real time    0.0007
    CHARGE:  cpu time    0.0458: real time    0.0460
    MIXING:  cpu time    0.0008: real time    0.0008
    --------------------------------------------
      LOOP:  cpu time    0.9271: real time    0.9309

 eigenvalue-minimisations  :  1402
 total energy-change (2. order) :-0.6539362E-02  (-0.3592601E-02)
 number of electron      50.0000024 magnetization 
 augmentation part        3.9829311 magnetization 

 Broyden mixing:
  rms(total) = 0.38237E-01    rms(broyden)= 0.38226E-01
  rms(prec ) = 0.68283E-01
  weight for this iteration     100.00

 eigenvalues of (default mixing * dielectric matrix)
  average eigenvalue GAMMA=   1.2107
  2.4974  0.9142  0.9142  0.5171

 Free energy of the ion-electron system (eV)
  ---------------------------------------------------
  alpha Z        PSCENC =        63.80903988
  Ewald energy   TEWEN  =     14819.91245240
  -Hartree energ DENC   =    -17543.71740408
  -exchange      EXHF   =         0.00000000
  -V(xc)+E(xc)   XCENC  =      -163.16339635
  PAW double counting   =      3357.20882430    -3006.56629615
  entropy T*S    EENTRO =        -0.00116984
  eigenvalues    EBANDS =      -354.03013008
  atomic energy  EATOM  =      2755.29691970
  Solvation  Ediel_sol  =         0.00000000
  ---------------------------------------------------
  free energy    TOTEN  =       -71.25116022 eV

  energy without entropy =      -71.24999037  energy(sigma->0) =      -71.25057530


--------------------------------------------------------------------------------------------------------




--------------------------------------- Iteration      1(  13)  ---------------------------------------


    POTLOK:  cpu time    0.0088: real time    0.0089
    SETDIJ:  cpu time    0.0021: real time    0.0021
    EDDIAG:  cpu time    0.1892: real time    0.1900
  RMM-DIIS:  cpu time    0.7823: real time    0.7852
    ORTHCH:  cpu time    0.0181: real time    0.0181
       DOS:  cpu time    0.0007: real time    0.0007
    CHARGE:  cpu time    0.0452: real time    0.0453
    MIXING:  cpu time    0.0008: real time    0.0008
    --------------------------------------------
      LOOP:  cpu time    1.0471: real time    1.0511

 eigenvalue-minimisations  :  1400
 total energy-change (2. order) : 0.1970496E-01  (-0.4932274E-03)
 number of electron      50.0000024 magnetization 
 augmentation part        3.9765005 magnetization 

 Broyden mixing:
  rms(total) = 0.21729E-01    rms(broyden)= 0.21726E-01
  rms(prec ) = 0.34900E-01
  weight for this iteration     100.00

 eigenvalues of (default mixing * dielectric matrix)
  average eigenvalue GAMMA=   1.4479
  2.6129  2.4051  0.8991  0.8991  0.4232

 Free energy of the ion-electron system (eV)
  ---------------------------------------------------
  alpha Z        PSCENC =        63.80903988
  Ewald energy   TEWEN  =     14819.91245240
  -Hartree energ DENC   =    -17544.22741162
  -exchange      EXHF   =         0.00000000
  -V(xc)+E(xc)   XCENC  =      -163.10694812
  PAW double counting   =      3356.43986903    -3005.81239256
  entropy T*S    EENTRO =        -0.00293163
  eigenvalues    EBANDS =      -353.54005234
  atomic energy  EATOM  =      2755.29691970
  Solvation  Ediel_sol  =         0.00000000
  ---------------------------------------------------
  free energy    TOTEN  =       -71.23145526 eV

  energy without entropy =      -71.22852363  energy(sigma->0) =      -71.22998944


--------------------------------------------------------------------------------------------------------




--------------------------------------- Iteration      1(  14)  ---------------------------------------


    POTLOK:  cpu time    0.0086: real time    0.0087
    SETDIJ:  cpu time    0.0020: real time    0.0020
    EDDIAG:  cpu time    0.1608: real time    0.1614
  RMM-DIIS:  cpu time    0.5806: real time    0.5828
    ORTHCH:  cpu time    0.0166: real time    0.0166
       DOS:  cpu time    0.0007: real time    0.0007
    CHARGE:  cpu time    0.0463: real time    0.0464
    MIXING:  cpu time    0.0008: real time    0.0008
    --------------------------------------------
      LOOP:  cpu time    0.8164: real time    0.8194

 eigenvalue-minimisations  :  1400
 total energy-change (2. order) :-0.3100828E-01  (-0.1232022E-02)
 number of electron      50.0000024 magnetization 
 augmentation part        3.9676894 magnetization 

 Broyden mixing:
  rms(total) = 0.39842E-01    rms(broyden)= 0.39821E-01
  rms(prec ) = 0.10212E+00
  weight for this iteration     100.00

 eigenvalues of (default mixing * dielectric matrix)
  average eigenvalue GAMMA=   1.3381
  2.7871  2.4287  0.9134  0.9134  0.4930  0.4930

 Free energy of the ion-electron system (eV)
  ---------------------------------------------------
  alpha Z        PSCENC =        63.80903988
  Ewald energy   TEWEN  =     14819.91245240
  -Hartree energ DENC   =    -17544.10841589
  -exchange      EXHF   =         0.00000000
  -V(xc)+E(xc)   XCENC  =      -162.99064595
  PAW double counting   =      3339.83347475    -2989.24891106
  entropy T*S    EENTRO =        -0.00335409
  eigenvalues    EBANDS =      -353.76302328
  atomic energy  EATOM  =      2755.29691970
  Solvation  Ediel_sol  =         0.00000000
  ---------------------------------------------------
  free energy    TOTEN  =       -71.26246354 eV

  energy without entropy =      -71.25910945  energy(sigma->0) =      -71.26078650


--------------------------------------------------------------------------------------------------------




--------------------------------------- Iteration      1(  15)  ---------------------------------------


    POTLOK:  cpu time    0.0089: real time    0.0090
    SETDIJ:  cpu time    0.0021: real time    0.0021
    EDDIAG:  cpu time    0.1781: real time    0.1787
  RMM-DIIS:  cpu time    0.7543: real time    0.7880
    ORTHCH:  cpu time    0.0186: real time    0.0187
       DOS:  cpu time    0.0007: real time    0.0007
    CHARGE:  cpu time    0.0466: real time    0.0467
    MIXING:  cpu time    0.0009: real time    0.0009
    --------------------------------------------
      LOOP:  cpu time    1.0101: real time    1.0448

 eigenvalue-minimisations  :  1400
 total energy-change (2. order) : 0.2867904E-01  (-0.2276632E-03)
 number of electron      50.0000024 magnetization 
 augmentation part        3.9659303 magnetization 

 Broyden mixing:
  rms(total) = 0.21754E-01    rms(broyden)= 0.21751E-01
  rms(prec ) = 0.46599E-01
  weight for this iteration     100.00

 eigenvalues of (default mixing * dielectric matrix)
  average eigenvalue GAMMA=   1.2817
  2.7346  2.4394  0.8654  0.8186  0.8186  0.6476  0.6476

 Free energy of the ion-electron system (eV)
  ---------------------------------------------------
  alpha Z        PSCENC =        63.80903988
  Ewald energy   TEWEN  =     14819.91245240
  -Hartree energ DENC   =    -17544.08672157
  -exchange      EXHF   =         0.00000000
  -V(xc)+E(xc)   XCENC  =      -162.97438897
  PAW double counting   =      3337.88182129    -2987.30288724
  entropy T*S    EENTRO =        -0.00212417
  eigenvalues    EBANDS =      -353.76789583
  atomic energy  EATOM  =      2755.29691970
  Solvation  Ediel_sol  =         0.00000000
  ---------------------------------------------------
  free energy    TOTEN  =       -71.23378451 eV

  energy without entropy =      -71.23166033  energy(sigma->0) =      -71.23272242


--------------------------------------------------------------------------------------------------------




--------------------------------------- Iteration      1(  16)  ---------------------------------------


    POTLOK:  cpu time    0.0089: real time    0.0090
    SETDIJ:  cpu time    0.0020: real time    0.0020
    EDDIAG:  cpu time    0.1795: real time    0.1803
  RMM-DIIS:  cpu time    0.6897: real time    0.6918
    ORTHCH:  cpu time    0.0166: real time    0.0166
       DOS:  cpu time    0.0007: real time    0.0007
    CHARGE:  cpu time    0.0445: real time    0.0446
    MIXING:  cpu time    0.0008: real time    0.0008
    --------------------------------------------
      LOOP:  cpu time    0.9426: real time    0.9459

 eigenvalue-minimisations  :  1400
 total energy-change (2. order) :-0.7261949E-03  (-0.1685534E-03)
 number of electron      50.0000024 magnetization 
 augmentation part        3.9696906 magnetization 

 Broyden mixing:
  rms(total) = 0.19400E-01    rms(broyden)= 0.19379E-01
  rms(prec ) = 0.50986E-01
  weight for this iteration     100.00

 eigenvalues of (default mixing * dielectric matrix)
  average eigenvalue GAMMA=   1.2349
  2.6373  2.4437  1.1989  0.9580  0.9580  0.5422  0.5706  0.5706

 Free energy of the ion-electron system (eV)
  ---------------------------------------------------
  alpha Z        PSCENC =        63.80903988
  Ewald energy   TEWEN  =     14819.91245240
  -Hartree energ DENC   =    -17543.45582463
  -exchange      EXHF   =         0.00000000
  -V(xc)+E(xc)   XCENC  =      -163.01144171
  PAW double counting   =      3337.03113068    -2986.44120436
  entropy T*S    EENTRO =        -0.00168359
  eigenvalues    EBANDS =      -354.37389907
  atomic energy  EATOM  =      2755.29691970
  Solvation  Ediel_sol  =         0.00000000
  ---------------------------------------------------
  free energy    TOTEN  =       -71.23451070 eV

  energy without entropy =      -71.23282711  energy(sigma->0) =      -71.23366890


--------------------------------------------------------------------------------------------------------




--------------------------------------- Iteration      1(  17)  ---------------------------------------


    POTLOK:  cpu time    0.0078: real time    0.0079
    SETDIJ:  cpu time    0.0019: real time    0.0019
    EDDIAG:  cpu time    0.1551: real time    0.1556
  RMM-DIIS:  cpu time    0.6982: real time    0.7007
    ORTHCH:  cpu time    0.0184: real time    0.0185
       DOS:  cpu time    0.0007: real time    0.0007
    CHARGE:  cpu time    0.0469: real time    0.0469
    MIXING:  cpu time    0.0009: real time    0.0009
    --------------------------------------------
      LOOP:  cpu time    0.9300: real time    0.9332

 eigenvalue-minimisations  :  1400
 total energy-change (2. order) : 0.3016502E-02  (-0.5789116E-04)
 number of electron      50.0000024 magnetization 
 augmentation part        3.9719858 magnetization 

 Broyden mixing:
  rms(total) = 0.68952E-02    rms(broyden)= 0.68807E-02
  rms(prec ) = 0.18253E-01
  weight for this iteration     100.00

 eigenvalues of (default mixing * dielectric matrix)
  average eigenvalue GAMMA=   1.3036
  2.8667  2.3302  2.0856  0.9838  0.9838  0.9077  0.5450  0.5450  0.4850

 Free energy of the ion-electron system (eV)
  ---------------------------------------------------
  alpha Z        PSCENC =        63.80903988
  Ewald energy   TEWEN  =     14819.91245240
  -Hartree energ DENC   =    -17543.13307548
  -exchange      EXHF   =         0.00000000
  -V(xc)+E(xc)   XCENC  =      -163.03030949
  PAW double counting   =      3336.66017546    -2986.06456157
  entropy T*S    EENTRO =        -0.00331365
  eigenvalues    EBANDS =      -354.67882145
  atomic energy  EATOM  =      2755.29691970
  Solvation  Ediel_sol  =         0.00000000
  ---------------------------------------------------
  free energy    TOTEN  =       -71.23149420 eV

  energy without entropy =      -71.22818055  energy(sigma->0) =      -71.22983737


--------------------------------------------------------------------------------------------------------




--------------------------------------- Iteration      1(  18)  ---------------------------------------


    POTLOK:  cpu time    0.0088: real time    0.0090
    SETDIJ:  cpu time    0.0021: real time    0.0021
    EDDIAG:  cpu time    0.1800: real time    0.1806
  RMM-DIIS:  cpu time    0.5668: real time    0.5696
    ORTHCH:  cpu time    0.0240: real time    0.0240
       DOS:  cpu time    0.0007: real time    0.0014
    CHARGE:  cpu time    0.0485: real time    0.0486
    MIXING:  cpu time    0.0013: real time    0.0013
    --------------------------------------------
      LOOP:  cpu time    0.8321: real time    0.8365

 eigenvalue-minimisations  :   958
 total energy-change (2. order) : 0.2613474E-03  (-0.2348093E-05)
 number of electron      50.0000024 magnetization 
 augmentation part        3.9718175 magnetization 

 Broyden mixing:
  rms(total) = 0.23215E-02    rms(broyden)= 0.23213E-02
  rms(prec ) = 0.59962E-02
  weight for this iteration     100.00

 eigenvalues of (default mixing * dielectric matrix)
  average eigenvalue GAMMA=   1.3168
  2.9307  2.3889  2.3889  1.0327  1.0327  0.9136  0.8979  0.5423  0.5423  0.4977

 Free energy of the ion-electron system (eV)
  ---------------------------------------------------
  alpha Z        PSCENC =        63.80903988
  Ewald energy   TEWEN  =     14819.91245240
  -Hartree energ DENC   =    -17543.17879717
  -exchange      EXHF   =         0.00000000
  -V(xc)+E(xc)   XCENC  =      -163.02470995
  PAW double counting   =      3336.73479678    -2986.14038145
  entropy T*S    EENTRO =        -0.00354030
  eigenvalues    EBANDS =      -354.63701274
  atomic energy  EATOM  =      2755.29691970
  Solvation  Ediel_sol  =         0.00000000
  ---------------------------------------------------
  free energy    TOTEN  =       -71.23123285 eV

  energy without entropy =      -71.22769255  energy(sigma->0) =      -71.22946270


--------------------------------------------------------------------------------------------------------




--------------------------------------- Iteration      1(  19)  ---------------------------------------


    POTLOK:  cpu time    0.0113: real time    0.0126
    SETDIJ:  cpu time    0.0036: real time    0.0036
    EDDIAG:  cpu time    0.2133: real time    0.2145
  RMM-DIIS:  cpu time    0.4696: real time    0.4708
    ORTHCH:  cpu time    0.0161: real time    0.0162
       DOS:  cpu time    0.0007: real time    0.0007
    CHARGE:  cpu time    0.0451: real time    0.0454
    MIXING:  cpu time    0.0009: real time    0.0009
    --------------------------------------------
      LOOP:  cpu time    0.7606: real time    0.7646

 eigenvalue-minimisations  :   953
 total energy-change (2. order) :-0.4840369E-04  (-0.2205839E-05)
 number of electron      50.0000024 magnetization 
 augmentation part        3.9715021 magnetization 

 Broyden mixing:
  rms(total) = 0.33748E-02    rms(broyden)= 0.33720E-02
  rms(prec ) = 0.90983E-02
  weight for this iteration     100.00

 eigenvalues of (default mixing * dielectric matrix)
  average eigenvalue GAMMA=   1.3888
  3.0361  2.6670  2.3618  1.5764  0.5392  0.5392  1.1175  1.1175  0.9690  0.8510
  0.5025

 Free energy of the ion-electron system (eV)
  ---------------------------------------------------
  alpha Z        PSCENC =        63.80903988
  Ewald energy   TEWEN  =     14819.91245240
  -Hartree energ DENC   =    -17543.20839350
  -exchange      EXHF   =         0.00000000
  -V(xc)+E(xc)   XCENC  =      -163.02184371
  PAW double counting   =      3336.87314628    -2986.27942720
  entropy T*S    EENTRO =        -0.00350381
  eigenvalues    EBANDS =      -354.60967129
  atomic energy  EATOM  =      2755.29691970
  Solvation  Ediel_sol  =         0.00000000
  ---------------------------------------------------
  free energy    TOTEN  =       -71.23128126 eV

  energy without entropy =      -71.22777744  energy(sigma->0) =      -71.22952935


--------------------------------------------------------------------------------------------------------




--------------------------------------- Iteration      1(  20)  ---------------------------------------


    POTLOK:  cpu time    0.0079: real time    0.0080
    SETDIJ:  cpu time    0.0019: real time    0.0019
    EDDIAG:  cpu time    0.1570: real time    0.1575
  RMM-DIIS:  cpu time    0.5635: real time    0.5658
    ORTHCH:  cpu time    0.0175: real time    0.0175
       DOS:  cpu time    0.0007: real time    0.0008
    CHARGE:  cpu time    0.0468: real time    0.0469
    MIXING:  cpu time    0.0011: real time    0.0011
    --------------------------------------------
      LOOP:  cpu time    0.7965: real time    0.7995

 eigenvalue-minimisations  :   872
 total energy-change (2. order) : 0.6953170E-04  (-0.4044890E-06)
 number of electron      50.0000024 magnetization 
 augmentation part        3.9716030 magnetization 

 Broyden mixing:
  rms(total) = 0.44991E-03    rms(broyden)= 0.44549E-03
  rms(prec ) = 0.11661E-02
  weight for this iteration     100.00

 eigenvalues of (default mixing * dielectric matrix)
  average eigenvalue GAMMA=   1.4156
  3.0311  3.0311  2.3819  2.0052  0.5386  0.5386  1.0727  1.0727  0.9433  0.9433
  0.9250  0.5039

 Free energy of the ion-electron system (eV)
  ---------------------------------------------------
  alpha Z        PSCENC =        63.80903988
  Ewald energy   TEWEN  =     14819.91245240
  -Hartree energ DENC   =    -17543.17326818
  -exchange      EXHF   =         0.00000000
  -V(xc)+E(xc)   XCENC  =      -163.02379195
  PAW double counting   =      3336.83592271    -2986.24161780
  entropy T*S    EENTRO =        -0.00356619
  eigenvalues    EBANDS =      -354.64330230
  atomic energy  EATOM  =      2755.29691970
  Solvation  Ediel_sol  =         0.00000000
  ---------------------------------------------------
  free energy    TOTEN  =       -71.23121172 eV

  energy without entropy =      -71.22764553  energy(sigma->0) =      -71.22942863


--------------------------------------------------------------------------------------------------------




--------------------------------------- Iteration      1(  21)  ---------------------------------------


    POTLOK:  cpu time    0.0089: real time    0.0090
    SETDIJ:  cpu time    0.0022: real time    0.0022
    EDDIAG:  cpu time    0.1790: real time    0.1799
  RMM-DIIS:  cpu time    0.4673: real time    0.4713
    ORTHCH:  cpu time    0.0183: real time    0.0192
       DOS:  cpu time    0.0007: real time    0.0007
    --------------------------------------------
      LOOP:  cpu time    0.6773: real time    0.6823

 eigenvalue-minimisations  :   743
 total energy-change (2. order) :-0.2235581E-05  (-0.1065055E-06)
 number of electron      50.0000024 magnetization 
 augmentation part        3.9716030 magnetization 

 Free energy of the ion-electron system (eV)
  ---------------------------------------------------
  alpha Z        PSCENC =        63.80903988
  Ewald energy   TEWEN  =     14819.91245240
  -Hartree energ DENC   =    -17543.16653968
  -exchange      EXHF   =         0.00000000
  -V(xc)+E(xc)   XCENC  =      -163.02422206
  PAW double counting   =      3336.85189723    -2986.25740799
  entropy T*S    EENTRO =        -0.00356589
  eigenvalues    EBANDS =      -354.64978754
  atomic energy  EATOM  =      2755.29691970
  Solvation  Ediel_sol  =         0.00000000
  ---------------------------------------------------
  free energy    TOTEN  =       -71.23121396 eV

  energy without entropy =      -71.22764806  energy(sigma->0) =      -71.22943101


--------------------------------------------------------------------------------------------------------




 average (electrostatic) potential at core
  the test charge radii are     1.0714  0.7215
  (the norm of the test charge is              1.0000)
       1 -40.4069       2 -40.2629       3 -40.2198       4 -40.2218       5 -40.4048
       6 -40.2226       7 -40.2615       8 -74.6910       9 -74.6899      10 -74.7884
      11 -74.6836      12 -74.6839      13 -74.7867
 
 
 
 E-fermi :   2.0625     XC(G=0):  -6.7945     alpha+bet : -7.0861


 k-point     1 :       0.0625    0.0625    0.0000
  band No.  band energies     occupation 
      1     -18.9113      2.00000
      2     -18.7946      2.00000
      3     -18.5899      2.00000
      4     -18.3308      2.00000
      5     -18.0696      2.00000
      6     -17.8677      2.00000
      7      -6.1611      2.00000
      8      -5.8206      2.00000
      9      -5.2370      2.00000
     10      -4.4760      2.00000
     11      -3.6564      2.00000
     12      -3.0241      2.00000
     13      -2.9129      2.00000
     14      -2.8623      2.00000
     15      -2.6726      2.00000
     16      -2.6622      2.00000
     17      -2.6098      2.00000
     18      -2.5460      2.00000
     19      -2.4558      2.00000
     20      -2.3895      2.00000
     21      -2.3017      2.00000
     22      -2.1620      2.00000
     23      -2.1540      2.00000
     24      -2.0591      2.00000
     25      -0.1352      2.00000
     26      -0.1222      2.00000
     27       3.4882      0.00000
     28       4.0671      0.00000
     29       4.6638      0.00000
     30       5.2496      0.00000
     31       5.8078      0.00000
     32       6.2275      0.00000
     33       6.3904      0.00000
     34       6.5586      0.00000
     35       8.3277      0.00000

 k-point     2 :       0.1875    0.0625    0.0000
  band No.  band energies     occupation 
      1     -18.6021      2.00000
      2     -18.5081      2.00000
      3     -18.3383      2.00000
      4     -18.1231      2.00000
      5     -17.9076      2.00000
      6     -17.7418      2.00000
      7      -5.7080      2.00000
      8      -5.4868      2.00000
      9      -5.1513      2.00000
     10      -4.7803      2.00000
     11      -4.4381      2.00000
     12      -4.1729      2.00000
     13      -3.9701      2.00000
     14      -3.8249      2.00000
     15      -3.5012      2.00000
     16      -3.0842      2.00000
     17      -2.8634      2.00000
     18      -2.8185      2.00000
     19      -2.7034      2.00000
     20      -2.6405      2.00000
     21      -2.5455      2.00000
     22      -2.4451      2.00000
     23      -2.3356      2.00000
     24      -2.2631      2.00000
     25       0.5288      2.00000
     26       0.5311      2.00000
     27       4.7988      0.00000
     28       5.2249      0.00000
     29       5.6857      0.00000
     30       6.1402      0.00000
     31       6.6975      0.00000
     32       7.3003      0.00000
     33       7.4238      0.00000
     34       7.6321      0.00000
     35       9.5100      0.00000

 k-point     3 :       0.3125    0.0625    0.0000
  band No.  band energies     occupation 
      1     -18.1764      2.00000
      2     -18.1218      2.00000
      3     -18.0103      2.00000
      4     -17.8676      2.00000
      5     -17.7250      2.00000
      6     -17.6152      2.00000
      7      -5.7367      2.00000
      8      -5.5619      2.00000
      9      -5.5318      2.00000
     10      -5.3573      2.00000
     11      -5.2187      2.00000
     12      -5.1020      2.00000
     13      -4.7376      2.00000
     14      -4.2017      2.00000
     15      -3.6328      2.00000
     16      -3.1873      2.00000
     17      -3.1426      2.00000
     18      -3.1010      2.00000
     19      -3.0195      2.00000
     20      -2.9339      2.00000
     21      -2.7657      2.00000
     22      -2.7346      2.00000
     23      -2.5730      2.00000
     24      -2.4955      2.00000
     25       1.6510      2.00000
     26       1.6532      2.00000
     27       5.8091      0.00000
     28       6.0710      0.00000
     29       6.4471      0.00000
     30       6.8720      0.00000
     31       7.2256      0.00000
     32       7.6435      0.00000
     33       7.9401      0.00000
     34       8.1574      0.00000
     35       8.3326      0.00000

 k-point     4 :       0.4375    0.0625    0.0000
  band No.  band energies     occupation 
      1     -17.8590      2.00000
      2     -17.8491      2.00000
      3     -17.7928      2.00000
      4     -17.7256      2.00000
      5     -17.6552      2.00000
      6     -17.5979      2.00000
      7      -6.2939      2.00000
      8      -6.0995      2.00000
      9      -5.8323      2.00000
     10      -5.8043      2.00000
     11      -5.6477      2.00000
     12      -5.6073      2.00000
     13      -4.0261      2.00000
     14      -3.7926      2.00000
     15      -3.6311      2.00000
     16      -3.3756      2.00000
     17      -3.3323      2.00000
     18      -3.3137      2.00000
     19      -3.2058      2.00000
     20      -3.1095      2.00000
     21      -2.9088      2.00000
     22      -2.8751      2.00000
     23      -2.6843      2.00000
     24      -2.6642      2.00000
     25       3.1023      0.00000
     26       3.1054      0.00000
     27       4.7377      0.00000
     28       4.7434      0.00000
     29       6.2744      0.00000
     30       6.9834      0.00000
     31       7.4610      0.00000
     32       7.6562      0.00000
     33       7.7428      0.00000
     34       7.9255      0.00000
     35       8.0545      0.00000

 k-point     5 :      -0.4375    0.0625   -0.0000
  band No.  band energies     occupation 
      1     -17.9848      2.00000
      2     -17.9543      2.00000
      3     -17.8755      2.00000
      4     -17.7734      2.00000
      5     -17.6710      2.00000
      6     -17.5913      2.00000
      7      -6.0940      2.00000
      8      -5.9027      2.00000
      9      -5.7019      2.00000
     10      -5.6452      2.00000
     11      -5.5052      2.00000
     12      -5.4320      2.00000
     13      -4.3914      2.00000
     14      -4.0020      2.00000
     15      -3.5492      2.00000
     16      -3.2818      2.00000
     17      -3.2533      2.00000
     18      -3.2172      2.00000
     19      -3.1562      2.00000
     20      -3.0513      2.00000
     21      -2.8563      2.00000
     22      -2.8269      2.00000
     23      -2.6521      2.00000
     24      -2.5977      2.00000
     25       2.3804      0.00000
     26       2.3826      0.00000
     27       5.5107      0.00000
     28       5.5406      0.00000
     29       6.2743      0.00000
     30       6.9453      0.00000
     31       7.5304      0.00000
     32       7.6635      0.00000
     33       7.8517      0.00000
     34       7.9328      0.00000
     35       8.1433      0.00000

 k-point     6 :      -0.3125    0.0625    0.0000
  band No.  band energies     occupation 
      1     -18.3925      2.00000
      2     -18.3162      2.00000
      3     -18.1731      2.00000
      4     -17.9913      2.00000
      5     -17.8099      2.00000
      6     -17.6705      2.00000
      7      -5.4890      2.00000
      8      -5.3834      2.00000
      9      -5.2945      2.00000
     10      -5.0956      2.00000
     11      -4.8627      2.00000
     12      -4.7408      2.00000
     13      -4.5715      2.00000
     14      -4.1764      2.00000
     15      -3.6583      2.00000
     16      -3.1478      2.00000
     17      -3.0160      2.00000
     18      -2.9729      2.00000
     19      -2.8515      2.00000
     20      -2.7757      2.00000
     21      -2.6681      2.00000
     22      -2.6024      2.00000
     23      -2.4602      2.00000
     24      -2.3770      2.00000
     25       1.0289      2.00000
     26       1.0310      2.00000
     27       5.4330      0.00000
     28       5.8126      0.00000
     29       6.2348      0.00000
     30       6.5775      0.00000
     31       7.0429      0.00000
     32       7.7070      0.00000
     33       7.9957      0.00000
     34       8.1422      0.00000
     35       8.8485      0.00000

 k-point     7 :      -0.1875    0.0625   -0.0000
  band No.  band energies     occupation 
      1     -18.7813      2.00000
      2     -18.6736      2.00000
      3     -18.4831      2.00000
      4     -18.2420      2.00000
      5     -17.9995      2.00000
      6     -17.8125      2.00000
      7      -5.9681      2.00000
      8      -5.6678      2.00000
      9      -5.1712      2.00000
     10      -4.5635      2.00000
     11      -3.9779      2.00000
     12      -3.5615      2.00000
     13      -3.3573      2.00000
     14      -3.3107      2.00000
     15      -3.1576      2.00000
     16      -2.9133      2.00000
     17      -2.7202      2.00000
     18      -2.6653      2.00000
     19      -2.5921      2.00000
     20      -2.5106      2.00000
     21      -2.4063      2.00000
     22      -2.2832      2.00000
     23      -2.2290      2.00000
     24      -2.1598      2.00000
     25       0.1449      2.00000
     26       0.1485      2.00000
     27       4.1004      0.00000
     28       4.5984      0.00000
     29       5.1300      0.00000
     30       5.6690      0.00000
     31       6.2346      0.00000
     32       6.7452      0.00000
     33       6.8335      0.00000
     34       7.0137      0.00000
     35       9.9296      0.00000

 k-point     8 :      -0.0625    0.0625    0.0000
  band No.  band energies     occupation 
      1     -18.9791      2.00000
      2     -18.8580      2.00000
      3     -18.6461      2.00000
      4     -18.3781      2.00000
      5     -18.1074      2.00000
      6     -17.8980      2.00000
      7      -6.2620      2.00000
      8      -5.9045      2.00000
      9      -5.2831      2.00000
     10      -4.4541      2.00000
     11      -3.5143      2.00000
     12      -2.7044      2.00000
     13      -2.6558      2.00000
     14      -2.6024      2.00000
     15      -2.5659      2.00000
     16      -2.5121      2.00000
     17      -2.4656      2.00000
     18      -2.4002      2.00000
     19      -2.3364      2.00000
     20      -2.2540      2.00000
     21      -2.1858      2.00000
     22      -2.1143      2.00000
     23      -2.1061      2.00000
     24      -1.9915      2.00000
     25      -0.3016      2.00000
     26      -0.2722      2.00000
     27       3.1159      0.00000
     28       3.7538      0.00000
     29       4.3892      0.00000
     30       4.9943      0.00000
     31       5.5409      0.00000
     32       5.9061      0.00000
     33       6.1656      0.00000
     34       6.3364      0.00000
     35       7.4249      0.00000

 k-point     9 :       0.1875    0.1875    0.0000
  band No.  band energies     occupation 
      1     -18.2538      2.00000
      2     -18.1900      2.00000
      3     -18.0656      2.00000
      4     -17.9067      2.00000
      5     -17.7482      2.00000
      6     -17.6265      2.00000
      7      -5.4003      2.00000
      8      -5.3650      2.00000
      9      -5.2948      2.00000
     10      -5.1717      2.00000
     11      -4.9594      2.00000
     12      -4.8624      2.00000
     13      -4.7774      2.00000
     14      -4.2153      2.00000
     15      -3.7414      2.00000
     16      -3.3190      2.00000
     17      -3.3113      2.00000
     18      -3.1826      2.00000
     19      -3.1118      2.00000
     20      -3.0265      2.00000
     21      -2.9259      2.00000
     22      -2.8903      2.00000
[...]
     10      -4.5364      2.00000
     11      -4.0644      2.00000
     12      -3.7095      2.00000
     13      -3.4595      2.00000
     14      -3.3734      2.00000
     15      -3.1704      2.00000
     16      -2.8324      2.00000
     17      -2.7535      2.00000
     18      -2.5545      2.00000
     19      -2.4547      2.00000
     20      -2.4357      2.00000
     21      -2.2958      2.00000
     22      -2.1420      2.00000
     23      -2.1189      2.00000
     24      -1.9740      2.00000
     25       0.1711      2.00000
     26       0.1875      2.00000
     27       4.4496      0.00000
     28       4.8851      0.00000
     29       5.3311      0.00000
     30       5.8508      0.00000
     31       6.4334      0.00000
     32       6.9750      0.00000
     33       7.0145      0.00000
     34       7.2977      0.00000
     35       7.8837      0.00000

 k-point    15 :       0.3125    0.3125    0.0000
  band No.  band energies     occupation 
      1     -17.7888      2.00000
      2     -17.6155      2.00000
      3     -17.5142      2.00000
      4     -17.4281      2.00000
      5     -17.4101      2.00000
      6     -17.3653      2.00000
      7      -5.4295      2.00000
      8      -5.3596      2.00000
      9      -5.1763      2.00000
     10      -5.1101      2.00000
     11      -5.0569      2.00000
     12      -4.8743      2.00000
     13      -4.8076      2.00000
     14      -4.5832      2.00000
     15      -4.5263      2.00000
     16      -4.4172      2.00000
     17      -4.1929      2.00000
     18      -4.1110      2.00000
     19      -3.4458      2.00000
     20      -3.1772      2.00000
     21      -3.0486      2.00000
     22      -2.8868      2.00000
     23      -2.8301      2.00000
     24      -2.7267      2.00000
     25       4.0486      0.00000
     26       4.0724      0.00000
     27       5.6837      0.00000
     28       5.7259      0.00000
     29       6.5116      0.00000
     30       6.5268      0.00000
     31       8.2300      0.00000
     32       8.3436      0.00000
     33       8.4363      0.00000
     34       8.7023      0.00000
     35       9.2053      0.00000

 k-point    16 :       0.4375    0.3125    0.0000
  band No.  band energies     occupation 
      1     -17.8373      2.00000
      2     -17.6599      2.00000
      3     -17.5534      2.00000
      4     -17.4939      2.00000
      5     -17.4338      2.00000
      6     -17.3525      2.00000
      7      -5.6526      2.00000
      8      -5.4684      2.00000
      9      -5.3733      2.00000
     10      -5.2409      2.00000
     11      -5.1298      2.00000
     12      -4.9006      2.00000
     13      -4.6093      2.00000
     14      -4.3995      2.00000
     15      -4.1963      2.00000
     16      -4.0715      2.00000
     17      -3.8983      2.00000
     18      -3.7312      2.00000
     19      -3.5072      2.00000
     20      -3.2699      2.00000
     21      -3.0677      2.00000
     22      -2.9112      2.00000
     23      -2.7837      2.00000
     24      -2.6000      2.00000
     25       3.4198      0.00000
     26       3.4254      0.00000
     27       5.7855      0.00000
     28       5.7878      0.00000
     29       7.2844      0.00000
     30       7.3192      0.00000
     31       7.7870      0.00000
     32       8.0950      0.00000
     33       8.2606      0.00000
     34       8.6625      0.00000
     35       9.0870      0.00000

 k-point    17 :      -0.4375    0.3125   -0.0000
  band No.  band energies     occupation 
      1     -18.0426      2.00000
      2     -17.8520      2.00000
      3     -17.7465      2.00000
      4     -17.6495      2.00000
      5     -17.5270      2.00000
      6     -17.3877      2.00000
      7      -5.7756      2.00000
      8      -5.5478      2.00000
      9      -5.4664      2.00000
     10      -5.3104      2.00000
     11      -5.1753      2.00000
     12      -5.0572      2.00000
     13      -4.4672      2.00000
     14      -4.0098      2.00000
     15      -3.5229      2.00000
     16      -3.4559      2.00000
     17      -3.2499      2.00000
     18      -3.1530      2.00000
     19      -3.0821      2.00000
     20      -3.0146      2.00000
     21      -2.8726      2.00000
     22      -2.7338      2.00000
     23      -2.6162      2.00000
     24      -2.3881      2.00000
     25       2.0546      0.00308
     26       2.0593      0.00198
     27       6.0159      0.00000
     28       6.1191      0.00000
     29       6.6600      0.00000
     30       7.2002      0.00000
     31       7.6266      0.00000
     32       7.8605      0.00000
     33       8.1629      0.00000
     34       8.3480      0.00000
     35       8.6353      0.00000

 k-point    18 :      -0.3125    0.3125    0.0000
  band No.  band energies     occupation 
      1     -18.2783      2.00000
      2     -18.0795      2.00000
      3     -17.9564      2.00000
      4     -17.8010      2.00000
      5     -17.6349      2.00000
      6     -17.4561      2.00000
      7      -5.4800      2.00000
      8      -5.4020      2.00000
      9      -5.2189      2.00000
     10      -5.1171      2.00000
     11      -4.9195      2.00000
     12      -4.8004      2.00000
     13      -4.5947      2.00000
     14      -4.1269      2.00000
     15      -3.5472      2.00000
     16      -3.0249      2.00000
     17      -3.0122      2.00000
     18      -2.8123      2.00000
     19      -2.6915      2.00000
     20      -2.6908      2.00000
     21      -2.5461      2.00000
     22      -2.3879      2.00000
     23      -2.3618      2.00000
     24      -2.2160      2.00000
     25       1.1627      2.00000
     26       1.1655      2.00000
     27       5.6480      0.00000
     28       5.9944      0.00000
     29       6.3621      0.00000
     30       6.7144      0.00000
     31       7.1363      0.00000
     32       7.6867      0.00000
     33       7.9140      0.00000
     34       8.0671      0.00000
     35       8.3657      0.00000

 k-point    19 :       0.4375    0.4375    0.0000
  band No.  band energies     occupation 
      1     -17.8703      2.00000
      2     -17.6929      2.00000
      3     -17.5859      2.00000
      4     -17.5277      2.00000
      5     -17.4664      2.00000
      6     -17.3800      2.00000
      7      -6.1248      2.00000
      8      -5.8733      2.00000
      9      -5.6836      2.00000
     10      -5.5709      2.00000
     11      -5.4080      2.00000
     12      -5.3315      2.00000
     13      -3.9512      2.00000
     14      -3.7855      2.00000
     15      -3.6299      2.00000
     16      -3.5915      2.00000
     17      -3.4332      2.00000
     18      -3.2638      2.00000
     19      -3.2257      2.00000
     20      -3.1280      2.00000
     21      -2.9496      2.00000
     22      -2.8956      2.00000
     23      -2.6662      2.00000
     24      -2.5240      2.00000
     25       3.3356      0.00000
     26       3.3627      0.00000
     27       4.6127      0.00000
     28       4.6358      0.00000
     29       6.7555      0.00000
     30       7.4154      0.00000
     31       7.7936      0.00000
     32       7.9935      0.00000
     33       8.2264      0.00000
     34       8.2990      0.00000
     35       8.5214      0.00000

 k-point    20 :      -0.4375    0.4375    0.0000
  band No.  band energies     occupation 
      1     -17.9537      2.00000
      2     -17.7702      2.00000
      3     -17.6637      2.00000
      4     -17.5996      2.00000
      5     -17.5045      2.00000
      6     -17.3918      2.00000
      7      -6.1764      2.00000
      8      -5.9234      2.00000
      9      -5.7470      2.00000
     10      -5.6266      2.00000
     11      -5.4585      2.00000
     12      -5.3702      2.00000
     13      -4.1174      2.00000
     14      -3.7649      2.00000
     15      -3.4326      2.00000
     16      -3.1834      2.00000
     17      -3.1663      2.00000
     18      -3.0328      2.00000
     19      -2.9832      2.00000
     20      -2.8614      2.00000
     21      -2.7136      2.00000
     22      -2.5667      2.00000
     23      -2.5533      2.00000
     24      -2.3794      2.00000
     25       2.5962      0.00000
     26       2.6055      0.00000
     27       4.9457      0.00000
     28       4.9749      0.00000
     29       6.2668      0.00000
     30       6.9666      0.00000
     31       7.4683      0.00000
     32       7.6110      0.00000
     33       7.7276      0.00000
     34       7.9827      0.00000
     35       8.0367      0.00000


--------------------------------------------------------------------------------------------------------


 soft charge-density along one line, spin component           1
         0         1         2         3         4         5         6         7         8         9
 total charge-density along one line
 
 pseudopotential strength for first ion, spin component:           1
  3.004   9.647  -0.002  -0.002  -0.002  -0.004  -0.004  -0.004
  9.647  30.781  -0.008  -0.008  -0.008  -0.012  -0.012  -0.012
 -0.002  -0.008   6.995  -0.001  -0.001  10.403  -0.001  -0.001
 -0.002  -0.008  -0.001   6.995  -0.001  -0.001  10.403  -0.001
 -0.002  -0.008  -0.001  -0.001   6.995  -0.001  -0.001  10.403
 -0.004  -0.012  10.403  -0.001  -0.001  14.579  -0.001  -0.001
 -0.004  -0.012  -0.001  10.403  -0.001  -0.001  14.579  -0.001
 -0.004  -0.012  -0.001  -0.001  10.403  -0.001  -0.001  14.579
 -0.000  -0.001  -0.001  -0.000  -0.001  -0.002  -0.000  -0.002
 -0.000  -0.001  -0.001  -0.001  -0.000  -0.002  -0.002  -0.000
 -0.000  -0.000   0.002  -0.004   0.002   0.002  -0.005   0.002
 -0.000  -0.001  -0.000  -0.001  -0.001  -0.000  -0.002  -0.002
 -0.000  -0.000   0.003  -0.000  -0.003   0.004  -0.000  -0.004
 total augmentation occupancy for first ion, spin component:           1
  1.167  -0.027  -0.007  -0.007  -0.007  -0.004  -0.004  -0.004  -0.014  -0.014   0.000  -0.014   0.000
 -0.027   0.001  -0.003  -0.003  -0.003   0.000   0.000   0.000   0.000   0.000  -0.000   0.000  -0.000
 -0.007  -0.003   0.086   0.003   0.003  -0.007   0.000   0.000   0.004   0.004  -0.010   0.002  -0.017
 -0.007  -0.003   0.003   0.086   0.003   0.000  -0.007   0.000   0.002   0.004   0.020   0.004  -0.000
 -0.007  -0.003   0.003   0.003   0.086   0.000   0.000  -0.007   0.004   0.002  -0.010   0.004   0.017
 -0.004   0.000  -0.007   0.000   0.000   0.001  -0.000  -0.000  -0.000  -0.000   0.001  -0.000   0.002
 -0.004   0.000   0.000  -0.007   0.000  -0.000   0.001  -0.000  -0.000  -0.000  -0.002  -0.000   0.000
 -0.004   0.000   0.000   0.000  -0.007  -0.000  -0.000   0.001  -0.000  -0.000   0.001  -0.000  -0.002
 -0.014   0.000   0.004   0.002   0.004  -0.000  -0.000  -0.000   0.007  -0.000   0.000  -0.000   0.000
 -0.014   0.000   0.004   0.004   0.002  -0.000  -0.000  -0.000  -0.000   0.007  -0.000  -0.000   0.000
  0.000  -0.000  -0.010   0.020  -0.010   0.001  -0.002   0.001   0.000  -0.000   0.023  -0.000  -0.000
 -0.014   0.000   0.002   0.004   0.004  -0.000  -0.000  -0.000  -0.000  -0.000  -0.000   0.007  -0.000
  0.000  -0.000  -0.017  -0.000   0.017   0.002   0.000  -0.002   0.000   0.000  -0.000  -0.000   0.023


------------------------ aborting loop because EDIFF is reached ----------------------------------------


    CHARGE:  cpu time    0.0452: real time    0.0452
    FORLOC:  cpu time    0.0014: real time    0.0014
    FORNL :  cpu time    0.2048: real time    0.2050
    STRESS:  cpu time    0.6478: real time    0.6501
    FORCOR:  cpu time    0.0094: real time    0.0094
    FORHAR:  cpu time    0.0032: real time    0.0032
    MIXING:  cpu time    0.0005: real time    0.0005
    OFIELD:  cpu time    0.0000: real time    0.0000

  FORCE on cell =-STRESS in cart. coord.  units (eV):
  Direction    XX          YY          ZZ          XY          YZ          ZX
  --------------------------------------------------------------------------------------
  Alpha Z    63.80904    63.80904    63.80904
  Ewald    4934.84111  4934.83067  4934.83045-11304.90612-11304.91146-11304.90607
  Hartree  5844.57407  5844.56353  5844.56360-11115.36176-11115.36701-11115.36176
  E(xc)    -222.16610  -222.16613  -222.16610     0.00997     0.00996     0.00998
  Local  -11411.44397-11411.42244-11411.42284 22419.31682 22419.32758 22419.31723
  n-local  -101.78355  -105.29609  -108.92985    -1.70216     1.16916    -0.27087
  augment    40.80063    40.80064    40.80063     0.00879     0.00877     0.00880
  Kinetic   846.79932   854.63306   863.15298    10.48464    -7.99850     0.98993
  Fock        0.00000     0.00000     0.00000     0.00000     0.00000     0.00000
  -------------------------------------------------------------------------------------
  Total      -0.05976    -0.05976    -0.05976    -0.04136    -0.04136    -0.04136
  in kB      -0.41214    -0.41214    -0.41214    -0.28525    -0.28525    -0.28525
  external pressure =       -0.41 kB  Pullay stress =        0.00 kB


 VOLUME and BASIS-vectors are now :
 -----------------------------------------------------------------------------
  energy-cutoff  :      450.00
  volume of cell :      232.31
      direct lattice vectors                 reciprocal lattice vectors
     2.124436000 -2.124435000  0.000000000     0.313808828 -0.156904414 -0.156904414
     0.000000000  2.124436000 -2.124436000     0.156904340  0.156904414 -0.313808754
    17.157996000 17.157996000 17.157996000     0.019427282  0.019427291  0.019427291

  length of vectors
     3.004405496  3.004406204 29.718520828     0.384335753  0.384335662  0.033649050


 FORCES acting on ions
    electron-ion (+dipol)            ewald-force                    non-local-force                 convergence-correction
 -----------------------------------------------------------------------------------------------
   0.299E+03 0.299E+03 0.299E+03   -.299E+03 -.299E+03 -.299E+03   -.381E+00 -.381E+00 -.381E+00   -.117E-02 -.117E-02 -.117E-02
   0.207E+03 0.207E+03 0.207E+03   -.207E+03 -.207E+03 -.207E+03   0.101E-02 0.101E-02 0.101E-02   -.858E-03 -.858E-03 -.858E-03
   -.130E-01 -.130E-01 -.130E-01   -.462E-01 -.462E-01 -.462E-01   0.107E-01 0.107E-01 0.107E-01   -.152E-02 -.152E-02 -.152E-02
   -.104E+03 -.104E+03 -.104E+03   0.103E+03 0.103E+03 0.103E+03   0.152E-01 0.152E-01 0.152E-01   -.232E-02 -.232E-02 -.232E-02
   -.300E+03 -.300E+03 -.300E+03   0.300E+03 0.300E+03 0.300E+03   0.541E+00 0.541E+00 0.541E+00   -.513E-03 -.513E-03 -.513E-03
   0.104E+03 0.104E+03 0.104E+03   -.104E+03 -.104E+03 -.104E+03   0.340E-01 0.340E-01 0.340E-01   -.844E-04 -.844E-04 -.844E-04
   -.207E+03 -.207E+03 -.207E+03   0.207E+03 0.207E+03 0.207E+03   0.318E-01 0.318E-01 0.318E-01   -.206E-02 -.206E-02 -.206E-02
   0.466E+03 0.466E+03 0.466E+03   -.466E+03 -.466E+03 -.466E+03   0.111E+00 0.111E+00 0.111E+00   -.145E-03 -.145E-03 -.145E-03
   -.466E+03 -.466E+03 -.466E+03   0.466E+03 0.466E+03 0.466E+03   0.121E+00 0.121E+00 0.121E+00   -.698E-02 -.698E-02 -.698E-02
   0.773E+03 0.773E+03 0.773E+03   -.774E+03 -.774E+03 -.774E+03   0.102E+01 0.102E+01 0.102E+01   -.481E-02 -.481E-02 -.481E-02
   -.155E+03 -.155E+03 -.155E+03   0.155E+03 0.155E+03 0.155E+03   0.148E+00 0.148E+00 0.148E+00   -.652E-02 -.652E-02 -.652E-02
   0.155E+03 0.155E+03 0.155E+03   -.155E+03 -.155E+03 -.155E+03   0.128E+00 0.128E+00 0.128E+00   -.189E-02 -.189E-02 -.189E-02
   -.773E+03 -.773E+03 -.773E+03   0.774E+03 0.774E+03 0.774E+03   -.125E+01 -.125E+01 -.125E+01   -.504E-02 -.504E-02 -.504E-02
 -----------------------------------------------------------------------------------------------
   -.496E+00 -.496E+00 -.496E+00   0.000E+00 0.114E-12 0.114E-12   0.531E+00 0.531E+00 0.531E+00   -.339E-01 -.339E-01 -.339E-01
 
 
 POSITION                                       TOTAL-FORCE (eV/Angst)
 -----------------------------------------------------------------------------------
      0.54965      0.54965      0.54965        -0.003289     -0.003289     -0.003289
      2.70083      2.70083      0.57639        -0.000165     -0.000165     -0.000165
      4.82622      4.82622      4.82622        -0.050081     -0.050081     -0.050081
      6.95065      6.95065      4.82622        -0.046650     -0.046650     -0.046650
      9.07509      9.07509      9.07509         0.264793      0.264793      0.264793
      4.82489      2.70045      2.70045        -0.004531     -0.004531     -0.004531
      9.07509      6.95065      6.95065        -0.093860     -0.093860     -0.093860
      2.70274      2.70274      2.70274         0.005019      0.005019      0.005019
      6.95065      6.95065      6.95065         0.045878      0.045878      0.045878
      2.70572      0.58129      0.58129         0.002148      0.002148      0.002148
      6.95065      4.82622      4.82622         0.042529      0.042529      0.042529
      4.82622      4.82622      2.70178         0.030764      0.030764      0.030764
      9.07509      9.07509      6.95065        -0.192556     -0.192556     -0.192556
 -----------------------------------------------------------------------------------
    total drift:                                0.000937      0.000931      0.000938


--------------------------------------------------------------------------------------------------------



  FREE ENERGIE OF THE ION-ELECTRON SYSTEM (eV)
  ---------------------------------------------------
  free  energy   TOTEN  =       -71.24450215 eV

  energy  without entropy=      -71.24095700  energy(sigma->0) =      -71.24272957
 
 d Force = 0.4782915E-05[-0.257E-05, 0.121E-04]  d Energy = 0.4906929E-05-0.124E-06
 d Force = 0.7891444E+00[ 0.789E+00, 0.789E+00]  d Ewald  = 0.7891444E+00-0.259E-08


--------------------------------------------------------------------------------------------------------


    POTLOK:  cpu time    0.0110: real time    0.0110


--------------------------------------------------------------------------------------------------------


 stress matrix after NEB project (eV)
     -0.05976     -0.04136     -0.04136
     -0.04136     -0.05976     -0.04136
     -0.04136     -0.04136     -0.05976
  FORCES: max atom, RMS     0.008692    0.003757
  FORCE total and by dimension    0.013546    0.005019
  Stress total and by dimension    0.144837    0.059760
 Conjugate gradient step on ions:
 trial-energy change:   -0.000005  1 .order   -0.000005   -0.000012    0.000003
  (g-gl).g = 0.120E-04      g.g   = 0.161E-04  gl.gl    = 0.416E-04
 g(Force)  = 0.161E-04   g(Stress)= 0.000E+00 ortho     =-0.308E-05
 gamma     =   0.28978
 trial     =   0.79961
 opt step  =   0.66004  (harmonic =   0.66004) maximal distance =0.00006760
 next E    =   -71.244502   (d E  =  -0.00001)


--------------------------------------------------------------------------------------------------------


  
 reached required accuracy - stopping structural energy minimisation
     LOOP+:  cpu time    9.8940: real time    9.9389
    4ORBIT:  cpu time    0.0000: real time    0.0000

 total amount of memory used by VASP MPI-rank0    38612. kBytes
=======================================================================

   base      :      30000. kBytes
   nonlr-proj:       1641. kBytes
   fftplans  :       1620. kBytes
   grid      :       2363. kBytes
   one-center:         32. kBytes
   wavefun   :       2956. kBytes
 
  
  
 General timing and accounting informations for this job:
 ========================================================
  
                  Total CPU time used (sec):      309.007
                            User time (sec):      308.085
                          System time (sec):        0.923
                         Elapsed time (sec):      310.979
  
                   Maximum memory used (kb):       73192.
                   Average memory used (kb):           0.
  
                          Minor page faults:        50615
                          Major page faults:            0
                 Voluntary context switches:          483
