  26  26   0   0
  0.2068449E+02  0.3010651E-09  0.3010650E-09  0.6851204E-08  0.5000000E-15
  1.000000000000000E-004
  CAR 
 unknown system                          
      8.94766696    -20.05692261  301      0.00084537      1.00000000
    -20.057  0.0000E+00  0.0000E+00
    -19.960  0.0000E+00  0.0000E+00
    -19.864  0.0000E+00  0.0000E+00
    -19.767  0.0000E+00  0.0000E+00
    -19.670  0.0000E+00  0.0000E+00
    -19.574  0.0000E+00  0.0000E+00
    -19.477  0.0000E+00  0.0000E+00
    -19.380  0.0000E+00  0.0000E+00
    -19.283  0.0000E+00  0.0000E+00
    -19.187  0.0000E+00  0.0000E+00
    -19.090  0.0000E+00  0.0000E+00
    -18.993  0.0000E+00  0.0000E+00
    -18.897  0.0000E+00  0.0000E+00
    -18.800  0.0000E+00  0.0000E+00
    -18.703  0.1151E+01  0.3399E-01
    -18.607  0.1183E+01  0.1431E+00
    -18.510  0.1295E+01  0.2624E+00
    -18.413  0.1448E+01  0.3944E+00
    -18.317  0.1673E+01  0.5440E+00
    -18.220  0.2017E+01  0.7199E+00
    -18.123  0.2627E+01  0.9394E+00
    -18.027  0.4160E+01  0.1253E+01
    -17.930  0.4943E+01  0.1832E+01
    -17.833  0.9465E+00  0.2086E+01
    -17.737  0.9434E+00  0.2176E+01
    -17.640  0.1894E+01  0.2327E+01
    -17.543  0.2088E+01  0.2520E+01
    -17.447  0.3196E+01  0.2791E+01
    -17.350  0.3512E+01  0.3115E+01
    -17.253  0.4950E+01  0.3548E+01
    -17.156  0.5503E+01  0.4050E+01
    -17.060  0.7616E+01  0.4718E+01
    -16.963  0.9373E+01  0.5527E+01
    -16.866  0.1303E+02  0.6746E+01
    -16.770  0.1522E+02  0.8093E+01
    -16.673  0.1779E+02  0.9599E+01
    -16.576  0.1534E+02  0.1110E+02
    -16.480  0.1530E+02  0.1252E+02
    -16.383  0.1326E+02  0.1394E+02
    -16.286  0.1057E+02  0.1519E+02
    -16.190  0.9837E+01  0.1624E+02
    -16.093  0.3814E+01  0.1692E+02
    -15.996  0.1246E+02  0.1749E+02
    -15.900  0.0000E+00  0.1800E+02
    -15.803  0.0000E+00  0.1800E+02
    -15.706  0.0000E+00  0.1800E+02
    -15.610  0.2158E+01  0.1816E+02
    -15.513  0.2613E+01  0.1839E+02
    -15.416  0.3598E+01  0.1868E+02
    -15.320  0.6952E+01  0.1914E+02
    -15.223  0.0000E+00  0.2000E+02
    -15.126  0.0000E+00  0.2000E+02
    -15.029  0.0000E+00  0.2000E+02
    -14.933  0.0000E+00  0.2000E+02
    -14.836  0.0000E+00  0.2000E+02
    -14.739  0.0000E+00  0.2000E+02
    -14.643  0.0000E+00  0.2000E+02
    -14.546  0.0000E+00  0.2000E+02
    -14.449  0.0000E+00  0.2000E+02
    -14.353  0.0000E+00  0.2000E+02
    -14.256  0.0000E+00  0.2000E+02
    -14.159  0.0000E+00  0.2000E+02
    -14.063  0.0000E+00  0.2000E+02
    -13.966  0.0000E+00  0.2000E+02
    -13.869  0.0000E+00  0.2000E+02
    -13.773  0.0000E+00  0.2000E+02
    -13.676  0.0000E+00  0.2000E+02
    -13.579  0.0000E+00  0.2000E+02
    -13.483  0.0000E+00  0.2000E+02
    -13.386  0.0000E+00  0.2000E+02
    -13.289  0.0000E+00  0.2000E+02
    -13.193  0.0000E+00  0.2000E+02
    -13.096  0.0000E+00  0.2000E+02
    -12.999  0.0000E+00  0.2000E+02
    -12.902  0.0000E+00  0.2000E+02
    -12.806  0.0000E+00  0.2000E+02
    -12.709  0.0000E+00  0.2000E+02
    -12.612  0.0000E+00  0.2000E+02
    -12.516  0.0000E+00  0.2000E+02
    -12.419  0.0000E+00  0.2000E+02
    -12.322  0.0000E+00  0.2000E+02
    -12.226  0.0000E+00  0.2000E+02
    -12.129  0.0000E+00  0.2000E+02
    -12.032  0.0000E+00  0.2000E+02
    -11.936  0.0000E+00  0.2000E+02
    -11.839  0.0000E+00  0.2000E+02
    -11.742  0.0000E+00  0.2000E+02
    -11.646  0.0000E+00  0.2000E+02
    -11.549  0.0000E+00  0.2000E+02
    -11.452  0.0000E+00  0.2000E+02
    -11.356  0.0000E+00  0.2000E+02
    -11.259  0.0000E+00  0.2000E+02
    -11.162  0.0000E+00  0.2000E+02
    -11.065  0.0000E+00  0.2000E+02
    -10.969  0.0000E+00  0.2000E+02
    -10.872  0.0000E+00  0.2000E+02
    -10.775  0.0000E+00  0.2000E+02
    -10.679  0.2436E+00  0.2000E+02
    -10.582  0.3593E+00  0.2003E+02
    -10.485  0.3300E+00  0.2007E+02
    -10.389  0.3304E+00  0.2010E+02
    -10.292  0.3323E+00  0.2013E+02
    -10.195  0.6695E+00  0.2019E+02
    -10.099  0.6506E+00  0.2025E+02
    -10.002  0.6962E+00  0.2032E+02
     -9.905  0.6655E+00  0.2038E+02
     -9.809  0.6802E+00  0.2045E+02
     -9.712  0.6688E+00  0.2051E+02
     -9.615  0.6801E+00  0.2058E+02
     -9.519  0.1007E+01  0.2067E+02
     -9.422  0.9888E+00  0.2077E+02
     -9.325  0.1037E+01  0.2086E+02
     -9.229  0.1018E+01  0.2096E+02
     -9.132  0.1027E+01  0.2106E+02
     -9.035  0.1009E+01  0.2116E+02
     -8.938  0.1018E+01  0.2126E+02
     -8.842  0.1038E+01  0.2136E+02
     -8.745  0.1023E+01  0.2146E+02
     -8.648  0.1020E+01  0.2155E+02
     -8.552  0.1378E+01  0.2168E+02
     -8.455  0.1361E+01  0.2182E+02
     -8.358  0.1373E+01  0.2195E+02
     -8.262  0.1375E+01  0.2208E+02
     -8.165  0.1392E+01  0.2222E+02
     -8.068  0.1373E+01  0.2235E+02
     -7.972  0.1383E+01  0.2248E+02
     -7.875  0.1387E+01  0.2262E+02
     -7.778  0.1388E+01  0.2275E+02
     -7.682  0.1398E+01  0.2288E+02
     -7.585  0.1399E+01  0.2302E+02
     -7.488  0.1391E+01  0.2315E+02
     -7.392  0.1758E+01  0.2332E+02
     -7.295  0.1762E+01  0.2349E+02
     -7.198  0.1776E+01  0.2366E+02
     -7.102  0.1777E+01  0.2383E+02
     -7.005  0.1791E+01  0.2400E+02
     -6.908  0.1794E+01  0.2418E+02
     -6.811  0.1819E+01  0.2435E+02
     -6.715  0.1821E+01  0.2453E+02
     -6.618  0.1837E+01  0.2470E+02
     -6.521  0.1861E+01  0.2488E+02
     -6.425  0.1882E+01  0.2506E+02
     -6.328  0.1912E+01  0.2525E+02
     -6.231  0.2356E+01  0.2546E+02
     -6.135  0.2440E+01  0.2569E+02
     -6.038  0.2526E+01  0.2593E+02
     -5.941  0.2670E+01  0.2618E+02
     -5.845  0.2896E+01  0.2645E+02
     -5.748  0.3047E+01  0.2675E+02
     -5.651  0.3224E+01  0.2705E+02
     -5.555  0.3675E+01  0.2739E+02
     -5.458  0.4495E+01  0.2777E+02
     -5.361  0.4507E+01  0.2815E+02
     -5.265  0.5173E+01  0.2877E+02
     -5.168  0.6857E+01  0.2931E+02
     -5.071  0.4342E+01  0.2984E+02
     -4.975  0.6862E+01  0.3054E+02
     -4.878  0.5344E+01  0.3117E+02
     -4.781  0.8032E+01  0.3184E+02
     -4.684  0.1069E+02  0.3253E+02
     -4.588  0.1154E+02  0.3364E+02
     -4.491  0.1386E+02  0.3487E+02
     -4.394  0.1581E+02  0.3628E+02
     -4.298  0.1388E+02  0.3771E+02
     -4.201  0.1422E+02  0.3925E+02
     -4.104  0.1476E+02  0.4062E+02
     -4.008  0.8865E+01  0.4224E+02
     -3.911  0.8818E+01  0.4326E+02
     -3.814  0.1260E+02  0.4437E+02
     -3.718  0.1151E+02  0.4555E+02
     -3.621  0.1642E+02  0.4663E+02
     -3.524  0.9686E+01  0.4769E+02
     -3.428  0.1056E+02  0.4865E+02
     -3.331  0.9015E+01  0.4958E+02
     -3.234  0.9683E+01  0.5072E+02
     -3.138  0.8123E+01  0.5154E+02
     -3.041  0.1371E+02  0.5253E+02
     -2.944  0.1220E+02  0.5387E+02
     -2.848  0.1375E+02  0.5520E+02
     -2.751  0.1354E+02  0.5654E+02
     -2.654  0.1404E+02  0.5791E+02
     -2.557  0.1471E+02  0.5945E+02
     -2.461  0.1473E+02  0.6085E+02
     -2.364  0.1353E+02  0.6222E+02
     -2.267  0.2142E+02  0.6390E+02
     -2.171  0.1801E+02  0.6589E+02
     -2.074  0.1800E+02  0.6785E+02
     -1.977  0.2206E+02  0.6968E+02
     -1.881  0.2428E+02  0.7184E+02
     -1.784  0.2611E+02  0.7414E+02
     -1.687  0.2212E+02  0.7632E+02
     -1.591  0.2275E+02  0.7859E+02
     -1.494  0.2174E+02  0.8080E+02
     -1.397  0.2017E+02  0.8292E+02
     -1.301  0.2021E+02  0.8488E+02
     -1.204  0.1630E+02  0.8661E+02
     -1.107  0.2267E+02  0.8837E+02
     -1.011  0.1473E+02  0.9021E+02
     -0.914  0.9876E+01  0.9128E+02
     -0.817  0.8542E+01  0.9234E+02
     -0.721  0.8092E+01  0.9323E+02
     -0.624  0.8065E+01  0.9399E+02
     -0.527  0.6844E+01  0.9473E+02
     -0.430  0.4416E+01  0.9529E+02
     -0.334  0.6182E+01  0.9583E+02
     -0.237  0.6392E+01  0.9643E+02
     -0.140  0.1295E+02  0.9720E+02
     -0.044  0.9698E+01  0.9845E+02
      0.053  0.1033E+02  0.9964E+02
      0.150  0.4951E+01  0.1003E+03
      0.246  0.3569E+01  0.1008E+03
      0.343  0.2794E+01  0.1011E+03
      0.440  0.4540E+01  0.1014E+03
      0.536  0.2889E+01  0.1017E+03
      0.633  0.3197E+01  0.1020E+03
      0.730  0.3401E+01  0.1023E+03
      0.826  0.3535E+01  0.1027E+03
      0.923  0.3716E+01  0.1030E+03
      1.020  0.3366E+01  0.1034E+03
      1.116  0.2635E+01  0.1037E+03
      1.213  0.3431E+01  0.1040E+03
      1.310  0.2647E+01  0.1043E+03
      1.406  0.2465E+01  0.1046E+03
      1.503  0.3013E+01  0.1048E+03
      1.600  0.3179E+01  0.1051E+03
      1.697  0.3330E+01  0.1054E+03
      1.793  0.3406E+01  0.1057E+03
      1.890  0.3256E+01  0.1061E+03
      1.987  0.3036E+01  0.1064E+03
      2.083  0.3381E+01  0.1067E+03
      2.180  0.3563E+01  0.1070E+03
      2.277  0.3955E+01  0.1074E+03
      2.373  0.4323E+01  0.1078E+03
      2.470  0.4502E+01  0.1082E+03
      2.567  0.3579E+01  0.1086E+03
      2.663  0.3157E+01  0.1089E+03
      2.760  0.3370E+01  0.1092E+03
      2.857  0.3066E+01  0.1096E+03
      2.953  0.3892E+01  0.1099E+03
      3.050  0.3382E+01  0.1102E+03
      3.147  0.3310E+01  0.1105E+03
      3.243  0.4091E+01  0.1109E+03
      3.340  0.3585E+01  0.1112E+03
      3.437  0.3792E+01  0.1116E+03
      3.533  0.3387E+01  0.1119E+03
      3.630  0.3926E+01  0.1123E+03
      3.727  0.4816E+01  0.1127E+03
      3.824  0.4204E+01  0.1131E+03
      3.920  0.4118E+01  0.1135E+03
      4.017  0.4008E+01  0.1139E+03
      4.114  0.4188E+01  0.1143E+03
      4.210  0.4448E+01  0.1148E+03
      4.307  0.3757E+01  0.1152E+03
      4.404  0.3907E+01  0.1156E+03
      4.500  0.4402E+01  0.1160E+03
      4.597  0.4904E+01  0.1164E+03
      4.694  0.4437E+01  0.1169E+03
      4.790  0.4211E+01  0.1173E+03
      4.887  0.4989E+01  0.1178E+03
      4.984  0.5927E+01  0.1183E+03
      5.080  0.4796E+01  0.1187E+03
      5.177  0.4813E+01  0.1192E+03
      5.274  0.4460E+01  0.1196E+03
      5.370  0.5343E+01  0.1201E+03
      5.467  0.4779E+01  0.1206E+03
      5.564  0.5661E+01  0.1211E+03
      5.660  0.6198E+01  0.1216E+03
      5.757  0.5438E+01  0.1221E+03
      5.854  0.5480E+01  0.1227E+03
      5.951  0.5244E+01  0.1232E+03
      6.047  0.5900E+01  0.1238E+03
      6.144  0.4942E+01  0.1243E+03
      6.241  0.6876E+01  0.1249E+03
      6.337  0.5117E+01  0.1255E+03
      6.434  0.4446E+01  0.1260E+03
      6.531  0.6523E+01  0.1266E+03
      6.627  0.4545E+01  0.1271E+03
      6.724  0.8036E+01  0.1278E+03
      6.821  0.7221E+01  0.1284E+03
      6.917  0.5983E+01  0.1291E+03
      7.014  0.3163E+01  0.1296E+03
      7.111  0.9784E+00  0.1298E+03
      7.207  0.6797E+00  0.1299E+03
      7.304  0.2171E+00  0.1299E+03
      7.401  0.1411E+00  0.1300E+03
      7.497  0.1118E+00  0.1300E+03
      7.594  0.1000E+00  0.1300E+03
      7.691  0.0000E+00  0.1300E+03
      7.787  0.0000E+00  0.1300E+03
      7.884  0.0000E+00  0.1300E+03
      7.981  0.0000E+00  0.1300E+03
      8.078  0.0000E+00  0.1300E+03
      8.174  0.0000E+00  0.1300E+03
      8.271  0.0000E+00  0.1300E+03
      8.368  0.0000E+00  0.1300E+03
      8.464  0.0000E+00  0.1300E+03
      8.561  0.0000E+00  0.1300E+03
      8.658  0.0000E+00  0.1300E+03
      8.754  0.0000E+00  0.1300E+03
      8.851  0.0000E+00  0.1300E+03
      8.948  0.0000E+00  0.1300E+03
