       N       E                     dE             d eps       ncg     rms          rms(c)
DAV:   1     0.713084504494E+03    0.71308E+03   -0.41195E+04  7500   0.125E+03
DAV:   2    -0.433533879757E+02   -0.75644E+03   -0.71495E+03  9635   0.277E+02
DAV:   3    -0.154838242887E+03   -0.11148E+03   -0.11067E+03  8525   0.112E+02
DAV:   4    -0.158010918337E+03   -0.31727E+01   -0.31659E+01  8870   0.219E+01
DAV:   5    -0.158099560955E+03   -0.88643E-01   -0.88621E-01  9865   0.337E+00    0.243E+01
DAV:   6    -0.144542841978E+03    0.13557E+02   -0.12554E+02  8795   0.347E+01    0.257E+01
DAV:   7    -0.145910711178E+03   -0.13679E+01   -0.22864E+02  8440   0.156E+01    0.117E+01
DAV:   8    -0.142806324532E+03    0.31044E+01   -0.33971E+00  8630   0.706E+00    0.764E+00
DAV:   9    -0.138796683557E+03    0.40096E+01   -0.19584E+00  9115   0.111E+01    0.449E+00
DAV:  10    -0.145072753567E+03   -0.62761E+01   -0.35723E+01  9205   0.109E+01    0.241E+01
DAV:  11    -0.138913765664E+03    0.61590E+01   -0.18691E+01  8810   0.450E+00    0.144E+01
DAV:  12    -0.138128900675E+03    0.78486E+00   -0.15289E+01  9600   0.337E+00    0.467E+00
DAV:  13    -0.137909388355E+03    0.21951E+00   -0.14096E-01  8660   0.169E+00    0.432E+00
DAV:  14    -0.137890445260E+03    0.18943E-01   -0.33196E-02  8615   0.793E-01    0.440E+00
DAV:  15    -0.137689832860E+03    0.20061E+00   -0.81376E-01 10195   0.154E+00    0.102E+00
DAV:  16    -0.137741444283E+03   -0.51611E-01   -0.23274E-01  9000   0.594E-01    0.300E+00
DAV:  17    -0.137827206881E+03   -0.85763E-01   -0.10822E-01  9095   0.438E-01    0.486E+00
DAV:  18    -0.137735969630E+03    0.91237E-01   -0.86989E-02  8445   0.376E-01    0.313E+00
DAV:  19    -0.137683669023E+03    0.52301E-01   -0.57856E-01  9790   0.749E-01    0.164E+00
DAV:  20    -0.137670612997E+03    0.13056E-01   -0.59583E-03  8015   0.437E-01    0.119E+00
DAV:  21    -0.137666226876E+03    0.43861E-02   -0.28552E-02  8520   0.394E-01    0.280E-01
DAV:  22    -0.137668150648E+03   -0.19238E-02   -0.22090E-03  8220   0.244E-01    0.412E-01
DAV:  23    -0.137665560983E+03    0.25897E-02   -0.61443E-04  9195   0.223E-01    0.270E-01
DAV:  24    -0.137660149374E+03    0.54116E-02   -0.91905E-03  9945   0.368E-01    0.474E-01
DAV:  25    -0.137661361665E+03   -0.12123E-02   -0.13798E-02  8730   0.367E-01    0.363E-01
DAV:  26    -0.137659609501E+03    0.17522E-02   -0.22021E-03  8215   0.245E-01    0.271E-01
DAV:  27    -0.137656759864E+03    0.28496E-02   -0.21972E-03 10435   0.257E-01    0.161E-01
DAV:  28    -0.137656627373E+03    0.13249E-03   -0.15132E-03  7985   0.218E-01    0.102E-01
DAV:  29    -0.137656303994E+03    0.32338E-03   -0.62978E-04  8410   0.128E-01    0.925E-02
DAV:  30    -0.137656569349E+03   -0.26535E-03   -0.13600E-04  7985   0.563E-02    0.128E-01
DAV:  31    -0.137655348090E+03    0.12213E-02   -0.24026E-03  7830   0.686E-02    0.174E-01
DAV:  32    -0.137655612161E+03   -0.26407E-03   -0.97203E-05  7280   0.500E-02    0.111E-01
DAV:  33    -0.137656053947E+03   -0.44179E-03   -0.14412E-03  7780   0.434E-02    0.103E-01
DAV:  34    -0.137655775473E+03    0.27847E-03   -0.43623E-05  7495   0.381E-02    0.912E-02
DAV:  35    -0.137655108106E+03    0.66737E-03   -0.60618E-04  8040   0.609E-02    0.917E-02
DAV:  36    -0.137654855756E+03    0.25235E-03   -0.18343E-04  8025   0.586E-02    0.454E-02
DAV:  37    -0.137655566536E+03   -0.71078E-03   -0.14184E-03  7350   0.500E-02    0.149E-01
DAV:  38    -0.137654026740E+03    0.15398E-02   -0.30212E-03  7225   0.614E-02    0.258E-01
DAV:  39    -0.137654168559E+03   -0.14182E-03   -0.37634E-04  7160   0.333E-02    0.157E-01
DAV:  40    -0.137654092344E+03    0.76215E-04   -0.10185E-05  5650   0.249E-02    0.177E-01
DAV:  41    -0.137655193553E+03   -0.11012E-02   -0.17332E-03  6085   0.709E-02    0.114E-01
DAV:  42    -0.137655373510E+03   -0.17996E-03   -0.34447E-05  6730   0.312E-02    0.125E-01
DAV:  43    -0.137654761907E+03    0.61160E-03   -0.19845E-04  5500   0.246E-02    0.269E-02
DAV:  44    -0.137654864924E+03   -0.10302E-03   -0.94348E-06  5770   0.146E-02    0.216E-02
DAV:  45    -0.137655382592E+03   -0.51767E-03   -0.90134E-04  5565   0.231E-02    0.115E-01
DAV:  46    -0.137655059119E+03    0.32347E-03   -0.74301E-06  5370   0.168E-02    0.826E-02
DAV:  47    -0.137654648991E+03    0.41013E-03   -0.11533E-03  4970   0.273E-02    0.123E-01
DAV:  48    -0.137654719860E+03   -0.70869E-04   -0.15236E-05  5385   0.178E-02    0.103E-01
DAV:  49    -0.137655125339E+03   -0.40548E-03   -0.73817E-04  5220   0.176E-02    0.885E-02
DAV:  50    -0.137654992153E+03    0.13319E-03   -0.88287E-05  5430   0.162E-02    0.237E-02
DAV:  51    -0.137654901750E+03    0.90403E-04   -0.56198E-06  5060   0.921E-03    0.863E-02
DAV:  52    -0.137655079139E+03   -0.17739E-03   -0.45563E-04  5150   0.101E-02    0.804E-02
DAV:  53    -0.137655019029E+03    0.60110E-04   -0.45249E-06  5475   0.114E-02    0.267E-02
DAV:  54    -0.137655091671E+03   -0.72642E-04   -0.69187E-05  5190   0.581E-03    0.783E-02
DAV:  55    -0.137655010376E+03    0.81295E-04   -0.36073E-05  5180   0.745E-03    0.199E-02
DAV:  56    -0.137655077443E+03   -0.67068E-04   -0.47341E-05  4900   0.726E-03    0.729E-02
DAV:  57    -0.137654997621E+03    0.79822E-04   -0.11763E-04  4955   0.594E-03    0.244E-02
DAV:  58    -0.137655063187E+03   -0.65566E-04   -0.17897E-06  4880   0.581E-03    0.495E-03
DAV:  59    -0.137655101186E+03   -0.37999E-04   -0.54736E-05  5175   0.370E-03    0.724E-02
DAV:  60    -0.137655046291E+03    0.54895E-04   -0.37685E-05  4955   0.530E-03    0.211E-02
DAV:  61    -0.137655147733E+03   -0.10144E-03   -0.14615E-04  4910   0.695E-03    0.755E-02
DAV:  62    -0.137655100104E+03    0.47629E-04   -0.74362E-07  4785   0.445E-03    0.720E-02
DAV:  63    -0.137654931112E+03    0.16899E-03   -0.48550E-04  4920   0.926E-03    0.952E-02
DAV:  64    -0.137654919575E+03    0.11537E-04   -0.48580E-06  5445   0.117E-02    0.950E-02
DAV:  65    -0.137654911504E+03    0.80709E-05   -0.96813E-07  4925   0.484E-03
   1 F= -.13765491E+03 E0= -.13765491E+03  d E =0.000000E+00
