 vasp.5.4.4.18Apr17-6-g9f103f2a35 (build Nov 15 2019 10:10:58) complex          
  
 executed on             LinuxIFC date 2024.08.01  12:36:33
 running on   20 total cores
 distrk:  each k-point on   20 cores,    1 groups
 distr:  one band on NCORES_PER_BAND=   4 cores,    5 groups


--------------------------------------------------------------------------------------------------------


 INCAR:
 POTCAR:    PAW_PBE O 08Apr2002                   
 POTCAR:    PAW_PBE Mg 13Apr2007                  
 POTCAR:    PAW_PBE Al 04Jan2001                  
 POTCAR:    PAW_PBE O 08Apr2002                   
   VRHFIN =O: s2p4                                                              
   LEXCH  = PE                                                                  
   EATOM  =   432.3788 eV,   31.7789 Ry                                         
                                                                                
   TITEL  = PAW_PBE O 08Apr2002                                                 
   LULTRA =        F    use ultrasoft PP ?                                      
   IUNSCR =        1    unscreen: 0-lin 1-nonlin 2-no                           
   RPACOR =    1.200    partial core radius                                     
   POMASS =   16.000; ZVAL   =    6.000    mass and valenz                      
   RCORE  =    1.520    outmost cutoff radius                                   
   RWIGS  =    1.550; RWIGS  =    0.820    wigner-seitz radius (au A)           
   ENMAX  =  400.000; ENMIN  =  300.000 eV                                      
   ICORE  =        2    local potential                                         
   LCOR   =        T    correct aug charges                                     
   LPAW   =        T    paw PP                                                  
   EAUG   =  605.392                                                            
   DEXC   =    0.000                                                            
   RMAX   =    1.553    core radius for proj-oper                               
   RAUG   =    1.300    factor for augmentation sphere                          
   RDEP   =    1.550    radius for radial grids                                 
   RDEPT  =    1.329    core radius for aug-charge                              
                                                                                
   Atomic configuration                                                         
    4 entries                                                                   
     n  l   j            E        occ.                                          
     1  0  0.50      -514.6923   2.0000                                         
     2  0  0.50       -23.9615   2.0000                                         
     2  1  0.50        -9.0305   4.0000                                         
     3  2  1.50        -9.5241   0.0000                                         
   Description                                                                  
     l       E           TYP  RCUT    TYP  RCUT                                 
     0    -23.9615318     23  1.200                                             
     0     -9.5240782     23  1.200                                             
     1     -9.0304911     23  1.520                                             
     1      8.1634956     23  1.520                                             
     2     -9.5240782      7  1.500                                             
  local pseudopotential read in
  partial core-charges read in
  partial kinetic energy density read in
  kinetic energy density of atom read in
  atomic valenz-charges read in
  non local Contribution for L=           0  read in
    real space projection operators read in
  non local Contribution for L=           0  read in
    real space projection operators read in
  non local Contribution for L=           1  read in
    real space projection operators read in
  non local Contribution for L=           1  read in
    real space projection operators read in
    PAW grid and wavefunctions read in
 
   number of l-projection  operators is LMAX  =           4
   number of lm-projection operators is LMMAX =           8
 
 POTCAR:    PAW_PBE Mg 13Apr2007                  
   VRHFIN =Mg: s2p0                                                             
   LEXCH  = PE                                                                  
   EATOM  =    23.0369 eV,    1.6932 Ry                                         
                                                                                
   TITEL  = PAW_PBE Mg 13Apr2007                                                
   LULTRA =        F    use ultrasoft PP ?                                      
   IUNSCR =        1    unscreen: 0-lin 1-nonlin 2-no                           
   RPACOR =    1.500    partial core radius                                     
   POMASS =   24.305; ZVAL   =    2.000    mass and valenz                      
   RCORE  =    2.000    outmost cutoff radius                                   
   RWIGS  =    2.880; RWIGS  =    1.524    wigner-seitz radius (au A)           
   ENMAX  =  200.000; ENMIN  =  100.000 eV                                      
   RCLOC  =    1.506    cutoff for local pot                                    
   LCOR   =        T    correct aug charges                                     
   LPAW   =        T    paw PP                                                  
   EAUG   =  454.734                                                            
   DEXC   =    0.000                                                            
   RMAX   =    2.045    core radius for proj-oper                               
   RAUG   =    1.300    factor for augmentation sphere                          
   RDEP   =    2.025    radius for radial grids                                 
   RDEPT  =    1.942    core radius for aug-charge                              
                                                                                
   Atomic configuration                                                         
    6 entries                                                                   
     n  l   j            E        occ.                                          
     1  0  0.50     -1259.6230   2.0000                                         
     2  0  0.50       -79.8442   2.0000                                         
     2  1  1.50       -46.6121   6.0000                                         
     3  0  0.50        -4.7055   2.0000                                         
     3  1  0.50        -1.3660   0.0000                                         
     3  2  1.50        -1.3606   0.0000                                         
   Description                                                                  
     l       E           TYP  RCUT    TYP  RCUT                                 
     0     -4.7054661     23  2.000                                             
     0     27.2116520     23  2.000                                             
     1      1.3605826     23  2.000                                             
     1     27.2116520     23  2.000                                             
     2     -1.3605826     23  2.000                                             
  local pseudopotential read in
  partial core-charges read in
  partial kinetic energy density read in
  atomic valenz-charges read in
  non local Contribution for L=           0  read in
    real space projection operators read in
  non local Contribution for L=           0  read in
    real space projection operators read in
  non local Contribution for L=           1  read in
    real space projection operators read in
  non local Contribution for L=           1  read in
    real space projection operators read in
  non local Contribution for L=           2  read in
    real space projection operators read in
    PAW grid and wavefunctions read in
 
   number of l-projection  operators is LMAX  =           5
   number of lm-projection operators is LMMAX =          13
 
 POTCAR:    PAW_PBE Al 04Jan2001                  
   VRHFIN =Al: s2p1                                                             
   LEXCH  = PE                                                                  
   EATOM  =    53.5387 eV,    3.9350 Ry                                         
                                                                                
   TITEL  = PAW_PBE Al 04Jan2001                                                
   LULTRA =        F    use ultrasoft PP ?                                      
   IUNSCR =        1    unscreen: 0-lin 1-nonlin 2-no                           
   RPACOR =    1.500    partial core radius                                     
   POMASS =   26.981; ZVAL   =    3.000    mass and valenz                      
   RCORE  =    1.900    outmost cutoff radius                                   
   RWIGS  =    2.650; RWIGS  =    1.402    wigner-seitz radius (au A)           
   ENMAX  =  240.300; ENMIN  =  180.225 eV                                      
   ICORE  =        2    local potential                                         
   LCOR   =        T    correct aug charges                                     
   LPAW   =        T    paw PP                                                  
   EAUG   =  291.052                                                            
   DEXC   =    0.000                                                            
   RMAX   =    1.939    core radius for proj-oper                               
   RAUG   =    1.300    factor for augmentation sphere                          
   RDEP   =    1.966    radius for radial grids                                 
   RDEPT  =    1.856    core radius for aug-charge                              
                                                                                
   Atomic configuration                                                         
    6 entries                                                                   
     n  l   j            E        occ.                                          
     1  0  0.50     -1511.1048   2.0000                                         
     2  0  0.50      -108.1629   2.0000                                         
     2  1  1.50       -69.6402   6.0000                                         
     3  0  0.50        -7.7528   2.0000                                         
     3  1  1.50        -2.7121   1.0000                                         
     3  2  2.50        -2.7212   0.0000                                         
   Description                                                                  
     l       E           TYP  RCUT    TYP  RCUT                                 
     0     -7.7528455     23  1.900                                             
     0     -3.3096929     23  1.900                                             
     1     -2.7120682     23  1.900                                             
     1     13.6058260     23  1.900                                             
     2     -2.7211652      7  1.900                                             
  local pseudopotential read in
  partial core-charges read in
  partial kinetic energy density read in
  atomic valenz-charges read in
  non local Contribution for L=           0  read in
    real space projection operators read in
  non local Contribution for L=           0  read in
    real space projection operators read in
  non local Contribution for L=           1  read in
    real space projection operators read in
  non local Contribution for L=           1  read in
    real space projection operators read in
    PAW grid and wavefunctions read in
 
   number of l-projection  operators is LMAX  =           4
   number of lm-projection operators is LMMAX =           8
 

 ----------------------------------------------------------------------------- 
|                                                                             |
|  ADVICE TO THIS USER RUNNING 'VASP/VAMP'   (HEAR YOUR MASTER'S VOICE ...):  |
|                                                                             |
|      You have a (more or less) 'large supercell' and for larger cells       |
|      it might be more efficient to use real space projection opertators     |
|      So try LREAL= Auto  in the INCAR   file.                               |
|      Mind:          For very  accurate calculation you might also keep the  |
|      reciprocal projection scheme          (i.e. LREAL=.FALSE.)             |
|                                                                             |
 ----------------------------------------------------------------------------- 

  PAW_PBE O 08Apr2002                   :
 energy of atom  1       EATOM= -432.3788
 kinetic energy error for atom=    0.0208 (will be added to EATOM!!)
  PAW_PBE Mg 13Apr2007                  :
 energy of atom  2       EATOM=  -23.0369
 kinetic energy error for atom=    0.0000 (will be added to EATOM!!)
  PAW_PBE Al 04Jan2001                  :
 energy of atom  3       EATOM=  -53.5387
 kinetic energy error for atom=    0.0002 (will be added to EATOM!!)
 
 
 POSCAR: Layer (26)                              
  positions in direct lattice
  velocities in cartesian coordinates
 exchange correlation table for  LEXCH =        8
   RHO(1)=    0.500       N(1)  =     2000
   RHO(2)=  100.500       N(2)  =     4000

 VTST: version 3.2, (02/03/18)

 CHAIN: initializing optimizer
 
 OPT: Using VASP Dynamics algorithm
 CHAIN: Read ICHAIN            0
 
 POSCAR: Layer (26)                              
  positions in direct lattice
  velocities in cartesian coordinates
 


--------------------------------------------------------------------------------------------------------


 ion  position               nearest neighbor table
   1  0.000  0.000  0.450-  22 1.72  14 2.08  14 2.08  14 2.08
   2  0.333  0.667  0.484-  14 2.12  14 2.12  14 2.12  11 2.14  11 2.14  11 2.14
   3  0.000  0.000  0.556-  17 2.12  17 2.12  17 2.12  15 2.14  15 2.14  15 2.14
   4  0.333  0.667  0.592-  15 2.12  15 2.12  15 2.12  12 2.14  12 2.14  12 2.14
   5  0.000  0.000  0.663-  18 2.12  18 2.12  18 2.12  16 2.14  16 2.14  16 2.14
   6  0.333  0.667  0.699-  16 2.11  16 2.11  16 2.11  13 2.15  13 2.15  13 2.15
   7  0.000  0.000  0.768-  19 1.97  19 1.97  19 1.97
   8  0.667  0.333  0.520-  11 2.12  11 2.12  11 2.12  17 2.14  17 2.14  17 2.14
   9  0.667  0.333  0.627-  12 2.12  12 2.12  12 2.12  18 2.14  18 2.14  18 2.14
  10  0.667  0.333  0.734-  13 2.09  13 2.09  13 2.09  19 2.21  19 2.21  19 2.21
  11  0.000  0.000  0.502-   8 2.12   8 2.12   8 2.12   2 2.14   2 2.14   2 2.14  17 3.01  17 3.01
                            17 3.01  14 3.01  14 3.01  14 3.01
  12  0.000  0.000  0.610-   9 2.12   9 2.12   9 2.12   4 2.14   4 2.14   4 2.14  18 3.01  18 3.01
                            18 3.01  15 3.01  15 3.01  15 3.01
  13  0.000  0.000  0.717-  10 2.09  10 2.09  10 2.09   6 2.15   6 2.15   6 2.15  16 3.01  16 3.01
                            16 3.01  19 3.06  19 3.06  19 3.06
  14  0.667  0.333  0.466-   1 2.08   1 2.08   1 2.08   2 2.12   2 2.12   2 2.12  11 3.01  11 3.01
                            11 3.01  22 3.34  22 3.34  22 3.34
  15  0.667  0.333  0.574-   4 2.12   4 2.12   4 2.12   3 2.14   3 2.14   3 2.14  12 3.01  12 3.01
                            12 3.01  17 3.01  17 3.01  17 3.01
  16  0.667  0.333  0.681-   6 2.11   6 2.11   6 2.11   5 2.14   5 2.14   5 2.14  18 3.01  18 3.01
                            18 3.01  13 3.01  13 3.01  13 3.01
  17  0.333  0.667  0.538-   3 2.12   3 2.12   3 2.12   8 2.14   8 2.14   8 2.14  15 3.01  15 3.01
                            15 3.01  11 3.01  11 3.01  11 3.01
  18  0.333  0.667  0.646-   5 2.12   5 2.12   5 2.12   9 2.14   9 2.14   9 2.14  12 3.01  12 3.01
                            12 3.01  16 3.01  16 3.01  16 3.01
  19  0.333  0.667  0.754-   7 1.97   7 1.97   7 1.97  10 2.21  10 2.21  10 2.21  13 3.06  13 3.06
                            13 3.06
  20  0.000  0.000  0.231-  25 2.83  25 2.83  25 2.83
  21  0.000  0.000  0.328-  23 2.80  23 2.80  23 2.80  26 2.82  26 2.82  26 2.82
  22  0.000  0.000  0.425-   1 1.72  24 2.76  24 2.76  24 2.76  14 3.34  14 3.34  14 3.34
  23  0.667  0.333  0.296-  25 2.80  25 2.80  25 2.80  21 2.80  21 2.80  21 2.80
  24  0.667  0.333  0.393-  22 2.76  22 2.76  22 2.76  26 2.83  26 2.83  26 2.83
  25  0.333  0.667  0.264-  23 2.80  23 2.80  23 2.80  20 2.83  20 2.83  20 2.83
  26  0.333  0.667  0.361-  21 2.82  21 2.82  21 2.82  24 2.83  24 2.83  24 2.83
 
  LATTYP: Found a hexagonal cell.
 ALAT       =     3.0106507234
 C/A-ratio  =    22.7565552224
  
  Lattice vectors:
  
 A1 = (   2.6073001451,  -1.5053251248,   0.0000000000)
 A2 = (   0.0000000000,   3.0106502496,   0.0000000000)
 A3 = (  -0.0000000000,   0.0000000000,  68.5120394419)


Analysis of symmetry for initial positions (statically):
=====================================================================
 Subroutine PRICEL returns:
 Original cell was already a primitive cell.
 

 Routine SETGRP: Setting up the symmetry group for a 
 hexagonal supercell.


 Subroutine GETGRP returns: Found  6 space group operations
 (whereof  6 operations were pure point group operations)
 out of a pool of 24 trial point group operations.


The static configuration has the point symmetry C_3v.


Analysis of symmetry for dynamics (positions and initial velocities):
=====================================================================
 Subroutine PRICEL returns:
 Original cell was already a primitive cell.
 

 Routine SETGRP: Setting up the symmetry group for a 
 hexagonal supercell.


 Subroutine GETGRP returns: Found  6 space group operations
 (whereof  6 operations were pure point group operations)
 out of a pool of 24 trial point group operations.


The dynamic configuration has the point symmetry C_3v.


Analysis of constrained symmetry for selective dynamics:
=====================================================================
 Subroutine PRICEL returns:
 Original cell was already a primitive cell.
 

 Routine SETGRP: Setting up the symmetry group for a 
 hexagonal supercell.


 Subroutine GETGRP returns: Found  6 space group operations
 (whereof  6 operations were pure point group operations)
 out of a pool of 24 trial point group operations.


The constrained configuration has the point symmetry C_3v.


 Subroutine INISYM returns: Found  6 space group operations
 (whereof  6 operations are pure point group operations),
 and found     1 'primitive' translations

 
 
 KPOINTS: K-Spacing Value to Generate K-Mesh: 0.02

Automatic generation of k-mesh.
Space group operators:
 irot       det(A)        alpha          n_x          n_y          n_z        tau_x        tau_y        tau_z
    1     1.000000     0.000000     1.000000     0.000000     0.000000     0.000000     0.000000     0.000000
    2     1.000000   120.000000     0.000000     0.000000    -1.000000     0.000000     0.000000     0.000000
    3     1.000000   120.000000    -0.000000     0.000000     1.000000     0.000000     0.000000     0.000000
    4    -1.000000   180.000000    -0.866025     0.500000    -0.000000     0.000000     0.000000     0.000000
    5    -1.000000   179.999999     0.000000     1.000000     0.000000     0.000000     0.000000     0.000000
    6    -1.000000   180.000000    -0.866025    -0.500000    -0.000000     0.000000     0.000000     0.000000
 
 Subroutine IBZKPT returns following result:
 ===========================================
 
 Found     56 irreducible k-points:
 
 Following reciprocal coordinates:
            Coordinates               Weight
  0.000000  0.000000  0.000000      1.000000
  0.043478  0.000000 -0.000000      6.000000
  0.086957  0.000000 -0.000000      6.000000
  0.130435  0.000000 -0.000000      6.000000
  0.173913  0.000000 -0.000000      6.000000
  0.217391  0.000000 -0.000000      6.000000
  0.260870  0.000000 -0.000000      6.000000
  0.304348  0.000000  0.000000      6.000000
  0.347826  0.000000 -0.000000      6.000000
  0.391304  0.000000 -0.000000      6.000000
  0.434783  0.000000 -0.000000      6.000000
  0.478261  0.000000 -0.000000      6.000000
  0.043478  0.043478 -0.000000      6.000000
  0.086957  0.043478  0.000000     12.000000
  0.130435  0.043478 -0.000000     12.000000
  0.173913  0.043478 -0.000000     12.000000
  0.217391  0.043478 -0.000000     12.000000
  0.260870  0.043478 -0.000000     12.000000
  0.304348  0.043478 -0.000000     12.000000
  0.347826  0.043478 -0.000000     12.000000
  0.391304  0.043478 -0.000000     12.000000
  0.434783  0.043478 -0.000000     12.000000
  0.478261  0.043478 -0.000000      6.000000
  0.086957  0.086957 -0.000000      6.000000
  0.130435  0.086957 -0.000000     12.000000
  0.173913  0.086957 -0.000000     12.000000
  0.217391  0.086957 -0.000000     12.000000
  0.260870  0.086957 -0.000000     12.000000
  0.304348  0.086957 -0.000000     12.000000
  0.347826  0.086957 -0.000000     12.000000
  0.391304  0.086957 -0.000000     12.000000
  0.434783  0.086957 -0.000000     12.000000
  0.130435  0.130435 -0.000000      6.000000
  0.173913  0.130435 -0.000000     12.000000
  0.217391  0.130435 -0.000000     12.000000
  0.260870  0.130435 -0.000000     12.000000
  0.304348  0.130435 -0.000000     12.000000
  0.347826  0.130435  0.000000     12.000000
  0.391304  0.130435 -0.000000     12.000000
  0.434783  0.130435 -0.000000      6.000000
  0.173913  0.173913 -0.000000      6.000000
  0.217391  0.173913 -0.000000     12.000000
  0.260870  0.173913 -0.000000     12.000000
  0.304348  0.173913 -0.000000     12.000000
  0.347826  0.173913 -0.000000     12.000000
  0.391304  0.173913 -0.000000     12.000000
  0.217391  0.217391 -0.000000      6.000000
  0.260870  0.217391  0.000000     12.000000
  0.304348  0.217391  0.000000     12.000000
  0.347826  0.217391  0.000000     12.000000
  0.391304  0.217391 -0.000000      6.000000
  0.260870  0.260870 -0.000000      6.000000
  0.304348  0.260870 -0.000000     12.000000
  0.347826  0.260870 -0.000000     12.000000
  0.304348  0.304348 -0.000000      6.000000
  0.347826  0.304348 -0.000000      6.000000
 
 Following cartesian coordinates:
            Coordinates               Weight
  0.000000  0.000000  0.000000      1.000000
  0.016676  0.000000  0.000000      6.000000
  0.033351  0.000000  0.000000      6.000000
  0.050027  0.000000  0.000000      6.000000
  0.066702  0.000000  0.000000      6.000000
  0.083378  0.000000  0.000000      6.000000
  0.100054  0.000000  0.000000      6.000000
  0.116729  0.000000  0.000000      6.000000
  0.133405  0.000000  0.000000      6.000000
  0.150080  0.000000  0.000000      6.000000
  0.166756  0.000000  0.000000      6.000000
  0.183431  0.000000  0.000000      6.000000
  0.025013  0.014441  0.000000      6.000000
  0.041689  0.014441  0.000000     12.000000
  0.058365  0.014441  0.000000     12.000000
  0.075040  0.014441  0.000000     12.000000
  0.091716  0.014441  0.000000     12.000000
  0.108391  0.014441  0.000000     12.000000
  0.125067  0.014441  0.000000     12.000000
  0.141742  0.014441  0.000000     12.000000
  0.158418  0.014441  0.000000     12.000000
  0.175094  0.014441  0.000000     12.000000
  0.191769  0.014441  0.000000      6.000000
  0.050027  0.028883  0.000000      6.000000
  0.066702  0.028883  0.000000     12.000000
  0.083378  0.028883  0.000000     12.000000
  0.100054  0.028883  0.000000     12.000000
  0.116729  0.028883  0.000000     12.000000
  0.133405  0.028883  0.000000     12.000000
  0.150080  0.028883  0.000000     12.000000
  0.166756  0.028883  0.000000     12.000000
  0.183431  0.028883  0.000000     12.000000
  0.075040  0.043324  0.000000      6.000000
  0.091716  0.043324  0.000000     12.000000
  0.108391  0.043324  0.000000     12.000000
  0.125067  0.043324  0.000000     12.000000
  0.141742  0.043324  0.000000     12.000000
  0.158418  0.043324  0.000000     12.000000
  0.175094  0.043324  0.000000     12.000000
  0.191769  0.043324  0.000000      6.000000
  0.100054  0.057766  0.000000      6.000000
  0.116729  0.057766  0.000000     12.000000
  0.133405  0.057766  0.000000     12.000000
  0.150080  0.057766  0.000000     12.000000
  0.166756  0.057766  0.000000     12.000000
  0.183431  0.057766  0.000000     12.000000
  0.125067  0.072207  0.000000      6.000000
  0.141742  0.072207  0.000000     12.000000
  0.158418  0.072207  0.000000     12.000000
  0.175094  0.072207  0.000000     12.000000
  0.191769  0.072207  0.000000      6.000000
  0.150080  0.086649  0.000000      6.000000
  0.166756  0.086649  0.000000     12.000000
  0.183431  0.086649  0.000000     12.000000
  0.175094  0.101090  0.000000      6.000000
  0.191769  0.101090  0.000000      6.000000
 
 TETIRR: Found    276 inequivalent tetrahedra from     3174


--------------------------------------------------------------------------------------------------------




 Dimension of arrays:
   k-points           NKPTS =     56   k-points in BZ     NKDIM =     56   number of bands    NBANDS=     65
   number of dos      NEDOS =    301   number of ions     NIONS =     26
   non local maximal  LDIM  =      5   non local SUM 2l+1 LMDIM =     13
   total plane-waves  NPLWV = 294912
   max r-space proj   IRMAX =      1   max aug-charges    IRDMAX= 186535
   dimension x,y,z NGX =    24 NGY =   24 NGZ =  512
   dimension x,y,z NGXF=    48 NGYF=   48 NGZF= 1024
   support grid    NGXF=    96 NGYF=   96 NGZF= 2048
   ions per type =              10   9   7
   NGX,Y,Z   is equivalent  to a cutoff of  13.25, 13.25, 12.42 a.u.
   NGXF,Y,Z  is equivalent  to a cutoff of  26.51, 26.51, 24.85 a.u.

 SYSTEM =  unknown system                          
 POSCAR =  Layer (26)                              

 Startparameter for this run:
   NWRITE =      2    write-flag & timer
   PREC   = accura    normal or accurate (medium, high low for compatibility)
   ISTART =      0    job   : 0-new  1-cont  2-samecut
   ICHARG =      2    charge: 1-file 2-atom 10-const
   ISPIN  =      1    spin polarized calculation?
   LNONCOLLINEAR =      F non collinear calculations
   LSORBIT =      F    spin-orbit coupling
   INIWAV =      1    electr: 0-lowe 1-rand  2-diag
   LASPH  =      F    aspherical Exc in radial PAW
   METAGGA=      F    non-selfconsistent MetaGGA calc.

 Electronic Relaxation 1
   ENCUT  =  520.0 eV  38.22 Ry    6.18 a.u.   5.60  5.60127.39*2*pi/ulx,y,z
   ENINI  =  520.0     initial cutoff
   ENAUG  =  605.4 eV  augmentation charge cutoff
   NELM   =    100;   NELMIN=  6; NELMDL=  0     # of ELM steps 
   EDIFF  = 0.1E-04   stopping-criterion for ELM
   LREAL  =      F    real-space projection
   NLSPLINE    = F    spline interpolate recip. space projectors
   LCOMPAT=      F    compatible to vasp.4.4
   GGA_COMPAT  = T    GGA compatible to vasp.4.4-vasp.4.6
   LMAXPAW     = -100 max onsite density
   LMAXMIX     =    2 max onsite mixed and CHGCAR
   VOSKOWN=      0    Vosko Wilk Nusair interpolation
   ROPT   =    0.00000   0.00000   0.00000
 Ionic relaxation
   EDIFFG = -.2E-01   stopping-criterion for IOM
   NSW    =      0    number of steps for IOM
   NBLOCK =      1;   KBLOCK =      1    inner block; outer block 
   IBRION =     -1    ionic relax: 0-MD 1-quasi-New 2-CG
   NFREE  =      0    steps in history (QN), initial steepest desc. (CG)
   ISIF   =      4    stress and relaxation
   IWAVPR =     10    prediction:  0-non 1-charg 2-wave 3-comb
   ISYM   =      2    0-nonsym 1-usesym 2-fastsym
   LCORR  =      T    Harris-Foulkes like correction to forces

   POTIM  = 0.5000    time-step for ionic-motion
   TEIN   =    0.0    initial temperature
   TEBEG  =    0.0;   TEEND  =   0.0 temperature during run
   SMASS  =  -3.00    Nose mass-parameter (am)
   estimated Nose-frequenzy (Omega)   =  0.10E-29 period in steps =****** mass=  -0.207E-27a.u.
   SCALEE = 1.0000    scale energy and forces
   NPACO  =    256;   APACO  = 16.0  distance and # of slots for P.C.
   PSTRESS=    0.0 pullay stress

  Mass of Ions in am
   POMASS =  16.00 24.30 26.98
  Ionic Valenz
   ZVAL   =   6.00  2.00  3.00
  Atomic Wigner-Seitz radii
   RWIGS  =  -1.00 -1.00 -1.00
  virtual crystal weights 
   VCA    =   1.00  1.00  1.00
   NELECT =      99.0000    total number of electrons
   NUPDOWN=      -1.0000    fix difference up-down

 DOS related values:
   EMIN   =  10.00;   EMAX   =-10.00  energy-range for DOS
   EFERMI =   0.00
   ISMEAR =    -5;   SIGMA  =   0.05  broadening in eV -4-tet -1-fermi 0-gaus

 Electronic relaxation 2 (details)
   IALGO  =     38    algorithm
   LDIAG  =      T    sub-space diagonalisation (order eigenvalues)
   LSUBROT=      F    optimize rotation matrix (better conditioning)
   TURBO    =      0    0=normal 1=particle mesh
   IRESTART =      0    0=no restart 2=restart with 2 vectors
   NREBOOT  =      0    no. of reboots
   NMIN     =      0    reboot dimension
   EREF     =   0.00    reference energy to select bands
   IMIX   =      4    mixing-type and parameters
     AMIX     =   0.40;   BMIX     =  1.00
     AMIX_MAG =   1.60;   BMIX_MAG =  1.00
     AMIN     =   0.01
     WC   =   100.;   INIMIX=   1;  MIXPRE=   1;  MAXMIX= -45

 Intra band minimization:
   WEIMIN = 0.0000     energy-eigenvalue tresh-hold
   EBREAK =  0.38E-07  absolut break condition
   DEPER  =   0.30     relativ break condition  

   TIME   =   0.40     timestep for ELM

  volume/ion in A,a.u.               =      20.68       139.59
  Fermi-wavevector in a.u.,A,eV,Ry     =   0.931280  1.759865 11.800105  0.867283
  Thomas-Fermi vector in A             =   2.057757
 
 Write flags
   LWAVE        =      F    write WAVECAR
   LDOWNSAMPLE  =      F    k-point downsampling of WAVECAR
   LCHARG       =      T    write CHGCAR
   LVTOT        =      F    write LOCPOT, total local potential
   LVHAR        =      F    write LOCPOT, Hartree potential only
   LELF         =      F    write electronic localiz. function (ELF)
   LORBIT       =      0    0 simple, 1 ext, 2 COOP (PROOUT), +10 PAW based schemes


 Dipole corrections
   LMONO  =      F    monopole corrections only (constant potential shift)
   LDIPOL =      F    correct potential (dipole corrections)
   IDIPOL =      0    1-x, 2-y, 3-z, 4-all directions 
   EPSILON=  1.0000000 bulk dielectric constant

 Exchange correlation treatment:
   GGA     =    --    GGA type
   LEXCH   =     8    internal setting for exchange type
   VOSKOWN=      0    Vosko Wilk Nusair interpolation
   LHFCALC =     F    Hartree Fock is set to
   LHFONE  =     F    Hartree Fock one center treatment
   AEXX    =    0.0000 exact exchange contribution

 Linear response parameters
   LEPSILON=     F    determine dielectric tensor
   LRPA    =     F    only Hartree local field effects (RPA)
   LNABLA  =     F    use nabla operator in PAW spheres
   LVEL    =     F    velocity operator in full k-point grid
   LINTERFAST=   F  fast interpolation
   KINTER  =     0    interpolate to denser k-point grid
   CSHIFT  =0.1000    complex shift for real part using Kramers Kronig
   OMEGAMAX=  -1.0    maximum frequency
   DEG_THRESHOLD= 0.2000000E-02 threshold for treating states as degnerate
   RTIME   =   -0.100 relaxation time in fs
  (WPLASMAI=    0.000 imaginary part of plasma frequency in eV, 0.658/RTIME)
   DFIELD  = 0.0000000 0.0000000 0.0000000 field for delta impulse in time
 
 Orbital magnetization related:
   ORBITALMAG=     F  switch on orbital magnetization
   LCHIMAG   =     F  perturbation theory with respect to B field
   DQ        =  0.001000  dq finite difference perturbation B field
   LLRAUG    =     F  two centre corrections for induced B field



--------------------------------------------------------------------------------------------------------


 Static calculation
 charge density and potential will be updated during run
 non-spin polarized calculation
 Variant of blocked Davidson
 Davidson routine will perform the subspace rotation
 perform sub-space diagonalisation
    after iterative eigenvector-optimisation
 modified Broyden-mixing scheme, WC =      100.0
 initial mixing is a Kerker type mixing with AMIX =  0.4000 and BMIX =      1.0000
 Hartree-type preconditioning will be used
 using additional bands           15
 reciprocal scheme for non local part
 use partial core corrections
 calculate Harris-corrections to forces 
   (improved forces if not selfconsistent)
 use gradient corrections 
 use of overlap-Matrix (Vanderbilt PP)
 Fermi weights with tetrahedron method with Bloechl corrections


--------------------------------------------------------------------------------------------------------


  energy-cutoff  :      520.00
  volume of cell :      537.80
      direct lattice vectors                 reciprocal lattice vectors
     2.607300145 -1.505325125  0.000000000     0.383538505  0.000000000  0.000000000
     0.000000000  3.010650250  0.000000000     0.191769253  0.332154158  0.000000000
    -0.000000000  0.000000000 68.512039442     0.000000000  0.000000000  0.014595975

  length of vectors
     3.010650723  3.010650250 68.512039442     0.383538505  0.383538565  0.014595975


 
 k-points in units of 2pi/SCALE and weight: K-Spacing Value to Generate K-Mesh: 0.02
   0.00000000  0.00000000  0.00000000       0.002
   0.01667559  0.00000000  0.00000000       0.011
   0.03335117  0.00000000  0.00000000       0.011
   0.05002676  0.00000000  0.00000000       0.011
   0.06670235  0.00000000  0.00000000       0.011
   0.08337794  0.00000000  0.00000000       0.011
   0.10005352  0.00000000  0.00000000       0.011
   0.11672911  0.00000000  0.00000000       0.011
   0.13340470  0.00000000  0.00000000       0.011
   0.15008028  0.00000000  0.00000000       0.011
   0.16675587  0.00000000  0.00000000       0.011
   0.18343146  0.00000000  0.00000000       0.011
   0.02501338  0.01444149  0.00000000       0.011
   0.04168897  0.01444149  0.00000000       0.023
   0.05836456  0.01444149  0.00000000       0.023
   0.07504014  0.01444149  0.00000000       0.023
   0.09171573  0.01444149  0.00000000       0.023
   0.10839132  0.01444149  0.00000000       0.023
   0.12506690  0.01444149  0.00000000       0.023
   0.14174249  0.01444149  0.00000000       0.023
   0.15841808  0.01444149  0.00000000       0.023
   0.17509367  0.01444149  0.00000000       0.023
   0.19176925  0.01444149  0.00000000       0.011
   0.05002676  0.02888297  0.00000000       0.011
   0.06670235  0.02888297  0.00000000       0.023
   0.08337794  0.02888297  0.00000000       0.023
   0.10005352  0.02888297  0.00000000       0.023
   0.11672911  0.02888297  0.00000000       0.023
   0.13340470  0.02888297  0.00000000       0.023
   0.15008028  0.02888297  0.00000000       0.023
   0.16675587  0.02888297  0.00000000       0.023
   0.18343146  0.02888297  0.00000000       0.023
   0.07504014  0.04332446  0.00000000       0.011
   0.09171573  0.04332446  0.00000000       0.023
   0.10839132  0.04332446  0.00000000       0.023
   0.12506690  0.04332446  0.00000000       0.023
   0.14174249  0.04332446  0.00000000       0.023
   0.15841808  0.04332446  0.00000000       0.023
   0.17509367  0.04332446  0.00000000       0.023
   0.19176925  0.04332446  0.00000000       0.011
   0.10005352  0.05776594  0.00000000       0.011
   0.11672911  0.05776594  0.00000000       0.023
   0.13340470  0.05776594  0.00000000       0.023
   0.15008028  0.05776594  0.00000000       0.023
   0.16675587  0.05776594  0.00000000       0.023
   0.18343146  0.05776594  0.00000000       0.023
   0.12506690  0.07220743  0.00000000       0.011
   0.14174249  0.07220743  0.00000000       0.023
   0.15841808  0.07220743  0.00000000       0.023
   0.17509367  0.07220743  0.00000000       0.023
   0.19176925  0.07220743  0.00000000       0.011
   0.15008028  0.08664891  0.00000000       0.011
   0.16675587  0.08664891  0.00000000       0.023
   0.18343146  0.08664891  0.00000000       0.023
   0.17509367  0.10109040  0.00000000       0.011
   0.19176925  0.10109040  0.00000000       0.011
 
 k-points in reciprocal lattice and weights: K-Spacing Value to Generate K-Mesh: 0.02
   0.00000000  0.00000000  0.00000000       0.002
   0.04347826  0.00000000 -0.00000000       0.011
   0.08695652  0.00000000 -0.00000000       0.011
   0.13043478  0.00000000 -0.00000000       0.011
   0.17391304  0.00000000 -0.00000000       0.011
   0.21739130  0.00000000 -0.00000000       0.011
   0.26086957  0.00000000 -0.00000000       0.011
   0.30434783  0.00000000  0.00000000       0.011
   0.34782609  0.00000000 -0.00000000       0.011
   0.39130435  0.00000000 -0.00000000       0.011
   0.43478261  0.00000000 -0.00000000       0.011
   0.47826087  0.00000000 -0.00000000       0.011
   0.04347826  0.04347826 -0.00000000       0.011
   0.08695652  0.04347826  0.00000000       0.023
   0.13043478  0.04347826 -0.00000000       0.023
   0.17391304  0.04347826 -0.00000000       0.023
   0.21739130  0.04347826 -0.00000000       0.023
   0.26086957  0.04347826 -0.00000000       0.023
   0.30434783  0.04347826 -0.00000000       0.023
   0.34782609  0.04347826 -0.00000000       0.023
   0.39130435  0.04347826 -0.00000000       0.023
   0.43478261  0.04347826 -0.00000000       0.023
   0.47826087  0.04347826 -0.00000000       0.011
   0.08695652  0.08695652 -0.00000000       0.011
   0.13043478  0.08695652 -0.00000000       0.023
   0.17391304  0.08695652 -0.00000000       0.023
   0.21739130  0.08695652 -0.00000000       0.023
   0.26086957  0.08695652 -0.00000000       0.023
   0.30434783  0.08695652 -0.00000000       0.023
   0.34782609  0.08695652 -0.00000000       0.023
   0.39130435  0.08695652 -0.00000000       0.023
   0.43478261  0.08695652 -0.00000000       0.023
   0.13043478  0.13043478 -0.00000000       0.011
   0.17391304  0.13043478 -0.00000000       0.023
   0.21739130  0.13043478 -0.00000000       0.023
   0.26086957  0.13043478 -0.00000000       0.023
   0.30434783  0.13043478 -0.00000000       0.023
   0.34782609  0.13043478  0.00000000       0.023
   0.39130435  0.13043478 -0.00000000       0.023
   0.43478261  0.13043478 -0.00000000       0.011
   0.17391304  0.17391304 -0.00000000       0.011
   0.21739130  0.17391304 -0.00000000       0.023
   0.26086957  0.17391304 -0.00000000       0.023
   0.30434783  0.17391304 -0.00000000       0.023
   0.34782609  0.17391304 -0.00000000       0.023
   0.39130435  0.17391304 -0.00000000       0.023
   0.21739130  0.21739130 -0.00000000       0.011
   0.26086957  0.21739130  0.00000000       0.023
   0.30434783  0.21739130  0.00000000       0.023
   0.34782609  0.21739130  0.00000000       0.023
   0.39130435  0.21739130 -0.00000000       0.011
   0.26086957  0.26086957 -0.00000000       0.011
   0.30434783  0.26086957 -0.00000000       0.023
   0.34782609  0.26086957 -0.00000000       0.023
   0.30434783  0.30434783 -0.00000000       0.011
   0.34782609  0.30434783 -0.00000000       0.011
 
 position of ions in fractional coordinates (direct lattice) 
   0.00000000  0.00000000  0.44969645
   0.33333300  0.66666700  0.48406084
   0.00000000  0.00000000  0.55574965
   0.33333300  0.66666700  0.59157169
   0.00000000  0.00000000  0.66321054
   0.33333300  0.66666700  0.69894487
   0.00000000  0.00000000  0.76750620
   0.66666700  0.33333300  0.51990002
   0.66666700  0.33333300  0.62740417
   0.66666700  0.33333300  0.73419535
   0.00000000  0.00000000  0.50222264
   0.00000000  0.00000000  0.60974723
   0.00000000  0.00000000  0.71737233
   0.66666700  0.33333300  0.46631921
   0.66666700  0.33333300  0.57391416
   0.66666700  0.33333300  0.68142297
   0.33333300  0.66666700  0.53807549
   0.33333300  0.66666700  0.64557943
   0.33333300  0.66666700  0.75406724
   0.00000000  0.00000000  0.23148131
   0.00000000  0.00000000  0.32825908
   0.00000000  0.00000000  0.42460586
   0.66666700  0.33333300  0.29614856
   0.66666700  0.33333300  0.39331979
   0.33333300  0.66666700  0.26405646
   0.33333300  0.66666700  0.36069645
 
 position of ions in cartesian coordinates  (Angst):
  -0.00000000  0.00000000 30.80962061
   0.86909918  1.50532663 33.16399569
  -0.00000000  0.00000000 38.07554189
   0.86909918  1.50532663 40.52978274
  -0.00000000  0.00000000 45.43790688
   0.86909918  1.50532663 47.88613874
  -0.00000000  0.00000000 52.58341471
   1.73820097 -0.00000151 35.61941073
   1.73820097 -0.00000151 42.98473958
   1.73820097 -0.00000151 50.30122081
  -0.00000000  0.00000000 34.40829739
  -0.00000000  0.00000000 41.77502640
  -0.00000000  0.00000000 49.14864148
   1.73820097 -0.00000151 31.94847977
   1.73820097 -0.00000151 39.32002941
   1.73820097 -0.00000151 46.68567765
   0.86909918  1.50532663 36.86464935
   0.86909918  1.50532663 44.22996312
   0.86909918  1.50532663 51.66268417
  -0.00000000  0.00000000 15.85925671
  -0.00000000  0.00000000 22.48969930
  -0.00000000  0.00000000 29.09061332
   1.73820097 -0.00000151 20.28974169
   1.73820097 -0.00000151 26.94714130
   0.86909918  1.50532663 18.09104667
   0.86909918  1.50532663 24.71204966
 


--------------------------------------------------------------------------------------------------------


 k-point  1 :   0.0000 0.0000 0.0000  plane waves:   14643
 k-point  2 :   0.0435 0.0000-0.0000  plane waves:   14645
 k-point  3 :   0.0870 0.0000-0.0000  plane waves:   14631
 k-point  4 :   0.1304 0.0000-0.0000  plane waves:   14615
 k-point  5 :   0.1739 0.0000-0.0000  plane waves:   14600
 k-point  6 :   0.2174 0.0000-0.0000  plane waves:   14574
 k-point  7 :   0.2609 0.0000-0.0000  plane waves:   14524
 k-point  8 :   0.3043 0.0000 0.0000  plane waves:   14474
 k-point  9 :   0.3478 0.0000-0.0000  plane waves:   14464
 k-point 10 :   0.3913 0.0000-0.0000  plane waves:   14412
 k-point 11 :   0.4348 0.0000-0.0000  plane waves:   14428
 k-point 12 :   0.4783 0.0000-0.0000  plane waves:   14456
 k-point 13 :   0.0435 0.0435-0.0000  plane waves:   14637
 k-point 14 :   0.0870 0.0435 0.0000  plane waves:   14627
 k-point 15 :   0.1304 0.0435-0.0000  plane waves:   14591
 k-point 16 :   0.1739 0.0435-0.0000  plane waves:   14578
 k-point 17 :   0.2174 0.0435-0.0000  plane waves:   14538
 k-point 18 :   0.2609 0.0435-0.0000  plane waves:   14499
 k-point 19 :   0.3043 0.0435-0.0000  plane waves:   14473
 k-point 20 :   0.3478 0.0435-0.0000  plane waves:   14428
 k-point 21 :   0.3913 0.0435-0.0000  plane waves:   14426
 k-point 22 :   0.4348 0.0435-0.0000  plane waves:   14418
 k-point 23 :   0.4783 0.0435-0.0000  plane waves:   14456
 k-point 24 :   0.0870 0.0870-0.0000  plane waves:   14593
 k-point 25 :   0.1304 0.0870-0.0000  plane waves:   14580
 k-point 26 :   0.1739 0.0870-0.0000  plane waves:   14581
 k-point 27 :   0.2174 0.0870-0.0000  plane waves:   14526
 k-point 28 :   0.2609 0.0870-0.0000  plane waves:   14483
 k-point 29 :   0.3043 0.0870-0.0000  plane waves:   14442
 k-point 30 :   0.3478 0.0870-0.0000  plane waves:   14437
 k-point 31 :   0.3913 0.0870-0.0000  plane waves:   14417
 k-point 32 :   0.4348 0.0870-0.0000  plane waves:   14403
 k-point 33 :   0.1304 0.1304-0.0000  plane waves:   14587
 k-point 34 :   0.1739 0.1304-0.0000  plane waves:   14553
 k-point 35 :   0.2174 0.1304-0.0000  plane waves:   14485
 k-point 36 :   0.2609 0.1304-0.0000  plane waves:   14454
 k-point 37 :   0.3043 0.1304-0.0000  plane waves:   14459
 k-point 38 :   0.3478 0.1304 0.0000  plane waves:   14429
 k-point 39 :   0.3913 0.1304-0.0000  plane waves:   14387
 k-point 40 :   0.4348 0.1304-0.0000  plane waves:   14388
 k-point 41 :   0.1739 0.1739-0.0000  plane waves:   14487
 k-point 42 :   0.2174 0.1739-0.0000  plane waves:   14448
 k-point 43 :   0.2609 0.1739-0.0000  plane waves:   14459
 k-point 44 :   0.3043 0.1739-0.0000  plane waves:   14430
 k-point 45 :   0.3478 0.1739-0.0000  plane waves:   14427
 k-point 46 :   0.3913 0.1739-0.0000  plane waves:   14393
 k-point 47 :   0.2174 0.2174-0.0000  plane waves:   14454
 k-point 48 :   0.2609 0.2174 0.0000  plane waves:   14454
 k-point 49 :   0.3043 0.2174 0.0000  plane waves:   14437
 k-point 50 :   0.3478 0.2174 0.0000  plane waves:   14427
 k-point 51 :   0.3913 0.2174-0.0000  plane waves:   14432
 k-point 52 :   0.2609 0.2609-0.0000  plane waves:   14434
 k-point 53 :   0.3043 0.2609-0.0000  plane waves:   14430
 k-point 54 :   0.3478 0.2609-0.0000  plane waves:   14438
 k-point 55 :   0.3043 0.3043-0.0000  plane waves:   14436
 k-point 56 :   0.3478 0.3043-0.0000  plane waves:   14450

 maximum and minimum number of plane-waves per node :      3678     3573

 maximum number of plane-waves:     14645
 maximum index in each direction: 
   IXMAX=    5   IYMAX=    5   IZMAX=  127
   IXMIN=   -6   IYMIN=   -5   IZMIN= -127


 parallel 3D FFT for wavefunctions:
    minimum data exchange during FFTs selected (reduces bandwidth)
 parallel 3D FFT for charge:
    minimum data exchange during FFTs selected (reduces bandwidth)


 total amount of memory used by VASP MPI-rank0   172228. kBytes
=======================================================================

   base      :      30000. kBytes
   nonl-proj :      65827. kBytes
   fftplans  :      20263. kBytes
   grid      :      12402. kBytes
   one-center:         56. kBytes
   wavefun   :      43680. kBytes
 
     INWAV:  cpu time    0.0000: real time    0.0000
 Broyden mixing: mesh for mixing (old mesh)
   NGX = 11   NGY = 11   NGZ =255
  (NGX  = 48   NGY  = 48   NGZ  =***)
  gives a total of  30855 points

 initial charge density was supplied:
 charge density of overlapping atoms calculated
 number of electron      99.0000000 magnetization 
 keeping initial charge density in first step


--------------------------------------------------------------------------------------------------------


 Maximum index for augmentation-charges         9614 (set IRDMAX)


--------------------------------------------------------------------------------------------------------


 First call to EWALD:  gamma=   0.218
 Maximum number of real-space cells 8x 8x 1
 Maximum number of reciprocal cells 1x 1x20

    FEWALD:  cpu time    0.0016: real time    0.0016


--------------------------------------- Iteration      1(   1)  ---------------------------------------


    POTLOK:  cpu time    0.0602: real time    0.0613
    SETDIJ:  cpu time    0.0947: real time    0.0950
     EDDAV:  cpu time   10.5386: real time   10.5484
 BZINTS: Fermi energy: 12.062664; 99.000000 electrons
         Band energy: -19.947785;  BLOECHL correction: -0.045457
       DOS:  cpu time    0.0189: real time    0.0189
    --------------------------------------------
      LOOP:  cpu time   10.7124: real time   10.7236

 eigenvalue-minimisations  :  7500
 total energy-change (2. order) : 0.7130845E+03  (-0.4119470E+04)
 number of electron      99.0000000 magnetization 
 augmentation part       99.0000000 magnetization 

 Free energy of the ion-electron system (eV)
  ---------------------------------------------------
  alpha Z        PSCENC =        78.47135263
  Ewald energy   TEWEN  =    157081.89432845
  -Hartree energ DENC   =   -161663.02098103
  -exchange      EXHF   =         0.00000000
  -V(xc)+E(xc)   XCENC  =      -342.45292551
  PAW double counting   =      4516.65612620    -3844.19644948
  entropy T*S    EENTRO =         0.00000000
  eigenvalues    EBANDS =       -19.94778535
  atomic energy  EATOM  =      4905.68083858
  Solvation  Ediel_sol  =         0.00000000
  ---------------------------------------------------
  free energy    TOTEN  =       713.08450449 eV

  energy without entropy =      713.08450449  energy(sigma->0) =      713.08450449


--------------------------------------------------------------------------------------------------------




--------------------------------------- Iteration      1(   2)  ---------------------------------------


     EDDAV:  cpu time   12.6072: real time   12.6189
 BZINTS: Fermi energy:  0.938986; 99.000000 electrons
         Band energy:-776.385678;  BLOECHL correction: -0.060365
       DOS:  cpu time    0.0172: real time    0.0172
    --------------------------------------------
      LOOP:  cpu time   12.6244: real time   12.6361

 eigenvalue-minimisations  :  9635
 total energy-change (2. order) :-0.7564379E+03  (-0.7149507E+03)
 number of electron      99.0000000 magnetization 
 augmentation part       99.0000000 magnetization 

 Free energy of the ion-electron system (eV)
  ---------------------------------------------------
  alpha Z        PSCENC =        78.47135263
  Ewald energy   TEWEN  =    157081.89432845
  -Hartree energ DENC   =   -161663.02098103
  -exchange      EXHF   =         0.00000000
  -V(xc)+E(xc)   XCENC  =      -342.45292551
  PAW double counting   =      4516.65612620    -3844.19644948
  entropy T*S    EENTRO =         0.00000000
  eigenvalues    EBANDS =      -776.38567782
  atomic energy  EATOM  =      4905.68083858
  Solvation  Ediel_sol  =         0.00000000
  ---------------------------------------------------
  free energy    TOTEN  =       -43.35338798 eV

  energy without entropy =      -43.35338798  energy(sigma->0) =      -43.35338798


--------------------------------------------------------------------------------------------------------




--------------------------------------- Iteration      1(   3)  ---------------------------------------


     EDDAV:  cpu time   11.4862: real time   11.4972
 BZINTS: Fermi energy:  0.417365; 99.000000 electrons
         Band energy:-887.870533;  BLOECHL correction: -0.053622
       DOS:  cpu time    0.0167: real time    0.0167
    --------------------------------------------
      LOOP:  cpu time   11.5029: real time   11.5139

 eigenvalue-minimisations  :  8525
 total energy-change (2. order) :-0.1114849E+03  (-0.1106676E+03)
 number of electron      99.0000000 magnetization 
 augmentation part       99.0000000 magnetization 

 Free energy of the ion-electron system (eV)
  ---------------------------------------------------
  alpha Z        PSCENC =        78.47135263
  Ewald energy   TEWEN  =    157081.89432845
  -Hartree energ DENC   =   -161663.02098103
  -exchange      EXHF   =         0.00000000
  -V(xc)+E(xc)   XCENC  =      -342.45292551
  PAW double counting   =      4516.65612620    -3844.19644948
  entropy T*S    EENTRO =         0.00000000
  eigenvalues    EBANDS =      -887.87053273
  atomic energy  EATOM  =      4905.68083858
  Solvation  Ediel_sol  =         0.00000000
  ---------------------------------------------------
  free energy    TOTEN  =      -154.83824289 eV

  energy without entropy =     -154.83824289  energy(sigma->0) =     -154.83824289


--------------------------------------------------------------------------------------------------------




--------------------------------------- Iteration      1(   4)  ---------------------------------------


     EDDAV:  cpu time   11.8061: real time   11.8168
 BZINTS: Fermi energy:  0.397652; 99.000000 electrons
         Band energy:-891.043208;  BLOECHL correction: -0.053360
       DOS:  cpu time    0.0165: real time    0.0165
    --------------------------------------------
      LOOP:  cpu time   11.8226: real time   11.8333

 eigenvalue-minimisations  :  8870
 total energy-change (2. order) :-0.3172675E+01  (-0.3165933E+01)
 number of electron      99.0000000 magnetization 
 augmentation part       99.0000000 magnetization 

 Free energy of the ion-electron system (eV)
  ---------------------------------------------------
  alpha Z        PSCENC =        78.47135263
  Ewald energy   TEWEN  =    157081.89432845
  -Hartree energ DENC   =   -161663.02098103
  -exchange      EXHF   =         0.00000000
  -V(xc)+E(xc)   XCENC  =      -342.45292551
  PAW double counting   =      4516.65612620    -3844.19644948
  entropy T*S    EENTRO =         0.00000000
  eigenvalues    EBANDS =      -891.04320818
  atomic energy  EATOM  =      4905.68083858
  Solvation  Ediel_sol  =         0.00000000
  ---------------------------------------------------
  free energy    TOTEN  =      -158.01091834 eV

  energy without entropy =     -158.01091834  energy(sigma->0) =     -158.01091834


--------------------------------------------------------------------------------------------------------




--------------------------------------- Iteration      1(   5)  ---------------------------------------


     EDDAV:  cpu time   12.7956: real time   12.8075
 BZINTS: Fermi energy:  0.396983; 99.000000 electrons
         Band energy:-891.131851;  BLOECHL correction: -0.053315
       DOS:  cpu time    0.0164: real time    0.0164
    CHARGE:  cpu time    0.5297: real time    0.5301
    MIXING:  cpu time    0.0051: real time    0.0053
    --------------------------------------------
      LOOP:  cpu time   13.3469: real time   13.3593

 eigenvalue-minimisations  :  9865
 total energy-change (2. order) :-0.8864262E-01  (-0.8862141E-01)
 number of electron      99.0000001 magnetization 
 augmentation part        7.8677048 magnetization 

 Broyden mixing:
  rms(total) = 0.24256E+01    rms(broyden)= 0.24251E+01
  rms(prec ) = 0.25092E+01
  weight for this iteration     100.00

 Free energy of the ion-electron system (eV)
  ---------------------------------------------------
  alpha Z        PSCENC =        78.47135263
  Ewald energy   TEWEN  =    157081.89432845
  -Hartree energ DENC   =   -161663.02098103
  -exchange      EXHF   =         0.00000000
  -V(xc)+E(xc)   XCENC  =      -342.45292551
  PAW double counting   =      4516.65612620    -3844.19644948
  entropy T*S    EENTRO =         0.00000000
  eigenvalues    EBANDS =      -891.13185080
  atomic energy  EATOM  =      4905.68083858
  Solvation  Ediel_sol  =         0.00000000
  ---------------------------------------------------
  free energy    TOTEN  =      -158.09956095 eV

  energy without entropy =     -158.09956095  energy(sigma->0) =     -158.09956095


--------------------------------------------------------------------------------------------------------




--------------------------------------- Iteration      1(   6)  ---------------------------------------


    POTLOK:  cpu time    0.0569: real time    0.0569
    SETDIJ:  cpu time    0.0888: real time    0.0892
     EDDAV:  cpu time   11.8422: real time   11.8524
 BZINTS: Fermi energy:  0.519281; 99.000000 electrons
         Band energy:-650.593185;  BLOECHL correction: -0.061186
       DOS:  cpu time    0.0174: real time    0.0174
    CHARGE:  cpu time    0.5359: real time    0.5363
    MIXING:  cpu time    0.0027: real time    0.0027
    --------------------------------------------
      LOOP:  cpu time   12.5439: real time   12.5549

 eigenvalue-minimisations  :  8795
 total energy-change (2. order) : 0.1355672E+02  (-0.1255378E+02)
 number of electron      99.0000001 magnetization 
 augmentation part        5.5537264 magnetization 

 Broyden mixing:
  rms(total) = 0.25734E+01    rms(broyden)= 0.25725E+01
  rms(prec ) = 0.32818E+01
  weight for this iteration     100.00

 eigenvalues of (default mixing * dielectric matrix)
  average eigenvalue GAMMA=   0.4925
  0.4925

 Free energy of the ion-electron system (eV)
  ---------------------------------------------------
  alpha Z        PSCENC =        78.47135263
  Ewald energy   TEWEN  =    157081.89432845
  -Hartree energ DENC   =   -161900.32353953
  -exchange      EXHF   =         0.00000000
  -V(xc)+E(xc)   XCENC  =      -328.48990470
  PAW double counting   =      5434.21953261    -4765.40226528
  entropy T*S    EENTRO =         0.00000000
  eigenvalues    EBANDS =      -650.59318474
  atomic energy  EATOM  =      4905.68083858
  Solvation  Ediel_sol  =         0.00000000
  ---------------------------------------------------
  free energy    TOTEN  =      -144.54284198 eV

  energy without entropy =     -144.54284198  energy(sigma->0) =     -144.54284198


--------------------------------------------------------------------------------------------------------




--------------------------------------- Iteration      1(   7)  ---------------------------------------


    POTLOK:  cpu time    0.0569: real time    0.0574
    SETDIJ:  cpu time    0.0902: real time    0.0906
     EDDAV:  cpu time   11.4970: real time   11.5072
 BZINTS: Fermi energy:  1.195611; 99.000000 electrons
         Band energy:-702.518366;  BLOECHL correction: -0.058738
       DOS:  cpu time    0.0170: real time    0.0170
    CHARGE:  cpu time    0.5384: real time    0.5389
    MIXING:  cpu time    0.0027: real time    0.0027
    --------------------------------------------
      LOOP:  cpu time   12.2022: real time   12.2138

 eigenvalue-minimisations  :  8440
 total energy-change (2. order) :-0.1367869E+01  (-0.2286395E+02)
 number of electron      99.0000001 magnetization 
 augmentation part        6.5386223 magnetization 

 Broyden mixing:
  rms(total) = 0.11695E+01    rms(broyden)= 0.11682E+01
  rms(prec ) = 0.12981E+01
  weight for this iteration     100.00

 eigenvalues of (default mixing * dielectric matrix)
  average eigenvalue GAMMA=   0.5608
  0.8278  0.2939

 Free energy of the ion-electron system (eV)
  ---------------------------------------------------
  alpha Z        PSCENC =        78.47135263
  Ewald energy   TEWEN  =    157081.89432845
  -Hartree energ DENC   =   -161848.79983526
  -exchange      EXHF   =         0.00000000
  -V(xc)+E(xc)   XCENC  =      -329.97587620
  PAW double counting   =      5550.85625008    -4881.51940330
  entropy T*S    EENTRO =         0.00000000
  eigenvalues    EBANDS =      -702.51836615
  atomic energy  EATOM  =      4905.68083858
  Solvation  Ediel_sol  =         0.00000000
  ---------------------------------------------------
  free energy    TOTEN  =      -145.91071118 eV

  energy without entropy =     -145.91071118  energy(sigma->0) =     -145.91071118


--------------------------------------------------------------------------------------------------------




--------------------------------------- Iteration      1(   8)  ---------------------------------------


    POTLOK:  cpu time    0.0568: real time    0.0572
    SETDIJ:  cpu time    0.0902: real time    0.0907
     EDDAV:  cpu time   11.9093: real time   11.9197
 BZINTS: Fermi energy:  0.828095; 99.000000 electrons
         Band energy:-681.144022;  BLOECHL correction: -0.057716
       DOS:  cpu time    0.0169: real time    0.0169
    CHARGE:  cpu time    0.5398: real time    0.5402
    MIXING:  cpu time    0.0030: real time    0.0030
    --------------------------------------------
      LOOP:  cpu time   12.6161: real time   12.6277

 eigenvalue-minimisations  :  8630
 total energy-change (2. order) : 0.3104387E+01  (-0.3397126E+00)
 number of electron      99.0000001 magnetization 
 augmentation part        6.5097208 magnetization 

 Broyden mixing:
  rms(total) = 0.76395E+00    rms(broyden)= 0.76394E+00
  rms(prec ) = 0.93603E+00
  weight for this iteration     100.00

 eigenvalues of (default mixing * dielectric matrix)
  average eigenvalue GAMMA=   1.0226
  0.3398  0.9898  1.7384

 Free energy of the ion-electron system (eV)
  ---------------------------------------------------
  alpha Z        PSCENC =        78.47135263
  Ewald energy   TEWEN  =    157081.89432845
  -Hartree energ DENC   =   -161868.12470248
  -exchange      EXHF   =         0.00000000
  -V(xc)+E(xc)   XCENC  =      -328.98691593
  PAW double counting   =      5828.17633407    -5158.77353818
  entropy T*S    EENTRO =         0.00000000
  eigenvalues    EBANDS =      -681.14402169
  atomic energy  EATOM  =      4905.68083858
  Solvation  Ediel_sol  =         0.00000000
  ---------------------------------------------------
  free energy    TOTEN  =      -142.80632453 eV

  energy without entropy =     -142.80632453  energy(sigma->0) =     -142.80632453


--------------------------------------------------------------------------------------------------------




--------------------------------------- Iteration      1(   9)  ---------------------------------------


    POTLOK:  cpu time    0.0570: real time    0.0570
    SETDIJ:  cpu time    0.0903: real time    0.0904
     EDDAV:  cpu time   12.3728: real time   12.3839
 BZINTS: Fermi energy: -0.103845; 99.000000 electrons
         Band energy:-646.696585;  BLOECHL correction: -0.058640
       DOS:  cpu time    0.0166: real time    0.0166
    CHARGE:  cpu time    0.5302: real time    0.5306
    MIXING:  cpu time    0.0034: real time    0.0034
    --------------------------------------------
      LOOP:  cpu time   13.0704: real time   13.0820

 eigenvalue-minimisations  :  9115
 total energy-change (2. order) : 0.4009641E+01  (-0.1958410E+00)
 number of electron      99.0000001 magnetization 
 augmentation part        6.4660485 magnetization 

 Broyden mixing:
  rms(total) = 0.44910E+00    rms(broyden)= 0.44908E+00
  rms(prec ) = 0.68904E+00
  weight for this iteration     100.00

 eigenvalues of (default mixing * dielectric matrix)
  average eigenvalue GAMMA=   1.2227
  2.3466  0.3431  0.9429  1.2584

 Free energy of the ion-electron system (eV)
  ---------------------------------------------------
  alpha Z        PSCENC =        78.47135263
  Ewald energy   TEWEN  =    157081.89432845
  -Hartree energ DENC   =   -161900.03891951
  -exchange      EXHF   =         0.00000000
  -V(xc)+E(xc)   XCENC  =      -327.56227928
  PAW double counting   =      6130.67660917    -5461.22202849
  entropy T*S    EENTRO =         0.00000000
  eigenvalues    EBANDS =      -646.69658511
  atomic energy  EATOM  =      4905.68083858
  Solvation  Ediel_sol  =         0.00000000
  ---------------------------------------------------
  free energy    TOTEN  =      -138.79668356 eV

  energy without entropy =     -138.79668356  energy(sigma->0) =     -138.79668356


--------------------------------------------------------------------------------------------------------




--------------------------------------- Iteration      1(  10)  ---------------------------------------


    POTLOK:  cpu time    0.0577: real time    0.0578
    SETDIJ:  cpu time    0.0894: real time    0.0894
     EDDAV:  cpu time   12.2423: real time   12.2532
 BZINTS: Fermi energy:  0.346767; 99.000000 electrons
         Band energy:-624.108201;  BLOECHL correction: -0.047586
       DOS:  cpu time    0.0174: real time    0.0174
    CHARGE:  cpu time    0.5257: real time    0.5261
    MIXING:  cpu time    0.0028: real time    0.0027
    --------------------------------------------
      LOOP:  cpu time   12.9352: real time   12.9465

 eigenvalue-minimisations  :  9205
 total energy-change (2. order) :-0.6276070E+01  (-0.3572295E+01)
 number of electron      99.0000001 magnetization 
 augmentation part        5.3816318 magnetization 

 Broyden mixing:
  rms(total) = 0.24119E+01    rms(broyden)= 0.24113E+01
  rms(prec ) = 0.34321E+01
  weight for this iteration     100.00

 eigenvalues of (default mixing * dielectric matrix)
  average eigenvalue GAMMA=   0.9909
  2.3272  1.2490  0.8775  0.3511  0.1496

 Free energy of the ion-electron system (eV)
  ---------------------------------------------------
  alpha Z        PSCENC =        78.47135263
  Ewald energy   TEWEN  =    157081.89432845
  -Hartree energ DENC   =   -161929.60028958
  -exchange      EXHF   =         0.00000000
  -V(xc)+E(xc)   XCENC  =      -326.93824339
  PAW double counting   =      6244.92974896    -5575.40228794
  entropy T*S    EENTRO =         0.00000000
  eigenvalues    EBANDS =      -624.10820128
  atomic energy  EATOM  =      4905.68083858
  Solvation  Ediel_sol  =         0.00000000
  ---------------------------------------------------
  free energy    TOTEN  =      -145.07275357 eV

  energy without entropy =     -145.07275357  energy(sigma->0) =     -145.07275357


--------------------------------------------------------------------------------------------------------




--------------------------------------- Iteration      1(  11)  ---------------------------------------


    POTLOK:  cpu time    0.0583: real time    0.0589
    SETDIJ:  cpu time    0.0920: real time    0.0925
     EDDAV:  cpu time   11.7928: real time   11.8033
 BZINTS: Fermi energy:  0.204721; 99.000000 electrons
         Band energy:-627.316877;  BLOECHL correction: -0.049113
       DOS:  cpu time    0.0182: real time    0.0182
    CHARGE:  cpu time    0.5314: real time    0.5318
    MIXING:  cpu time    0.0058: real time    0.0058
    --------------------------------------------
      LOOP:  cpu time   12.4985: real time   12.5105

 eigenvalue-minimisations  :  8810
 total energy-change (2. order) : 0.6158988E+01  (-0.1869075E+01)
 number of electron      99.0000001 magnetization 
 augmentation part        5.8538194 magnetization 

 Broyden mixing:
  rms(total) = 0.14401E+01    rms(broyden)= 0.14398E+01
  rms(prec ) = 0.18700E+01
  weight for this iteration     100.00

 eigenvalues of (default mixing * dielectric matrix)
  average eigenvalue GAMMA=   0.8546
  2.3251  1.1441  0.8211  0.3545  0.2415  0.2415

 Free energy of the ion-electron system (eV)
  ---------------------------------------------------
  alpha Z        PSCENC =        78.47135263
  Ewald energy   TEWEN  =    157081.89432845
  -Hartree energ DENC   =   -161920.23747527
  -exchange      EXHF   =         0.00000000
  -V(xc)+E(xc)   XCENC  =      -327.03588934
  PAW double counting   =      6325.32903051    -5655.69907395
  entropy T*S    EENTRO =         0.00000000
  eigenvalues    EBANDS =      -627.31687727
  atomic energy  EATOM  =      4905.68083858
  Solvation  Ediel_sol  =         0.00000000
  ---------------------------------------------------
  free energy    TOTEN  =      -138.91376566 eV

  energy without entropy =     -138.91376566  energy(sigma->0) =     -138.91376566


--------------------------------------------------------------------------------------------------------




--------------------------------------- Iteration      1(  12)  ---------------------------------------


    POTLOK:  cpu time    0.0584: real time    0.0588
    SETDIJ:  cpu time    0.0919: real time    0.0923
     EDDAV:  cpu time   12.5307: real time   12.5419
 BZINTS: Fermi energy: -0.412365; 99.000000 electrons
         Band energy:-633.199055;  BLOECHL correction: -0.056356
       DOS:  cpu time    0.0156: real time    0.0156
    CHARGE:  cpu time    0.5328: real time    0.5331
    MIXING:  cpu time    0.0027: real time    0.0027
    --------------------------------------------
      LOOP:  cpu time   13.2321: real time   13.2445

 eigenvalue-minimisations  :  9600
 total energy-change (2. order) : 0.7848650E+00  (-0.1528895E+01)
 number of electron      99.0000001 magnetization 
 augmentation part        6.5025290 magnetization 

 Broyden mixing:
  rms(total) = 0.46743E+00    rms(broyden)= 0.46512E+00
  rms(prec ) = 0.69559E+00
  weight for this iteration     100.00

 eigenvalues of (default mixing * dielectric matrix)
  average eigenvalue GAMMA=   0.8579
  2.2678  0.9958  0.9958  0.7888  0.3750  0.2909  0.2909

 Free energy of the ion-electron system (eV)
  ---------------------------------------------------
  alpha Z        PSCENC =        78.47135263
  Ewald energy   TEWEN  =    157081.89432845
  -Hartree energ DENC   =   -161913.43707471
  -exchange      EXHF   =         0.00000000
  -V(xc)+E(xc)   XCENC  =      -327.18480567
  PAW double counting   =      6328.39198326    -5658.74646864
  entropy T*S    EENTRO =         0.00000000
  eigenvalues    EBANDS =      -633.19905458
  atomic energy  EATOM  =      4905.68083858
  Solvation  Ediel_sol  =         0.00000000
  ---------------------------------------------------
  free energy    TOTEN  =      -138.12890068 eV

  energy without entropy =     -138.12890068  energy(sigma->0) =     -138.12890068


--------------------------------------------------------------------------------------------------------




--------------------------------------- Iteration      1(  13)  ---------------------------------------


    POTLOK:  cpu time    0.0596: real time    0.0597
    SETDIJ:  cpu time    0.0920: real time    0.0921
     EDDAV:  cpu time   11.5854: real time   11.5957
 BZINTS: Fermi energy: -0.479602; 99.000000 electrons
         Band energy:-628.512257;  BLOECHL correction: -0.052483
       DOS:  cpu time    0.0169: real time    0.0169
    CHARGE:  cpu time    0.5333: real time    0.5336
    MIXING:  cpu time    0.0028: real time    0.0028
    --------------------------------------------
      LOOP:  cpu time   12.2900: real time   12.3008

 eigenvalue-minimisations  :  8660
 total energy-change (2. order) : 0.2195123E+00  (-0.1409592E-01)
 number of electron      99.0000001 magnetization 
 augmentation part        6.4752149 magnetization 

 Broyden mixing:
  rms(total) = 0.43173E+00    rms(broyden)= 0.43159E+00
  rms(prec ) = 0.62732E+00
  weight for this iteration     100.00

 eigenvalues of (default mixing * dielectric matrix)
  average eigenvalue GAMMA=   0.8975
  2.3454  1.1540  0.9913  0.9913  0.6179  0.4614  0.3095  0.3095

 Free energy of the ion-electron system (eV)
  ---------------------------------------------------
  alpha Z        PSCENC =        78.47135263
  Ewald energy   TEWEN  =    157081.89432845
  -Hartree energ DENC   =   -161918.03634787
  -exchange      EXHF   =         0.00000000
  -V(xc)+E(xc)   XCENC  =      -327.03318841
  PAW double counting   =      6329.99662791    -5660.37074252
  entropy T*S    EENTRO =         0.00000000
  eigenvalues    EBANDS =      -628.51225713
  atomic energy  EATOM  =      4905.68083858
  Solvation  Ediel_sol  =         0.00000000
  ---------------------------------------------------
  free energy    TOTEN  =      -137.90938836 eV

  energy without entropy =     -137.90938836  energy(sigma->0) =     -137.90938836


--------------------------------------------------------------------------------------------------------




--------------------------------------- Iteration      1(  14)  ---------------------------------------


    POTLOK:  cpu time    0.0581: real time    0.0582
    SETDIJ:  cpu time    0.0905: real time    0.0906
     EDDAV:  cpu time   11.4851: real time   11.4953
 BZINTS: Fermi energy: -0.502076; 99.000000 electrons
         Band energy:-625.975315;  BLOECHL correction: -0.051293
       DOS:  cpu time    0.0170: real time    0.0170
    CHARGE:  cpu time    0.5324: real time    0.5328
    MIXING:  cpu time    0.0032: real time    0.0032
    --------------------------------------------
      LOOP:  cpu time   12.1863: real time   12.1970

 eigenvalue-minimisations  :  8615
 total energy-change (2. order) : 0.1894310E-01  (-0.3319641E-02)
 number of electron      99.0000001 magnetization 
 augmentation part        6.4713063 magnetization 

 Broyden mixing:
  rms(total) = 0.44041E+00    rms(broyden)= 0.44041E+00
  rms(prec ) = 0.63331E+00
  weight for this iteration     100.00

 eigenvalues of (default mixing * dielectric matrix)
  average eigenvalue GAMMA=   0.9447
  2.4311  1.5596  1.0952  1.0952  0.8842  0.3989  0.3989  0.3197  0.3197

 Free energy of the ion-electron system (eV)
  ---------------------------------------------------
  alpha Z        PSCENC =        78.47135263
  Ewald energy   TEWEN  =    157081.89432845
  -Hartree energ DENC   =   -161920.57784052
  -exchange      EXHF   =         0.00000000
  -V(xc)+E(xc)   XCENC  =      -327.00333497
  PAW double counting   =      6324.29583684    -5654.67631096
  entropy T*S    EENTRO =         0.00000000
  eigenvalues    EBANDS =      -625.97531531
  atomic energy  EATOM  =      4905.68083858
  Solvation  Ediel_sol  =         0.00000000
  ---------------------------------------------------
  free energy    TOTEN  =      -137.89044526 eV

  energy without entropy =     -137.89044526  energy(sigma->0) =     -137.89044526


--------------------------------------------------------------------------------------------------------




--------------------------------------- Iteration      1(  15)  ---------------------------------------


    POTLOK:  cpu time    0.0594: real time    0.0595
    SETDIJ:  cpu time    0.0913: real time    0.0914
     EDDAV:  cpu time   13.0422: real time   13.0538
 BZINTS: Fermi energy: -0.331357; 99.000000 electrons
         Band energy:-619.822602;  BLOECHL correction: -0.038886
       DOS:  cpu time    0.0170: real time    0.0170
    CHARGE:  cpu time    0.5278: real time    0.5282
    MIXING:  cpu time    0.0036: real time    0.0036
    --------------------------------------------
      LOOP:  cpu time   13.7413: real time   13.7535

 eigenvalue-minimisations  : 10195
 total energy-change (2. order) : 0.2006124E+00  (-0.8137587E-01)
 number of electron      99.0000001 magnetization 
 augmentation part        6.2797312 magnetization 

 Broyden mixing:
  rms(total) = 0.10195E+00    rms(broyden)= 0.10107E+00
  rms(prec ) = 0.10568E+00
  weight for this iteration     100.00

 eigenvalues of (default mixing * dielectric matrix)
  average eigenvalue GAMMA=   0.8762
  2.4469  1.7881  1.0495  1.0495  0.9110  0.3918  0.3918  0.3177  0.3177  0.0982

 Free energy of the ion-electron system (eV)
  ---------------------------------------------------
  alpha Z        PSCENC =        78.47135263
  Ewald energy   TEWEN  =    157081.89432845
  -Hartree energ DENC   =   -161926.60017150
  -exchange      EXHF   =         0.00000000
  -V(xc)+E(xc)   XCENC  =      -326.92046089
  PAW double counting   =      6307.99938940    -5638.39250781
  entropy T*S    EENTRO =         0.00000000
  eigenvalues    EBANDS =      -619.82260171
  atomic energy  EATOM  =      4905.68083858
  Solvation  Ediel_sol  =         0.00000000
  ---------------------------------------------------
  free energy    TOTEN  =      -137.68983286 eV

  energy without entropy =     -137.68983286  energy(sigma->0) =     -137.68983286


--------------------------------------------------------------------------------------------------------




--------------------------------------- Iteration      1(  16)  ---------------------------------------


    POTLOK:  cpu time    0.0581: real time    0.0581
    SETDIJ:  cpu time    0.0930: real time    0.0931
     EDDAV:  cpu time   11.8064: real time   11.8169
 BZINTS: Fermi energy: -0.257610; 99.000000 electrons
         Band energy:-618.310291;  BLOECHL correction: -0.036873
       DOS:  cpu time    0.0167: real time    0.0168
    CHARGE:  cpu time    0.5310: real time    0.5313
    MIXING:  cpu time    0.0030: real time    0.0030
    --------------------------------------------
      LOOP:  cpu time   12.5082: real time   12.5192

 eigenvalue-minimisations  :  9000
 total energy-change (2. order) :-0.5161142E-01  (-0.2327394E-01)
 number of electron      99.0000001 magnetization 
 augmentation part        6.1776395 magnetization 

 Broyden mixing:
  rms(total) = 0.29956E+00    rms(broyden)= 0.29929E+00
  rms(prec ) = 0.41442E+00
  weight for this iteration     100.00

 eigenvalues of (default mixing * dielectric matrix)
  average eigenvalue GAMMA=   0.8443
  2.4750  1.9192  0.9898  0.9898  0.9361  0.3717  0.3717  0.3287  0.3287  0.2882
  0.2882

 Free energy of the ion-electron system (eV)
  ---------------------------------------------------
  alpha Z        PSCENC =        78.47135263
  Ewald energy   TEWEN  =    157081.89432845
  -Hartree energ DENC   =   -161928.18644881
  -exchange      EXHF   =         0.00000000
  -V(xc)+E(xc)   XCENC  =      -326.89495725
  PAW double counting   =      6302.29499586    -5632.69126309
  entropy T*S    EENTRO =         0.00000000
  eigenvalues    EBANDS =      -618.31029066
  atomic energy  EATOM  =      4905.68083858
  Solvation  Ediel_sol  =         0.00000000
  ---------------------------------------------------
  free energy    TOTEN  =      -137.74144428 eV

  energy without entropy =     -137.74144428  energy(sigma->0) =     -137.74144428


--------------------------------------------------------------------------------------------------------




--------------------------------------- Iteration      1(  17)  ---------------------------------------


    POTLOK:  cpu time    0.0587: real time    0.0597
    SETDIJ:  cpu time    0.0919: real time    0.0924
     EDDAV:  cpu time   12.0561: real time   12.0669
 BZINTS: Fermi energy: -0.182499; 99.000000 electrons
         Band energy:-617.525670;  BLOECHL correction: -0.034533
       DOS:  cpu time    0.0184: real time    0.0184
    CHARGE:  cpu time    0.5321: real time    0.5324
    MIXING:  cpu time    0.0030: real time    0.0030
    --------------------------------------------
      LOOP:  cpu time   12.7602: real time   12.7727

 eigenvalue-minimisations  :  9095
 total energy-change (2. order) :-0.8576260E-01  (-0.1082196E-01)
 number of electron      99.0000001 magnetization 
 augmentation part        6.1137469 magnetization 

 Broyden mixing:
  rms(total) = 0.48620E+00    rms(broyden)= 0.48612E+00
  rms(prec ) = 0.66533E+00
  weight for this iteration     100.00

 eigenvalues of (default mixing * dielectric matrix)
  average eigenvalue GAMMA=   0.9079
  2.5017  2.5017  0.9375  0.9270  0.9270  0.6100  0.6100  0.4382  0.4382  0.3087
  0.3087  0.3863

 Free energy of the ion-electron system (eV)
  ---------------------------------------------------
  alpha Z        PSCENC =        78.47135263
  Ewald energy   TEWEN  =    157081.89432845
  -Hartree energ DENC   =   -161929.08063659
  -exchange      EXHF   =         0.00000000
  -V(xc)+E(xc)   XCENC  =      -326.86951043
  PAW double counting   =      6301.15946828    -5631.55737749
  entropy T*S    EENTRO =         0.00000000
  eigenvalues    EBANDS =      -617.52567033
  atomic energy  EATOM  =      4905.68083858
  Solvation  Ediel_sol  =         0.00000000
  ---------------------------------------------------
  free energy    TOTEN  =      -137.82720688 eV

  energy without entropy =     -137.82720688  energy(sigma->0) =     -137.82720688


--------------------------------------------------------------------------------------------------------




--------------------------------------- Iteration      1(  18)  ---------------------------------------


    POTLOK:  cpu time    0.0579: real time    0.0580
    SETDIJ:  cpu time    0.0907: real time    0.0908
     EDDAV:  cpu time   11.2775: real time   11.2876
 BZINTS: Fermi energy: -0.243415; 99.000000 electrons
         Band energy:-616.901347;  BLOECHL correction: -0.036604
       DOS:  cpu time    0.0175: real time    0.0175
    CHARGE:  cpu time    0.5303: real time    0.5306
    MIXING:  cpu time    0.0052: real time    0.0052
    --------------------------------------------
      LOOP:  cpu time   11.9792: real time   11.9897

 eigenvalue-minimisations  :  8445
 total energy-change (2. order) : 0.9123725E-01  (-0.8698918E-02)
 number of electron      99.0000001 magnetization 
 augmentation part        6.1698633 magnetization 

 Broyden mixing:
  rms(total) = 0.31298E+00    rms(broyden)= 0.31279E+00
  rms(prec ) = 0.43640E+00
  weight for this iteration     100.00

 eigenvalues of (default mixing * dielectric matrix)
  average eigenvalue GAMMA=   0.8971
  2.6152  2.6152  1.0002  1.0002  0.7014  0.7014  0.8887  0.4152  0.4152  0.3095
  0.3095  0.3452  0.3452

 Free energy of the ion-electron system (eV)
  ---------------------------------------------------
  alpha Z        PSCENC =        78.47135263
  Ewald energy   TEWEN  =    157081.89432845
  -Hartree energ DENC   =   -161929.60193519
  -exchange      EXHF   =         0.00000000
  -V(xc)+E(xc)   XCENC  =      -326.88002974
  PAW double counting   =      6288.52203894    -5618.92121592
  entropy T*S    EENTRO =         0.00000000
  eigenvalues    EBANDS =      -616.90134738
  atomic energy  EATOM  =      4905.68083858
  Solvation  Ediel_sol  =         0.00000000
  ---------------------------------------------------
  free energy    TOTEN  =      -137.73596963 eV

[...]
     46      -1.5466      2.00000
     47      -1.4147      2.00000
     48      -1.1652      2.00000
     49      -1.1594      2.00000
     50      -0.8116      2.00000
     51      -0.7512      2.00000
     52      -0.4513      2.00000
     53      -0.0639      1.90239
     54       0.0890     -0.05357
     55       0.5871      0.00000
     56       1.2357      0.00000
     57       1.4653      0.00000
     58       2.1216      0.00000
     59       2.8172      0.00000
     60       2.9416      0.00000
     61       3.8751      0.00000
     62       4.5910      0.00000
     63       4.8087      0.00000
     64       5.4692      0.00000
     65       6.2268      0.00000

 k-point    54 :       0.3478    0.2609   -0.0000
  band No.  band energies     occupation 
      1     -17.9032      2.00000
      2     -16.7944      2.00000
      3     -16.6773      2.00000
      4     -16.5695      2.00000
      5     -16.4627      2.00000
      6     -16.3586      2.00000
      7     -16.2533      2.00000
      8     -16.1317      2.00000
      9     -15.9246      2.00000
     10     -15.2319      2.00000
     11      -5.2267      2.00000
     12      -5.0473      2.00000
     13      -4.7095      2.00000
     14      -4.5712      2.00000
     15      -4.4240      2.00000
     16      -4.3243      2.00000
     17      -4.2401      2.00000
     18      -4.1796      2.00000
     19      -4.0899      2.00000
     20      -3.9871      2.00000
     21      -3.8672      2.00000
     22      -3.8213      2.00000
     23      -3.7974      2.00000
     24      -3.6254      2.00000
     25      -3.5695      2.00000
     26      -3.5238      2.00000
     27      -3.3834      2.00000
     28      -3.3516      2.00000
     29      -3.2435      2.00000
     30      -3.1824      2.00000
     31      -3.0757      2.00000
     32      -2.9850      2.00000
     33      -2.8155      2.00000
     34      -2.7298      2.00000
     35      -2.6145      2.00000
     36      -2.5083      2.00000
     37      -2.2975      2.00000
     38      -2.2661      2.00000
     39      -2.1069      2.00000
     40      -2.0287      2.00000
     41      -1.9573      2.00000
     42      -1.8841      2.00000
     43      -1.8306      2.00000
     44      -1.7307      2.00000
     45      -1.6310      2.00000
     46      -1.6007      2.00000
     47      -1.4877      2.00000
     48      -1.4000      2.00000
     49      -1.1794      2.00000
     50      -1.0206      2.00000
     51      -0.7778      2.00000
     52      -0.5297      2.00000
     53      -0.0677      2.00000
     54      -0.0671      1.62955
     55       0.4323      0.00000
     56       1.0579      0.00000
     57       1.5162      0.00000
     58       2.0178      0.00000
     59       2.7191      0.00000
     60       2.9584      0.00000
     61       3.6680      0.00000
     62       4.2988      0.00000
     63       4.7890      0.00000
     64       5.5388      0.00000
     65       6.0721      0.00000

 k-point    55 :       0.3043    0.3043   -0.0000
  band No.  band energies     occupation 
      1     -17.8987      2.00000
      2     -16.7882      2.00000
      3     -16.6722      2.00000
      4     -16.5645      2.00000
      5     -16.4577      2.00000
      6     -16.3537      2.00000
      7     -16.2485      2.00000
      8     -16.1272      2.00000
      9     -15.9203      2.00000
     10     -15.2287      2.00000
     11      -5.1980      2.00000
     12      -4.9649      2.00000
     13      -4.7358      2.00000
     14      -4.5009      2.00000
     15      -4.3960      2.00000
     16      -4.2997      2.00000
     17      -4.2652      2.00000
     18      -4.1334      2.00000
     19      -4.0387      2.00000
     20      -3.9353      2.00000
     21      -3.8810      2.00000
     22      -3.7721      2.00000
     23      -3.6804      2.00000
     24      -3.6236      2.00000
     25      -3.5682      2.00000
     26      -3.4142      2.00000
     27      -3.3224      2.00000
     28      -3.2564      2.00000
     29      -3.1889      2.00000
     30      -3.0464      2.00000
     31      -2.9583      2.00000
     32      -2.9555      2.00000
     33      -2.8918      2.00000
     34      -2.6698      2.00000
     35      -2.6438      2.00000
     36      -2.5481      2.00000
     37      -2.5230      2.00000
     38      -2.2874      2.00000
     39      -2.2438      2.00000
     40      -2.0899      2.00000
     41      -1.9569      2.00000
     42      -1.9070      2.00000
     43      -1.8761      2.00000
     44      -1.8316      2.00000
     45      -1.7135      2.00000
     46      -1.6358      2.00000
     47      -1.6192      2.00000
     48      -1.5208      2.00000
     49      -1.1847      2.00000
     50      -1.0994      2.00000
     51      -0.8008      2.00000
     52      -0.7196      2.00000
     53      -0.0660      2.00000
     54       0.0172      0.96088
     55       0.3726      0.00000
     56       0.8167      0.00000
     57       1.7467      0.00000
     58       1.9033      0.00000
     59       2.2142      0.00000
     60       3.3426      0.00000
     61       3.7464      0.00000
     62       3.9137      0.00000
     63       5.1309      0.00000
     64       5.1374      0.00000
     65       5.9055      0.00000

 k-point    56 :       0.3478    0.3043   -0.0000
  band No.  band energies     occupation 
      1     -17.8903      2.00000
      2     -16.7746      2.00000
      3     -16.6631      2.00000
      4     -16.5556      2.00000
      5     -16.4487      2.00000
      6     -16.3448      2.00000
      7     -16.2403      2.00000
      8     -16.1202      2.00000
      9     -15.9134      2.00000
     10     -15.2238      2.00000
     11      -5.1227      2.00000
     12      -4.8315      2.00000
     13      -4.5529      2.00000
     14      -4.3655      2.00000
     15      -4.1865      2.00000
     16      -4.1474      2.00000
     17      -4.0802      2.00000
     18      -3.9270      2.00000
     19      -3.9093      2.00000
     20      -3.8842      2.00000
     21      -3.8816      2.00000
     22      -3.8108      2.00000
     23      -3.6756      2.00000
     24      -3.5904      2.00000
     25      -3.5092      2.00000
     26      -3.4407      2.00000
     27      -3.4309      2.00000
     28      -3.3966      2.00000
     29      -3.3032      2.00000
     30      -3.2008      2.00000
     31      -3.1257      2.00000
     32      -3.0301      2.00000
     33      -2.9953      2.00000
     34      -2.7892      2.00000
     35      -2.7595      2.00000
     36      -2.7294      2.00000
     37      -2.5687      2.00000
     38      -2.2530      2.00000
     39      -2.2261      2.00000
     40      -2.0828      2.00000
     41      -1.9698      2.00000
     42      -1.9600      2.00000
     43      -1.9257      2.00000
     44      -1.8444      2.00000
     45      -1.7875      2.00000
     46      -1.7224      2.00000
     47      -1.6333      2.00000
     48      -1.5812      2.00000
     49      -1.2421      2.00000
     50      -1.1931      2.00000
     51      -0.8159      2.00000
     52      -0.6471      2.00000
     53      -0.2916      2.00000
     54      -0.0669      2.06412
     55       0.4461      0.00000
     56       1.0398      0.00000
     57       1.1766      0.00000
     58       1.8537      0.00000
     59       2.7579      0.00000
     60       2.8683      0.00000
     61       3.6118      0.00000
     62       4.2575      0.00000
     63       4.5866      0.00000
     64       5.1917      0.00000
     65       6.3132      0.00000


--------------------------------------------------------------------------------------------------------


 soft charge-density along one line, spin component           1
         0         1         2         3         4         5         6         7         8         9
 total charge-density along one line
 
 pseudopotential strength for first ion, spin component:           1
 12.902 -15.754  -0.000   0.026   0.000   0.000  -0.033  -0.000
-15.754  19.262   0.000  -0.033  -0.000  -0.000   0.042   0.000
 -0.000   0.000  -9.246  -0.000   0.000  11.257   0.000  -0.000
  0.026  -0.033  -0.000  -9.308   0.000   0.000  11.340  -0.000
  0.000  -0.000   0.000   0.000  -9.246  -0.000  -0.000  11.257
  0.000  -0.000  11.257   0.000  -0.000 -13.587  -0.000   0.000
 -0.033   0.042   0.000  11.340  -0.000  -0.000 -13.698   0.000
 -0.000   0.000  -0.000  -0.000  11.257   0.000   0.000 -13.587
 total augmentation occupancy for first ion, spin component:           1
  2.652   0.383  -0.000  -0.087   0.000   0.000  -0.035   0.000
  0.383   0.079  -0.000  -0.082   0.000   0.000  -0.017   0.000
  0.000  -0.000   2.130  -0.000  -0.000   0.236   0.000  -0.000
 -0.087  -0.082   0.000   2.253  -0.000   0.000   0.316  -0.000
  0.000   0.000  -0.000  -0.000   2.130  -0.000  -0.000   0.236
 -0.000   0.000   0.236   0.000  -0.000   0.029   0.000  -0.000
 -0.035  -0.017   0.000   0.316  -0.000   0.000   0.048  -0.000
  0.000   0.000  -0.000  -0.000   0.236  -0.000  -0.000   0.029


------------------------ aborting loop because EDIFF is reached ----------------------------------------


    CHARGE:  cpu time    0.8189: real time    0.8208
    FORLOC:  cpu time    0.0279: real time    0.0279
    FORNL :  cpu time    5.7542: real time    5.7629
    STRESS:  cpu time   13.1629: real time   13.2774
    FORCOR:  cpu time    0.0986: real time    0.0989
    FORHAR:  cpu time    0.0358: real time    0.0360
    MIXING:  cpu time    0.0081: real time    0.0082
    OFIELD:  cpu time    0.0001: real time    0.0001

  FORCE on cell =-STRESS in cart. coord.  units (eV):
  Direction    XX          YY          ZZ          XY          YZ          ZX
  --------------------------------------------------------------------------------------
  Alpha Z    78.47135    78.47135    78.47135
  Ewald  159709.79173159709.79202************    -0.00007     0.00001    -0.00010
  Hartree161043.40391161043.40385************    -0.00000    -0.00000     0.00003
  E(xc)    -414.85860  -414.85861  -415.52768     0.00000     0.00000    -0.00000
  Local  ************************321258.03004    -0.00016    -0.00000     0.00003
  n-local   -55.86552   -67.45196   -52.68069     2.74473    -2.18143     5.62761
  augment    60.59052    60.59026    59.49611     0.00020    -0.00000     0.00000
  Kinetic  1524.90836  1492.04579  1499.61022    -2.48903     1.11619     0.32878
  Fock        0.00000     0.00000     0.00000     0.00000     0.00000     0.00000
  -------------------------------------------------------------------------------------
  Total      -1.08627    -1.08627    -0.03723     0.00000     0.00000     0.00000
  in kB      -3.23615    -3.23615    -0.11090     0.00000     0.00000     0.00000
  external pressure =       -2.19 kB  Pullay stress =        0.00 kB


 VOLUME and BASIS-vectors are now :
 -----------------------------------------------------------------------------
  energy-cutoff  :      520.00
  volume of cell :      537.80
      direct lattice vectors                 reciprocal lattice vectors
     2.607300145 -1.505325125  0.000000000     0.383538505  0.000000000  0.000000000
     0.000000000  3.010650250  0.000000000     0.191769253  0.332154158  0.000000000
    -0.000000000  0.000000000 68.512039442     0.000000000  0.000000000  0.014595975

  length of vectors
     3.010650723  3.010650250 68.512039442     0.383538505  0.383538565  0.014595975


 FORCES acting on ions
    electron-ion (+dipol)            ewald-force                    non-local-force                 convergence-correction
 -----------------------------------------------------------------------------------------------
   0.197E-05 -.538E-06 0.212E+04   0.210E-04 -.264E-04 -.211E+04   0.520E-16 0.694E-17 -.106E+02   -.197E-08 0.408E-08 -.119E+01
   0.107E-02 -.185E-02 0.152E+04   0.609E-04 -.105E-03 -.152E+04   0.323E-17 0.867E-18 -.418E+00   0.149E-08 -.280E-08 -.123E+01
   0.424E-07 -.249E-08 0.292E+03   -.147E-05 0.185E-05 -.291E+03   0.223E-17 0.000E+00 -.455E+00   -.689E-11 0.157E-10 -.123E+01
   0.107E-02 -.185E-02 -.324E+03   0.597E-04 -.104E-03 0.325E+03   0.259E-17 0.434E-18 -.428E+00   -.588E-08 0.102E-07 -.123E+01
   0.305E-07 -.227E-07 -.156E+04   -.177E-05 0.223E-05 0.156E+04   0.263E-17 0.108E-18 -.479E+00   -.421E-09 0.572E-09 -.122E+01
   0.107E-02 -.185E-02 -.217E+04   0.601E-04 -.106E-03 0.217E+04   0.423E-17 0.173E-17 -.785E+00   -.159E-07 0.258E-07 -.120E+01
   -.251E-05 0.524E-06 -.340E+04   -.317E-04 0.403E-04 0.341E+04   0.629E-16 -.694E-17 -.147E+02   0.151E-07 -.249E-07 0.497E-03
   -.107E-02 0.185E-02 0.908E+03   -.594E-04 0.102E-03 -.906E+03   0.270E-17 -.434E-18 -.437E+00   0.269E-08 -.460E-08 -.123E+01
   -.107E-02 0.185E-02 -.939E+03   -.595E-04 0.102E-03 0.941E+03   0.271E-17 0.000E+00 -.443E+00   0.958E-08 -.168E-07 -.123E+01
   -.107E-02 0.185E-02 -.279E+04   -.599E-04 0.983E-04 0.279E+04   0.265E-16 -.126E-16 -.231E+01   0.184E-06 -.329E-06 -.956E+00
   -.467E-06 0.189E-06 0.405E+03   0.143E-05 -.180E-05 -.404E+03   0.283E-17 0.000E+00 -.233E+00   -.675E-10 0.155E-09 -.410E+00
   -.396E-06 0.159E-06 -.211E+03   0.153E-05 -.193E-05 0.212E+03   0.414E-17 -.173E-17 -.246E+00   -.905E-10 0.165E-09 -.409E+00
   -.140E-05 0.688E-06 -.829E+03   0.494E-05 -.621E-05 0.830E+03   -.110E-17 0.000E+00 -.652E+00   0.860E-08 -.136E-07 -.370E+00
   0.488E-04 -.832E-04 0.614E+03   -.551E-04 0.930E-04 -.614E+03   0.728E-18 0.000E+00 -.163E+00   -.442E-08 0.788E-08 -.405E+00
   0.444E-04 -.775E-04 -.568E+01   -.507E-04 0.886E-04 0.634E+01   0.236E-18 -.520E-17 -.243E+00   -.376E-10 0.720E-10 -.409E+00
   0.445E-04 -.780E-04 -.622E+03   -.511E-04 0.894E-04 0.623E+03   0.377E-17 -.694E-17 -.313E+00   -.290E-09 0.616E-09 -.405E+00
   -.450E-04 0.774E-04 0.200E+03   0.504E-04 -.865E-04 -.199E+03   -.237E-17 -.173E-17 -.241E+00   -.150E-09 0.348E-09 -.410E+00
   -.451E-04 0.775E-04 -.416E+03   0.505E-04 -.867E-04 0.417E+03   0.415E-17 0.000E+00 -.256E+00   0.150E-09 -.249E-09 -.409E+00
   -.569E-04 0.908E-04 -.104E+04   0.599E-04 -.935E-04 0.105E+04   0.215E-17 0.278E-16 -.221E+01   0.135E-06 -.228E-06 -.149E+00
   0.330E-06 0.576E-08 0.114E+04   -.223E-05 0.244E-05 -.114E+04   0.431E-16 0.555E-16 -.148E+01   0.152E-09 -.291E-10 0.355E+00
   0.341E-07 0.367E-07 0.118E+04   0.113E-06 -.131E-06 -.118E+04   -.131E-18 -.694E-17 0.135E+00   0.168E-09 -.352E-10 -.664E-01
   -.258E-06 0.652E-07 0.125E+04   0.301E-05 -.331E-05 -.124E+04   0.182E-16 0.278E-16 -.445E+01   0.250E-10 0.938E-10 -.507E+00
   0.145E-04 -.251E-04 0.117E+04   -.461E-05 0.798E-05 -.117E+04   0.116E-17 -.130E-17 0.141E+00   -.627E-10 0.394E-09 0.483E-01
   0.158E-04 -.269E-04 0.121E+04   -.484E-05 0.800E-05 -.121E+04   -.139E-16 0.278E-16 0.324E-01   -.164E-09 0.470E-09 -.331E+00
   -.145E-04 0.251E-04 0.116E+04   0.444E-05 -.777E-05 -.116E+04   0.509E-17 0.416E-16 0.119E+00   0.451E-09 -.717E-09 0.163E+00
   -.148E-04 0.258E-04 0.120E+04   0.431E-05 -.742E-05 -.120E+04   -.510E-19 0.694E-17 0.524E-01   0.207E-09 -.514E-09 -.205E+00
 -----------------------------------------------------------------------------------------------
   -.100E-04 0.633E-05 0.558E+02   0.198E-12 0.406E-13 0.682E-12   0.230E-15 0.154E-15 -.411E+02   0.328E-06 -.571E-06 -.146E+02
 
 
 POSITION                                       TOTAL-FORCE (eV/Angst)
 -----------------------------------------------------------------------------------
     -0.00000      0.00000     30.80962         0.000000      0.000000     -0.008911
      0.86910      1.50533     33.16400        -0.000000      0.000000     -0.012202
     -0.00000      0.00000     38.07554         0.000000      0.000000     -0.013695
      0.86910      1.50533     40.52978        -0.000000     -0.000000      0.001482
     -0.00000      0.00000     45.43791         0.000000      0.000000      0.000384
      0.86910      1.50533     47.88614         0.000000     -0.000000     -0.014544
     -0.00000      0.00000     52.58341         0.000000      0.000000     -0.043436
      1.73820     -0.00000     35.61941         0.000000     -0.000000     -0.005994
      1.73820     -0.00000     42.98474         0.000000      0.000000     -0.004018
      1.73820     -0.00000     50.30122         0.000000     -0.000000     -0.019189
     -0.00000      0.00000     34.40830        -0.000000      0.000000      0.015416
     -0.00000      0.00000     41.77503         0.000000      0.000000     -0.000761
     -0.00000      0.00000     49.14864        -0.000000      0.000000      0.018399
      1.73820     -0.00000     31.94848        -0.000000      0.000000      0.002565
      1.73820     -0.00000     39.32003        -0.000000      0.000000      0.002874
      1.73820     -0.00000     46.68568         0.000000      0.000000     -0.002056
      0.86910      1.50533     36.86465        -0.000000      0.000000      0.003570
      0.86910      1.50533     44.22996         0.000000      0.000000     -0.003208
      0.86910      1.50533     51.66268        -0.000000      0.000000      0.047905
     -0.00000      0.00000     15.85926         0.000000      0.000000     -0.078577
     -0.00000      0.00000     22.48970        -0.000000      0.000000      0.009609
     -0.00000      0.00000     29.09061        -0.000000      0.000000      0.080959
      1.73820     -0.00000     20.28974         0.000000      0.000000     -0.001725
      1.73820     -0.00000     26.94714         0.000000      0.000000     -0.014753
      0.86910      1.50533     18.09105        -0.000000      0.000000      0.022619
      0.86910      1.50533     24.71205        -0.000000      0.000000      0.017287
 -----------------------------------------------------------------------------------
    total drift:                               -0.000010      0.000006      0.005803


--------------------------------------------------------------------------------------------------------



  FREE ENERGIE OF THE ION-ELECTRON SYSTEM (eV)
  ---------------------------------------------------
  free  energy   TOTEN  =      -137.65491150 eV

  energy  without entropy=     -137.65491150  energy(sigma->0) =     -137.65491150
 


--------------------------------------------------------------------------------------------------------


    POTLOK:  cpu time    0.2728: real time    0.2751


--------------------------------------------------------------------------------------------------------


 stress matrix after NEB project (eV)
     -1.08627      0.00000      0.00000
      0.00000     -1.08627      0.00000
      0.00000      0.00000     -0.03723
  FORCES: max atom, RMS     0.080959    0.027528
  FORCE total and by dimension    0.140366    0.080959
  Stress total and by dimension    1.536662    1.086266
     LOOP+:  cpu time  783.9073: real time  785.3860
    4ORBIT:  cpu time    0.0000: real time    0.0000
 BZINTS: Fermi energy:  0.000845; 99.000000 electrons
         Band energy:-571.213898;  BLOECHL correction: -0.035715

 total amount of memory used by VASP MPI-rank0   172228. kBytes
=======================================================================

   base      :      30000. kBytes
   nonl-proj :      65827. kBytes
   fftplans  :      20263. kBytes
   grid      :      12402. kBytes
   one-center:         56. kBytes
   wavefun   :      43680. kBytes
 
  
  
 General timing and accounting informations for this job:
 ========================================================
  
                  Total CPU time used (sec):      791.864
                            User time (sec):      785.827
                          System time (sec):        6.037
                         Elapsed time (sec):      793.359
  
                   Maximum memory used (kb):      270072.
                   Average memory used (kb):           0.
  
                          Minor page faults:       489661
                          Major page faults:            6
                 Voluntary context switches:          573
