       N       E                     dE             d eps       ncg     rms          rms(c)
DAV:   1     0.470340553489E+03    0.47034E+03   -0.41331E+04  2620   0.132E+03
DAV:   2    -0.938843589102E+02   -0.56422E+03   -0.53513E+03  3384   0.250E+02
DAV:   3    -0.147477557090E+03   -0.53593E+02   -0.53285E+02  3034   0.831E+01
DAV:   4    -0.148177778800E+03   -0.70022E+00   -0.69882E+00  3072   0.103E+01
DAV:   5    -0.148189100366E+03   -0.11322E-01   -0.11316E-01  3084   0.130E+00    0.219E+01
DAV:   6    -0.133487949410E+03    0.14701E+02   -0.83701E+01  2890   0.290E+01    0.749E+00
DAV:   7    -0.133312909279E+03    0.17504E+00   -0.14813E+00  2914   0.513E+00    0.451E+00
DAV:   8    -0.133215350295E+03    0.97559E-01   -0.45203E-01  3036   0.375E+00    0.763E-01
DAV:   9    -0.133198128422E+03    0.17222E-01   -0.76233E-02  2954   0.114E+00    0.435E-01
DAV:  10    -0.133198889764E+03   -0.76134E-03   -0.43201E-02  2994   0.870E-01    0.285E-01
DAV:  11    -0.133197975473E+03    0.91429E-03   -0.51366E-03  3076   0.363E-01    0.158E-01
DAV:  12    -0.133198053214E+03   -0.77742E-04   -0.47984E-03  3030   0.296E-01    0.981E-02
DAV:  13    -0.133197833483E+03    0.21973E-03   -0.66976E-04  3138   0.139E-01    0.706E-02
DAV:  14    -0.133197674817E+03    0.15867E-03   -0.81128E-04  3220   0.152E-01    0.246E-02
DAV:  15    -0.133197601933E+03    0.72884E-04   -0.13804E-04  3018   0.702E-02    0.173E-02
DAV:  16    -0.133197471796E+03    0.13014E-03   -0.56413E-05  2886   0.836E-02    0.923E-03
DAV:  17    -0.133197303941E+03    0.16785E-03   -0.16761E-04  3190   0.165E-01    0.165E-02
DAV:  18    -0.133197219529E+03    0.84413E-04   -0.17691E-04  3468   0.164E-01    0.131E-02
DAV:  19    -0.133197188301E+03    0.31228E-04   -0.20150E-04  3128   0.143E-01    0.105E-02
DAV:  20    -0.133197169698E+03    0.18603E-04   -0.76680E-05  2902   0.996E-02    0.489E-03
DAV:  21    -0.133197172646E+03   -0.29477E-05   -0.72516E-05  2666   0.502E-02
   1 F= -.13319717E+03 E0= -.13319372E+03  d E =-.133197E+03
       N       E                     dE             d eps       ncg     rms          rms(c)
DAV:   1    -0.133199095541E+03   -0.19258E-02   -0.13243E-02  2714   0.497E-01    0.327E-02
DAV:   2    -0.133199104698E+03   -0.91564E-05   -0.78048E-04  3054   0.122E-01    0.283E-02
DAV:   3    -0.133199086920E+03    0.17777E-04   -0.48098E-05  2930   0.374E-02    0.189E-02
DAV:   4    -0.133199066003E+03    0.20917E-04   -0.10526E-04  2894   0.528E-02    0.123E-02
DAV:   5    -0.133199057300E+03    0.87027E-05   -0.15674E-05  2158   0.220E-02    0.113E-02
DAV:   6    -0.133199048350E+03    0.89505E-05   -0.12881E-05  1806   0.181E-02
   2 F= -.13319905E+03 E0= -.13319558E+03  d E =-.187570E-02
       N       E                     dE             d eps       ncg     rms          rms(c)
DAV:   1    -0.133200052043E+03   -0.99474E-03   -0.25772E-02  2698   0.693E-01    0.382E-02
DAV:   2    -0.133200059932E+03   -0.78891E-05   -0.13609E-03  3062   0.153E-01    0.404E-02
DAV:   3    -0.133200013218E+03    0.46714E-04   -0.76417E-05  3010   0.502E-02    0.253E-02
DAV:   4    -0.133199939568E+03    0.73651E-04   -0.30828E-04  3038   0.102E-01    0.244E-02
DAV:   5    -0.133199921299E+03    0.18268E-04   -0.60858E-05  2882   0.356E-02    0.196E-02
DAV:   6    -0.133199896168E+03    0.25132E-04   -0.36194E-05  2630   0.273E-02    0.621E-03
DAV:   7    -0.133199863498E+03    0.32670E-04   -0.17062E-05  2068   0.474E-02    0.712E-03
DAV:   8    -0.133199841039E+03    0.22459E-04   -0.15552E-05  2156   0.497E-02    0.786E-03
DAV:   9    -0.133199803466E+03    0.37574E-04   -0.41395E-05  2672   0.112E-01    0.490E-03
DAV:  10    -0.133199788588E+03    0.14877E-04   -0.59981E-05  2956   0.100E-01    0.363E-03
DAV:  11    -0.133199790974E+03   -0.23856E-05   -0.53768E-05  2550   0.399E-02
   3 F= -.13319979E+03 E0= -.13319634E+03  d E =-.261833E-02
       N       E                     dE             d eps       ncg     rms          rms(c)
DAV:   1    -0.133200487149E+03   -0.69856E-03   -0.40983E-01  2616   0.272E+00    0.788E-02
DAV:   2    -0.133201247105E+03   -0.75996E-03   -0.84490E-03  2922   0.356E-01    0.442E-02
DAV:   3    -0.133201201232E+03    0.45873E-04   -0.81311E-05  3068   0.452E-02    0.297E-02
DAV:   4    -0.133201168416E+03    0.32816E-04   -0.92926E-05  2948   0.523E-02    0.103E-02
DAV:   5    -0.133201166063E+03    0.23530E-05   -0.34695E-05  2426   0.277E-02    0.791E-03
DAV:   6    -0.133201162960E+03    0.31031E-05   -0.85678E-06  1684   0.182E-02
   4 F= -.13320116E+03 E0= -.13319766E+03  d E =-.137199E-02
       N       E                     dE             d eps       ncg     rms          rms(c)
DAV:   1    -0.133196876314E+03    0.42897E-02   -0.36389E+00  2604   0.811E+00    0.232E-01
DAV:   2    -0.133203679699E+03   -0.68034E-02   -0.75367E-02  2916   0.106E+00    0.135E-01
DAV:   3    -0.133203246758E+03    0.43294E-03   -0.71706E-04  3092   0.135E-01    0.892E-02
DAV:   4    -0.133202931691E+03    0.31507E-03   -0.78242E-04  3036   0.145E-01    0.309E-02
DAV:   5    -0.133202893236E+03    0.38456E-04   -0.28392E-04  3048   0.875E-02    0.200E-02
DAV:   6    -0.133202852206E+03    0.41030E-04   -0.75428E-05  2802   0.622E-02    0.106E-02
DAV:   7    -0.133202810528E+03    0.41678E-04   -0.22032E-05  2108   0.567E-02    0.817E-03
DAV:   8    -0.133202757015E+03    0.53513E-04   -0.27014E-05  2252   0.752E-02    0.739E-03
DAV:   9    -0.133202681949E+03    0.75066E-04   -0.54437E-05  3008   0.115E-01    0.101E-02
DAV:  10    -0.133202599068E+03    0.82881E-04   -0.12299E-04  3502   0.188E-01    0.939E-03
DAV:  11    -0.133202587530E+03    0.11538E-04   -0.17662E-04  3366   0.142E-01    0.110E-02
DAV:  12    -0.133202600576E+03   -0.13046E-04   -0.16083E-04  2666   0.444E-02    0.153E-02
DAV:  13    -0.133202596902E+03    0.36742E-05   -0.11649E-05  1626   0.148E-02
   5 F= -.13320260E+03 E0= -.13319899E+03  d E =-.280593E-02
       N       E                     dE             d eps       ncg     rms          rms(c)
DAV:   1    -0.133203213422E+03   -0.61285E-03   -0.35656E-01  2656   0.255E+00    0.757E-02
DAV:   2    -0.133203904150E+03   -0.69073E-03   -0.78282E-03  2896   0.349E-01    0.446E-02
DAV:   3    -0.133203855150E+03    0.49000E-04   -0.11718E-04  3066   0.604E-02    0.329E-02
DAV:   4    -0.133203812197E+03    0.42953E-04   -0.11251E-04  2952   0.671E-02    0.140E-02
DAV:   5    -0.133203798279E+03    0.13918E-04   -0.50463E-05  2844   0.524E-02    0.128E-02
DAV:   6    -0.133203792307E+03    0.59717E-05   -0.36055E-05  2440   0.360E-02
   6 F= -.13320379E+03 E0= -.13320018E+03  d E =-.119541E-02
       N       E                     dE             d eps       ncg     rms          rms(c)
DAV:   1    -0.133200903537E+03    0.28947E-02   -0.24241E+00  2644   0.667E+00    0.196E-01
DAV:   2    -0.133205547114E+03   -0.46436E-02   -0.52756E-02  2896   0.912E-01    0.116E-01
DAV:   3    -0.133205196105E+03    0.35101E-03   -0.84184E-04  3122   0.168E-01    0.842E-02
DAV:   4    -0.133204898150E+03    0.29796E-03   -0.66044E-04  3016   0.172E-01    0.373E-02
DAV:   5    -0.133204775200E+03    0.12295E-03   -0.32293E-04  3268   0.149E-01    0.297E-02
DAV:   6    -0.133204719254E+03    0.55946E-04   -0.26535E-04  3008   0.115E-01    0.130E-02
DAV:   7    -0.133204682620E+03    0.36634E-04   -0.61487E-05  2852   0.749E-02    0.146E-02
DAV:   8    -0.133204633865E+03    0.48755E-04   -0.35381E-05  2700   0.833E-02    0.727E-03
DAV:   9    -0.133204591826E+03    0.42039E-04   -0.53145E-05  2998   0.992E-02    0.845E-03
DAV:  10    -0.133204569051E+03    0.22776E-04   -0.47318E-05  2824   0.914E-02    0.102E-02
DAV:  11    -0.133204550899E+03    0.18151E-04   -0.33167E-05  2566   0.957E-02    0.557E-03
DAV:  12    -0.133204549686E+03    0.12136E-05   -0.73881E-05  2654   0.556E-02
   7 F= -.13320455E+03 E0= -.13320093E+03  d E =-.195278E-02
       N       E                     dE             d eps       ncg     rms          rms(c)
DAV:   1    -0.133204442897E+03    0.10800E-03   -0.14739E-01  2672   0.166E+00    0.496E-02
DAV:   2    -0.133204718602E+03   -0.27571E-03   -0.31922E-03  2896   0.228E-01    0.290E-02
DAV:   3    -0.133204696643E+03    0.21959E-04   -0.60056E-05  2994   0.442E-02    0.210E-02
DAV:   4    -0.133204679698E+03    0.16945E-04   -0.43451E-05  2744   0.391E-02    0.952E-03
DAV:   5    -0.133204671173E+03    0.85252E-05   -0.14257E-05  1966   0.329E-02    0.638E-03
DAV:   6    -0.133204666852E+03    0.43207E-05   -0.14865E-05  2010   0.317E-02
   8 F= -.13320467E+03 E0= -.13320105E+03  d E =-.206995E-02
       N       E                     dE             d eps       ncg     rms          rms(c)
DAV:   1    -0.133205289988E+03   -0.61881E-03   -0.49490E-01  2612   0.301E+00    0.834E-02
DAV:   2    -0.133206183629E+03   -0.89364E-03   -0.99237E-03  2936   0.401E-01    0.495E-02
DAV:   3    -0.133206126840E+03    0.56789E-04   -0.11221E-04  3066   0.562E-02    0.352E-02
DAV:   4    -0.133206081860E+03    0.44981E-04   -0.21638E-04  3044   0.891E-02    0.158E-02
DAV:   5    -0.133206081859E+03    0.49840E-09   -0.74362E-05  2738   0.420E-02    0.180E-02
DAV:   6    -0.133206078911E+03    0.29483E-05   -0.12713E-05  1608   0.166E-02
   9 F= -.13320608E+03 E0= -.13320249E+03  d E =-.141206E-02
       N       E                     dE             d eps       ncg     rms          rms(c)
DAV:   1    -0.133202529853E+03    0.35520E-02   -0.31119E+00  2612   0.753E+00    0.214E-01
DAV:   2    -0.133208247432E+03   -0.57176E-02   -0.63433E-02  2930   0.101E+00    0.126E-01
DAV:   3    -0.133207889810E+03    0.35762E-03   -0.74824E-04  3138   0.148E-01    0.893E-02
DAV:   4    -0.133207623143E+03    0.26667E-03   -0.13268E-03  3052   0.215E-01    0.389E-02
DAV:   5    -0.133207620884E+03    0.22594E-05   -0.45489E-04  2996   0.106E-01    0.442E-02
DAV:   6    -0.133207605957E+03    0.14926E-04   -0.84482E-05  2684   0.403E-02    0.308E-02
DAV:   7    -0.133207581219E+03    0.24738E-04   -0.44921E-05  2860   0.351E-02    0.179E-02
DAV:   8    -0.133207553301E+03    0.27918E-04   -0.50719E-05  2796   0.663E-02    0.136E-02
DAV:   9    -0.133207539980E+03    0.13321E-04   -0.65264E-05  3106   0.674E-02    0.154E-02
DAV:  10    -0.133207525358E+03    0.14622E-04   -0.62483E-05  3174   0.808E-02    0.147E-02
DAV:  11    -0.133207518327E+03    0.70310E-05   -0.34930E-05  2432   0.386E-02
  10 F= -.13320752E+03 E0= -.13320399E+03  d E =-.285147E-02
       N       E                     dE             d eps       ncg     rms          rms(c)
DAV:   1    -0.133207250627E+03    0.27473E-03   -0.11673E+00  2644   0.466E+00    0.129E-01
DAV:   2    -0.133209508642E+03   -0.22580E-02   -0.24391E-02  2948   0.627E-01    0.769E-02
DAV:   3    -0.133209372947E+03    0.13569E-03   -0.23166E-04  3124   0.805E-02    0.537E-02
DAV:   4    -0.133209257335E+03    0.11561E-03   -0.44281E-04  3060   0.135E-01    0.182E-02
DAV:   5    -0.133209262872E+03   -0.55364E-05   -0.18927E-04  2814   0.596E-02    0.231E-02
DAV:   6    -0.133209256259E+03    0.66125E-05   -0.15415E-05  1608   0.177E-02
  11 F= -.13320926E+03 E0= -.13320577E+03  d E =-.173793E-02
       N       E                     dE             d eps       ncg     rms          rms(c)
DAV:   1    -0.133205548682E+03    0.37142E-02   -0.26957E+00  2652   0.708E+00    0.200E-01
DAV:   2    -0.133210783639E+03   -0.52350E-02   -0.56734E-02  2940   0.958E-01    0.118E-01
DAV:   3    -0.133210455484E+03    0.32816E-03   -0.57166E-04  3124   0.134E-01    0.818E-02
DAV:   4    -0.133210156748E+03    0.29874E-03   -0.99894E-04  3100   0.215E-01    0.295E-02
DAV:   5    -0.133210159414E+03   -0.26662E-05   -0.50678E-04  2964   0.104E-01    0.372E-02
DAV:   6    -0.133210141240E+03    0.18174E-04   -0.62069E-05  2682   0.342E-02    0.250E-02
DAV:   7    -0.133210106651E+03    0.34589E-04   -0.46072E-05  2754   0.319E-02    0.122E-02
DAV:   8    -0.133210060729E+03    0.45922E-04   -0.92499E-05  3184   0.772E-02    0.226E-02
DAV:   9    -0.133210044853E+03    0.15876E-04   -0.71639E-05  2870   0.557E-02    0.292E-02
DAV:  10    -0.133210017402E+03    0.27451E-04   -0.99089E-05  2978   0.695E-02    0.175E-02
DAV:  11    -0.133209979581E+03    0.37821E-04   -0.22024E-05  2334   0.891E-02    0.137E-02
DAV:  12    -0.133209951633E+03    0.27948E-04   -0.11979E-04  3284   0.116E-01    0.165E-02
DAV:  13    -0.133209941333E+03    0.10300E-04   -0.67315E-05  2842   0.543E-02    0.156E-02
DAV:  14    -0.133209931867E+03    0.94663E-05   -0.20038E-05  2152   0.415E-02
  12 F= -.13320993E+03 E0= -.13320650E+03  d E =-.241354E-02
       N       E                     dE             d eps       ncg     rms          rms(c)
DAV:   1    -0.133210261074E+03   -0.31974E-03   -0.39845E-01  2616   0.274E+00    0.763E-02
DAV:   2    -0.133211022967E+03   -0.76189E-03   -0.82311E-03  2934   0.365E-01    0.428E-02
DAV:   3    -0.133210988238E+03    0.34729E-04   -0.97383E-05  3052   0.463E-02    0.298E-02
DAV:   4    -0.133210963343E+03    0.24895E-04   -0.98209E-05  2880   0.558E-02    0.115E-02
DAV:   5    -0.133210963917E+03   -0.57371E-06   -0.36619E-05  2488   0.291E-02    0.116E-02
DAV:   6    -0.133210962189E+03    0.17280E-05   -0.87119E-06  1566   0.150E-02
  13 F= -.13321096E+03 E0= -.13320757E+03  d E =-.103032E-02
       N       E                     dE             d eps       ncg     rms          rms(c)
DAV:   1    -0.133206053003E+03    0.49109E-02   -0.35911E+00  2604   0.822E+00    0.235E-01
DAV:   2    -0.133213048914E+03   -0.69959E-02   -0.75989E-02  2928   0.111E+00    0.130E-01
DAV:   3    -0.133212738402E+03    0.31051E-03   -0.97731E-04  3124   0.142E-01    0.912E-02
DAV:   4    -0.133212520215E+03    0.21819E-03   -0.97596E-04  3090   0.157E-01    0.377E-02
DAV:   5    -0.133212512957E+03    0.72582E-05   -0.25603E-04  2994   0.793E-02    0.378E-02
DAV:   6    -0.133212489880E+03    0.23077E-04   -0.13162E-04  2882   0.625E-02    0.176E-02
DAV:   7    -0.133212480391E+03    0.94893E-05   -0.43589E-05  2534   0.414E-02
  14 F= -.13321248E+03 E0= -.13320919E+03  d E =-.254852E-02
       N       E                     dE             d eps       ncg     rms          rms(c)
DAV:   1    -0.133212216905E+03    0.27298E-03   -0.15220E-01  2604   0.169E+00    0.508E-02
DAV:   2    -0.133212506972E+03   -0.29007E-03   -0.32509E-03  2940   0.232E-01    0.255E-02
DAV:   3    -0.133212489389E+03    0.17583E-04   -0.47585E-05  2838   0.325E-02    0.182E-02
DAV:   4    -0.133212468358E+03    0.21031E-04   -0.46194E-05  2840   0.347E-02    0.963E-03
DAV:   5    -0.133212460026E+03    0.83325E-05   -0.98651E-06  1680   0.282E-02    0.106E-02
DAV:   6    -0.133212452618E+03    0.74078E-05   -0.12218E-05  1908   0.286E-02
  15 F= -.13321245E+03 E0= -.13320919E+03  d E =-.252075E-02
       N       E                     dE             d eps       ncg     rms          rms(c)
DAV:   1    -0.133213139495E+03   -0.67947E-03   -0.24473E-01  2636   0.212E+00    0.646E-02
DAV:   2    -0.133213621733E+03   -0.48224E-03   -0.55972E-03  2952   0.303E-01    0.424E-02
DAV:   3    -0.133213581285E+03    0.40448E-04   -0.82376E-05  2992   0.518E-02    0.312E-02
DAV:   4    -0.133213544190E+03    0.37095E-04   -0.21201E-04  2920   0.828E-02    0.172E-02
DAV:   5    -0.133213541148E+03    0.30422E-05   -0.63366E-05  2694   0.408E-02    0.205E-02
DAV:   6    -0.133213537371E+03    0.37767E-05   -0.12003E-05  1590   0.162E-02
  16 F= -.13321354E+03 E0= -.13321030E+03  d E =-.108475E-02
       N       E                     dE             d eps       ncg     rms          rms(c)
DAV:   1    -0.133213162400E+03    0.37875E-03   -0.61181E-01  2652   0.335E+00    0.105E-01
DAV:   2    -0.133214361108E+03   -0.11987E-02   -0.14114E-02  2946   0.483E-01    0.680E-02
DAV:   3    -0.133214263158E+03    0.97951E-04   -0.25545E-04  3050   0.902E-02    0.506E-02
DAV:   4    -0.133214178902E+03    0.84256E-04   -0.36797E-04  2998   0.110E-01    0.220E-02
DAV:   5    -0.133214163156E+03    0.15746E-04   -0.13342E-04  3006   0.717E-02    0.265E-02
DAV:   6    -0.133214147183E+03    0.15973E-04   -0.63378E-05  2662   0.434E-02    0.126E-02
DAV:   7    -0.133214128868E+03    0.18315E-04   -0.23127E-05  2350   0.459E-02    0.581E-03
DAV:   8    -0.133214119854E+03    0.90137E-05   -0.21330E-05  2088   0.416E-02
  17 F= -.13321412E+03 E0= -.13321091E+03  d E =-.166724E-02
       N       E                     dE             d eps       ncg     rms          rms(c)
DAV:   1    -0.133214279186E+03   -0.15032E-03   -0.27252E-01  2764   0.227E+00    0.684E-02
DAV:   2    -0.133214817620E+03   -0.53843E-03   -0.61880E-03  2976   0.322E-01    0.430E-02
DAV:   3    -0.133214776950E+03    0.40671E-04   -0.92141E-05  3002   0.503E-02    0.304E-02
DAV:   4    -0.133214748270E+03    0.28680E-04   -0.12581E-04  2826   0.552E-02    0.124E-02
DAV:   5    -0.133214744507E+03    0.37631E-05   -0.25855E-05  2286   0.268E-02    0.105E-02
DAV:   6    -0.133214741425E+03    0.30812E-05   -0.19632E-05  2124   0.250E-02
  18 F= -.13321474E+03 E0= -.13321156E+03  d E =-.621571E-03
       N       E                     dE             d eps       ncg     rms          rms(c)
DAV:   1    -0.133214721572E+03    0.22935E-04   -0.47165E-02  2748   0.945E-01    0.278E-02
DAV:   2    -0.133214811054E+03   -0.89482E-04   -0.10663E-03  2962   0.134E-01    0.191E-02
DAV:   3    -0.133214800548E+03    0.10506E-04   -0.14947E-05  2012   0.233E-02    0.136E-02
DAV:   4    -0.133214788221E+03    0.12327E-04   -0.30046E-05  2586   0.337E-02    0.588E-03
DAV:   5    -0.133214785320E+03    0.29006E-05   -0.10464E-05  1608   0.195E-02    0.492E-03
DAV:   6    -0.133214782987E+03    0.23336E-05   -0.67240E-06  1626   0.162E-02
  19 F= -.13321478E+03 E0= -.13321161E+03  d E =-.663132E-03
       N       E                     dE             d eps       ncg     rms          rms(c)
DAV:   1    -0.133214852696E+03   -0.67376E-04   -0.22762E-02  2730   0.657E-01    0.211E-02
DAV:   2    -0.133214887464E+03   -0.34767E-04   -0.53100E-04  2954   0.101E-01    0.135E-02
DAV:   3    -0.133214879713E+03    0.77511E-05   -0.18351E-05  1956   0.250E-02    0.978E-03
DAV:   4    -0.133214873723E+03    0.59893E-05   -0.45743E-06  1608   0.165E-02    0.647E-03
DAV:   5    -0.133214860192E+03    0.13531E-04   -0.90053E-06  1920   0.391E-02    0.346E-03
DAV:   6    -0.133214856222E+03    0.39699E-05   -0.10009E-05  1664   0.216E-02
  20 F= -.13321486E+03 E0= -.13321168E+03  d E =-.732352E-04
