 vasp.5.3.5 31Mar14 (build Apr 08 2024 10:12:10) complex                        
  
 executed on             LinuxIFC date 2024.07.29  11:01:39
 running on    8 total cores
 distrk:  each k-point on    8 cores,    1 groups
 distr:  one band on NCORES_PER_BAND=   4 cores,    2 groups


--------------------------------------------------------------------------------------------------------


 INCAR:
 POTCAR:    PAW_PBE O 08Apr2002                   
 POTCAR:    PAW_PBE Mg 13Apr2007                  
 POTCAR:    PAW_PBE Al 04Jan2001                  
 POTCAR:    PAW_PBE O 08Apr2002                   
   VRHFIN =O: s2p4                                                              
   LEXCH  = PE                                                                  
   EATOM  =   432.3788 eV,   31.7789 Ry                                         
                                                                                
   TITEL  = PAW_PBE O 08Apr2002                                                 
   LULTRA =        F    use ultrasoft PP ?                                      
   IUNSCR =        1    unscreen: 0-lin 1-nonlin 2-no                           
   RPACOR =    1.200    partial core radius                                     
   POMASS =   16.000; ZVAL   =    6.000    mass and valenz                      
   RCORE  =    1.520    outmost cutoff radius                                   
   RWIGS  =    1.550; RWIGS  =    0.820    wigner-seitz radius (au A)           
   ENMAX  =  400.000; ENMIN  =  300.000 eV                                      
   ICORE  =        2    local potential                                         
   LCOR   =        T    correct aug charges                                     
   LPAW   =        T    paw PP                                                  
   EAUG   =  605.392                                                            
   DEXC   =    0.000                                                            
   RMAX   =    1.553    core radius for proj-oper                               
   RAUG   =    1.300    factor for augmentation sphere                          
   RDEP   =    1.550    radius for radial grids                                 
   RDEPT  =    1.329    core radius for aug-charge                              
                                                                                
   Atomic configuration                                                         
    4 entries                                                                   
     n  l   j            E        occ.                                          
     1  0  0.50      -514.6923   2.0000                                         
     2  0  0.50       -23.9615   2.0000                                         
     2  1  0.50        -9.0305   4.0000                                         
     3  2  1.50        -9.5241   0.0000                                         
   Description                                                                  
     l       E           TYP  RCUT    TYP  RCUT                                 
     0    -23.9615318     23  1.200                                             
     0     -9.5240782     23  1.200                                             
     1     -9.0304911     23  1.520                                             
     1      8.1634956     23  1.520                                             
     2     -9.5240782      7  1.500                                             
  local pseudopotential read in
  partial core-charges read in
  partial kinetic energy density read in
  kinetic energy density of atom read in
  atomic valenz-charges read in
  non local Contribution for L=           0  read in
    real space projection operators read in
  non local Contribution for L=           0  read in
    real space projection operators read in
  non local Contribution for L=           1  read in
    real space projection operators read in
  non local Contribution for L=           1  read in
    real space projection operators read in
    PAW grid and wavefunctions read in
 
   number of l-projection  operators is LMAX  =           4
   number of lm-projection operators is LMMAX =           8
 
 POTCAR:    PAW_PBE Mg 13Apr2007                  
   VRHFIN =Mg: s2p0                                                             
   LEXCH  = PE                                                                  
   EATOM  =    23.0369 eV,    1.6932 Ry                                         
                                                                                
   TITEL  = PAW_PBE Mg 13Apr2007                                                
   LULTRA =        F    use ultrasoft PP ?                                      
   IUNSCR =        1    unscreen: 0-lin 1-nonlin 2-no                           
   RPACOR =    1.500    partial core radius                                     
   POMASS =   24.305; ZVAL   =    2.000    mass and valenz                      
   RCORE  =    2.000    outmost cutoff radius                                   
   RWIGS  =    2.880; RWIGS  =    1.524    wigner-seitz radius (au A)           
   ENMAX  =  200.000; ENMIN  =  100.000 eV                                      
   RCLOC  =    1.506    cutoff for local pot                                    
   LCOR   =        T    correct aug charges                                     
   LPAW   =        T    paw PP                                                  
   EAUG   =  454.734                                                            
   DEXC   =    0.000                                                            
   RMAX   =    2.045    core radius for proj-oper                               
   RAUG   =    1.300    factor for augmentation sphere                          
   RDEP   =    2.025    radius for radial grids                                 
   RDEPT  =    1.942    core radius for aug-charge                              
                                                                                
   Atomic configuration                                                         
    6 entries                                                                   
     n  l   j            E        occ.                                          
     1  0  0.50     -1259.6230   2.0000                                         
     2  0  0.50       -79.8442   2.0000                                         
     2  1  1.50       -46.6121   6.0000                                         
     3  0  0.50        -4.7055   2.0000                                         
     3  1  0.50        -1.3660   0.0000                                         
     3  2  1.50        -1.3606   0.0000                                         
   Description                                                                  
     l       E           TYP  RCUT    TYP  RCUT                                 
     0     -4.7054661     23  2.000                                             
     0     27.2116520     23  2.000                                             
     1      1.3605826     23  2.000                                             
     1     27.2116520     23  2.000                                             
     2     -1.3605826     23  2.000                                             
  local pseudopotential read in
  partial core-charges read in
  partial kinetic energy density read in
  atomic valenz-charges read in
  non local Contribution for L=           0  read in
    real space projection operators read in
  non local Contribution for L=           0  read in
    real space projection operators read in
  non local Contribution for L=           1  read in
    real space projection operators read in
  non local Contribution for L=           1  read in
    real space projection operators read in
  non local Contribution for L=           2  read in
    real space projection operators read in
    PAW grid and wavefunctions read in
 
   number of l-projection  operators is LMAX  =           5
   number of lm-projection operators is LMMAX =          13
 
 POTCAR:    PAW_PBE Al 04Jan2001                  
   VRHFIN =Al: s2p1                                                             
   LEXCH  = PE                                                                  
   EATOM  =    53.5387 eV,    3.9350 Ry                                         
                                                                                
   TITEL  = PAW_PBE Al 04Jan2001                                                
   LULTRA =        F    use ultrasoft PP ?                                      
   IUNSCR =        1    unscreen: 0-lin 1-nonlin 2-no                           
   RPACOR =    1.500    partial core radius                                     
   POMASS =   26.981; ZVAL   =    3.000    mass and valenz                      
   RCORE  =    1.900    outmost cutoff radius                                   
   RWIGS  =    2.650; RWIGS  =    1.402    wigner-seitz radius (au A)           
   ENMAX  =  240.300; ENMIN  =  180.225 eV                                      
   ICORE  =        2    local potential                                         
   LCOR   =        T    correct aug charges                                     
   LPAW   =        T    paw PP                                                  
   EAUG   =  291.052                                                            
   DEXC   =    0.000                                                            
   RMAX   =    1.939    core radius for proj-oper                               
   RAUG   =    1.300    factor for augmentation sphere                          
   RDEP   =    1.966    radius for radial grids                                 
   RDEPT  =    1.856    core radius for aug-charge                              
                                                                                
   Atomic configuration                                                         
    6 entries                                                                   
     n  l   j            E        occ.                                          
     1  0  0.50     -1511.1048   2.0000                                         
     2  0  0.50      -108.1629   2.0000                                         
     2  1  1.50       -69.6402   6.0000                                         
     3  0  0.50        -7.7528   2.0000                                         
     3  1  1.50        -2.7121   1.0000                                         
     3  2  2.50        -2.7212   0.0000                                         
   Description                                                                  
     l       E           TYP  RCUT    TYP  RCUT                                 
     0     -7.7528455     23  1.900                                             
     0     -3.3096929     23  1.900                                             
     1     -2.7120682     23  1.900                                             
     1     13.6058260     23  1.900                                             
     2     -2.7211652      7  1.900                                             
  local pseudopotential read in
  partial core-charges read in
  partial kinetic energy density read in
  atomic valenz-charges read in
  non local Contribution for L=           0  read in
    real space projection operators read in
  non local Contribution for L=           0  read in
    real space projection operators read in
  non local Contribution for L=           1  read in
    real space projection operators read in
  non local Contribution for L=           1  read in
    real space projection operators read in
    PAW grid and wavefunctions read in
 
   number of l-projection  operators is LMAX  =           4
   number of lm-projection operators is LMMAX =           8
 

 ----------------------------------------------------------------------------- 
|                                                                             |
|  ADVICE TO THIS USER RUNNING 'VASP/VAMP'   (HEAR YOUR MASTER'S VOICE ...):  |
|                                                                             |
|      You have a (more or less) 'large supercell' and for larger cells       |
|      it might be more efficient to use real space projection opertators     |
|      So try LREAL= Auto  in the INCAR   file.                               |
|      Mind: At the moment your POTCAR file does not contain real space       |
|       projectors, and has to be modified,  BUT if you                       |
|      want to do an extremely  accurate calculation you might also keep the  |
|      reciprocal projection scheme          (i.e. LREAL=.FALSE.)             |
|                                                                             |
 ----------------------------------------------------------------------------- 

  PAW_PBE O 08Apr2002                   :
 energy of atom  1       EATOM= -432.3788
 kinetic energy error for atom=    0.0208 (will be added to EATOM!!)
  PAW_PBE Mg 13Apr2007                  :
 energy of atom  2       EATOM=  -23.0369
 kinetic energy error for atom=    0.0000 (will be added to EATOM!!)
  PAW_PBE Al 04Jan2001                  :
 energy of atom  3       EATOM=  -53.5387
 kinetic energy error for atom=    0.0002 (will be added to EATOM!!)
 
 
 POSCAR: Layer                                   
  positions in direct lattice
  velocities in cartesian coordinates
 exchange correlation table for  LEXCH =        8
   RHO(1)=    0.500       N(1)  =     2000
   RHO(2)=  100.500       N(2)  =     4000
 


--------------------------------------------------------------------------------------------------------


 ion  position               nearest neighbor table
   1  0.000  0.000  0.347-  17 2.14  17 2.14  17 2.14  14 2.14  14 2.14  14 2.14
   2  0.333  0.667  0.407-  14 2.14  14 2.14  14 2.14  11 2.14  11 2.14  11 2.14
   3  0.000  0.000  0.526-  15 2.14  15 2.14  15 2.14  18 2.14  18 2.14  18 2.14
   4  0.333  0.667  0.585-  15 2.14  15 2.14  15 2.14  12 2.14  12 2.14  12 2.14
   5  0.000  0.000  0.704-  16 2.14  16 2.14  16 2.14  19 2.14  19 2.14  19 2.14
   6  0.333  0.667  0.764-  16 2.14  16 2.14  16 2.14  13 2.15  13 2.15  13 2.15
   7  0.667  0.333  0.288-  17 2.14  17 2.14  17 2.14  10 2.15  10 2.15  10 2.15
   8  0.667  0.333  0.466-  18 2.14  18 2.14  18 2.14  11 2.14  11 2.14  11 2.14
   9  0.667  0.333  0.645-  19 2.14  19 2.14  19 2.14  12 2.14  12 2.14  12 2.14
  10  0.000  0.000  0.257-   7 2.15   7 2.15   7 2.15  21 2.85  17 3.08  17 3.08  17 3.08
  11  0.000  0.000  0.437-   2 2.14   2 2.14   2 2.14   8 2.14   8 2.14   8 2.14  18 3.05  18 3.05
                            18 3.05  14 3.05  14 3.05  14 3.05
  12  0.000  0.000  0.615-   4 2.14   4 2.14   4 2.14   9 2.14   9 2.14   9 2.14  15 3.05  15 3.05
                            15 3.05  19 3.05  19 3.05  19 3.05
  13  0.000  0.000  0.794-   6 2.15   6 2.15   6 2.15  24 2.85  16 3.08  16 3.08  16 3.08
  14  0.667  0.333  0.377-   2 2.14   2 2.14   2 2.14   1 2.14   1 2.14   1 2.14  11 3.05  11 3.05
                            11 3.05  17 3.05  17 3.05  17 3.05
  15  0.667  0.333  0.556-   3 2.14   3 2.14   3 2.14   4 2.14   4 2.14   4 2.14  18 3.05  18 3.05
                            18 3.05  12 3.05  12 3.05  12 3.05
  16  0.667  0.333  0.734-   5 2.14   5 2.14   5 2.14   6 2.14   6 2.14   6 2.14  19 3.05  19 3.05
                            19 3.05  13 3.08  13 3.08  13 3.08
  17  0.333  0.667  0.318-   1 2.14   1 2.14   1 2.14   7 2.14   7 2.14   7 2.14  14 3.05  14 3.05
                            14 3.05  10 3.08  10 3.08  10 3.08
  18  0.333  0.667  0.496-   3 2.14   3 2.14   3 2.14   8 2.14   8 2.14   8 2.14  15 3.05  15 3.05
                            15 3.05  11 3.05  11 3.05  11 3.05
  19  0.333  0.667  0.674-   9 2.14   9 2.14   9 2.14   5 2.14   5 2.14   5 2.14  16 3.05  16 3.05
                            16 3.05  12 3.05  12 3.05  12 3.05
  20  0.000  0.000  0.026-  23 2.88  23 2.88  23 2.88  25 2.88  25 2.88  25 2.88
  21  0.000  0.000  0.190-  10 2.85  22 2.89  22 2.89  22 2.89
  22  0.667  0.333  0.135-  21 2.89  21 2.89  21 2.89  23 2.89  23 2.89  23 2.89
  23  0.333  0.667  0.080-  20 2.88  20 2.88  20 2.88  22 2.89  22 2.89  22 2.89
  24  0.000  0.000  0.862-  13 2.85  26 2.89  26 2.89  26 2.89
  25  0.667  0.333  0.971-  20 2.88  20 2.88  20 2.88  26 2.89  26 2.89  26 2.89
  26  0.333  0.667  0.916-  24 2.89  24 2.89  24 2.89  25 2.89  25 2.89  25 2.89
 
  LATTYP: Found a hexagonal cell.
 ALAT       =     2.9929628358
 C/A-ratio  =    14.1114854108
  
  Lattice vectors:
  
 A1 = (   2.5919820457,  -1.4964810762,   0.0000000000)
 A2 = (   0.0000000000,   2.9929621524,   0.0000000000)
 A3 = (   0.0000000000,  -0.0000000000,  42.2351513924)


Analysis of symmetry for initial positions (statically):
=====================================================================
 Subroutine PRICEL returns:
 Original cell was already a primitive cell.
 

 Routine SETGRP: Setting up the symmetry group for a 
 hexagonal supercell.


 Subroutine GETGRP returns: Found  6 space group operations
 (whereof  6 operations were pure point group operations)
 out of a pool of 24 trial point group operations.


The static configuration has the point symmetry C_3v.


Analysis of symmetry for dynamics (positions and initial velocities):
=====================================================================
 Subroutine PRICEL returns:
 Original cell was already a primitive cell.
 

 Routine SETGRP: Setting up the symmetry group for a 
 hexagonal supercell.


 Subroutine GETGRP returns: Found  6 space group operations
 (whereof  6 operations were pure point group operations)
 out of a pool of 24 trial point group operations.


The dynamic configuration has the point symmetry C_3v.


Analysis of constrained symmetry for selective dynamics:
=====================================================================
 Subroutine PRICEL returns:
 Original cell was already a primitive cell.
 

 Routine SETGRP: Setting up the symmetry group for a 
 hexagonal supercell.


 Subroutine GETGRP returns: Found  6 space group operations
 (whereof  6 operations were pure point group operations)
 out of a pool of 24 trial point group operations.


The constrained configuration has the point symmetry C_3v.
 
 
 KPOINTS: K-Spacing Value to Generate K-Mesh: 0.02

Automatic generation of k-mesh.
Space group operators:
 irot       det(A)        alpha          n_x          n_y          n_z        tau_x        tau_y        tau_z
    1     1.000000     0.000000     1.000000     0.000000     0.000000     0.000000     0.000000     0.000000
    2     1.000000   120.000000    -0.000000     0.000000    -1.000000     0.000000     0.000000     0.000000
    3     1.000000   120.000000    -0.000000    -0.000000     1.000000     0.000000     0.000000     0.000000
    4    -1.000000   180.000000    -0.866025     0.500000     0.000000     0.000000     0.000000     0.000000
    5    -1.000000   180.000000     0.000000     1.000000     0.000000     0.000000     0.000000     0.000000
    6    -1.000000   180.000000    -0.866025    -0.500000    -0.000000     0.000000     0.000000     0.000000
 
 Subroutine IBZKPT returns following result:
 ===========================================
 
 Found     21 irreducible k-points:
 
 Following reciprocal coordinates:
            Coordinates               Weight
  0.000000  0.000000  0.000000      1.000000
  0.076923  0.000000  0.000000      6.000000
  0.153846  0.000000  0.000000      6.000000
  0.230769  0.000000  0.000000      6.000000
  0.307692 -0.000000  0.000000      6.000000
  0.384615  0.000000  0.000000      6.000000
  0.461538  0.000000  0.000000      6.000000
  0.076923  0.076923 -0.000000      6.000000
  0.153846  0.076923  0.000000     12.000000
  0.230769  0.076923 -0.000000     12.000000
  0.307692  0.076923 -0.000000     12.000000
  0.384615  0.076923 -0.000000     12.000000
  0.461538  0.076923 -0.000000      6.000000
  0.153846  0.153846  0.000000      6.000000
  0.230769  0.153846  0.000000     12.000000
  0.307692  0.153846  0.000000     12.000000
  0.384615  0.153846  0.000000     12.000000
  0.230769  0.230769  0.000000      6.000000
  0.307692  0.230769  0.000000     12.000000
  0.384615  0.230769  0.000000      6.000000
  0.307692  0.307692 -0.000000      6.000000
 
 Following cartesian coordinates:
            Coordinates               Weight
  0.000000  0.000000  0.000000      1.000000
  0.029677 -0.000000 -0.000000      6.000000
  0.059355 -0.000000 -0.000000      6.000000
  0.089032 -0.000000 -0.000000      6.000000
  0.118709 -0.000000 -0.000000      6.000000
  0.148387 -0.000000 -0.000000      6.000000
  0.178064 -0.000000 -0.000000      6.000000
  0.044516  0.025701  0.000000      6.000000
  0.074193  0.025701  0.000000     12.000000
  0.103871  0.025701  0.000000     12.000000
  0.133548  0.025701  0.000000     12.000000
  0.163225  0.025701  0.000000     12.000000
  0.192903  0.025701  0.000000      6.000000
  0.089032  0.051403  0.000000      6.000000
  0.118709  0.051403  0.000000     12.000000
  0.148387  0.051403  0.000000     12.000000
  0.178064  0.051403  0.000000     12.000000
  0.133548  0.077104  0.000000      6.000000
  0.163225  0.077104  0.000000     12.000000
  0.192903  0.077104  0.000000      6.000000
  0.178064  0.102805  0.000000      6.000000
 


--------------------------------------------------------------------------------------------------------




 Dimension of arrays:
   k-points           NKPTS =     21   k-points in BZ     NKDIM =     21   number of bands    NBANDS=     62
   number of dos      NEDOS =    301   number of ions     NIONS =     26
   non local maximal  LDIM  =      5   non local SUM 2l+1 LMDIM =     13
   total plane-waves  NPLWV = 184320
   max r-space proj   IRMAX =      1   max aug-charges    IRDMAX= 191355
   dimension x,y,z NGX =    24 NGY =   24 NGZ =  320
   dimension x,y,z NGXF=    48 NGYF=   48 NGZF=  640
   support grid    NGXF=    96 NGYF=   96 NGZF= 1280
   ions per type =               9  10   7
 NGX,Y,Z   is equivalent  to a cutoff of  13.33, 13.33, 12.60 a.u.
 NGXF,Y,Z  is equivalent  to a cutoff of  26.66, 26.66, 25.19 a.u.


 I would recommend the setting:
   dimension x,y,z NGX =    22 NGY =   22 NGZ =  314
 SYSTEM =  unknown system                          
 POSCAR =  Layer                                   

 Startparameter for this run:
   NWRITE =      2    write-flag & timer
   PREC   = accura    normal or accurate (medium, high low for compatibility)
   ISTART =      0    job   : 0-new  1-cont  2-samecut
   ICHARG =      2    charge: 1-file 2-atom 10-const
   ISPIN  =      1    spin polarized calculation?
   LNONCOLLINEAR =      F non collinear calculations
   LSORBIT =      F    spin-orbit coupling
   INIWAV =      1    electr: 0-lowe 1-rand  2-diag
   LASPH  =      F    aspherical Exc in radial PAW
   METAGGA=      F    non-selfconsistent MetaGGA calc.

 Electronic Relaxation 1
   ENCUT  =  520.0 eV  38.22 Ry    6.18 a.u.   5.56  5.56 78.53*2*pi/ulx,y,z
   ENINI  =  520.0     initial cutoff
   ENAUG  =  605.4 eV  augmentation charge cutoff
   NELM   =    100;   NELMIN=  6; NELMDL=  0     # of ELM steps 
   EDIFF  = 0.1E-04   stopping-criterion for ELM
   LREAL  =      F    real-space projection
   NLSPLINE    = F    spline interpolate recip. space projectors
   LCOMPAT=      F    compatible to vasp.4.4
   GGA_COMPAT  = T    GGA compatible to vasp.4.4-vasp.4.6
   LMAXPAW     = -100 max onsite density
   LMAXMIX     =    2 max onsite mixed and CHGCAR
   VOSKOWN=      0    Vosko Wilk Nusair interpolation
   ROPT   =    0.00000   0.00000   0.00000
 Ionic relaxation
   EDIFFG = -.2E-01   stopping-criterion for IOM
   NSW    =    500    number of steps for IOM
   NBLOCK =      1;   KBLOCK =    500    inner block; outer block 
   IBRION =      2    ionic relax: 0-MD 1-quasi-New 2-CG
   NFREE  =      1    steps in history (QN), initial steepest desc. (CG)
   ISIF   =      2    stress and relaxation
   IWAVPR =     11    prediction:  0-non 1-charg 2-wave 3-comb
   ISYM   =      2    0-nonsym 1-usesym 2-fastsym
   LCORR  =      T    Harris-Foulkes like correction to forces

   POTIM  = 0.5000    time-step for ionic-motion
   TEIN   =    0.0    initial temperature
   TEBEG  =    0.0;   TEEND  =   0.0 temperature during run
   SMASS  =  -3.00    Nose mass-parameter (am)
   estimated Nose-frequenzy (Omega)   =  0.10E-29 period in steps =****** mass=  -0.205E-27a.u.
   SCALEE = 1.0000    scale energy and forces
   NPACO  =    256;   APACO  = 16.0  distance and # of slots for P.C.
   PSTRESS=    0.0 pullay stress

  Mass of Ions in am
   POMASS =  16.00 24.30 26.98
  Ionic Valenz
   ZVAL   =   6.00  2.00  3.00
  Atomic Wigner-Seitz radii
   RWIGS  =  -1.00 -1.00 -1.00
  virtual crystal weights 
   VCA    =   1.00  1.00  1.00
   NELECT =      95.0000    total number of electrons
   NUPDOWN=      -1.0000    fix difference up-down

 DOS related values:
   EMIN   =  10.00;   EMAX   =-10.00  energy-range for DOS
   EFERMI =   0.00
   ISMEAR =     0;   SIGMA  =   0.05  broadening in eV -4-tet -1-fermi 0-gaus

 Electronic relaxation 2 (details)
   IALGO  =     38    algorithm
   LDIAG  =      T    sub-space diagonalisation (order eigenvalues)
   LSUBROT=      F    optimize rotation matrix (better conditioning)
   TURBO    =      0    0=normal 1=particle mesh
   IRESTART =      0    0=no restart 2=restart with 2 vectors
   NREBOOT  =      0    no. of reboots
   NMIN     =      0    reboot dimension
   EREF     =   0.00    reference energy to select bands
   IMIX   =      4    mixing-type and parameters
     AMIX     =   0.40;   BMIX     =  1.00
     AMIX_MAG =   1.60;   BMIX_MAG =  1.00
     AMIN     =   0.01
     WC   =   100.;   INIMIX=   1;  MIXPRE=   1;  MAXMIX= -45

 Intra band minimization:
   WEIMIN = 0.0010     energy-eigenvalue tresh-hold
   EBREAK =  0.40E-07  absolut break condition
   DEPER  =   0.30     relativ break condition  

   TIME   =   0.40     timestep for ELM

  volume/ion in A,a.u.               =      12.60        85.04
  Fermi-wavevector in a.u.,A,eV,Ry     =   1.083545  2.047603 15.974188  1.174070
  Thomas-Fermi vector in A             =   2.219614
 
 Write flags
   LWAVE  =      F    write WAVECAR
   LCHARG =      T    write CHGCAR
   LVTOT  =      F    write LOCPOT, total local potential
   LVHAR  =      F    write LOCPOT, Hartree potential only
   LELF   =      F    write electronic localiz. function (ELF)
   LORBIT =      0    0 simple, 1 ext, 2 COOP (PROOUT)


 Dipole corrections
   LMONO  =      F    monopole corrections only (constant potential shift)
   LDIPOL =      F    correct potential (dipole corrections)
   IDIPOL =      0    1-x, 2-y, 3-z, 4-all directions 
   EPSILON=  1.0000000 bulk dielectric constant

 Exchange correlation treatment:
   GGA     =    --    GGA type
   LEXCH   =     8    internal setting for exchange type
   VOSKOWN=      0    Vosko Wilk Nusair interpolation
   LHFCALC =     F    Hartree Fock is set to
   LHFONE  =     F    Hartree Fock one center treatment
   AEXX    =    0.0000 exact exchange contribution

 Linear response parameters
   LEPSILON=     F    determine dielectric tensor
   LRPA    =     F    only Hartree local field effects (RPA)
   LNABLA  =     F    use nabla operator in PAW spheres
   LVEL    =     F    velocity operator in full k-point grid
   LINTERFAST=   F  fast interpolation
   KINTER  =     0    interpolate to denser k-point grid
   CSHIFT  =0.1000    complex shift for real part using Kramers Kronig
   OMEGAMAX=  -1.0    maximum frequency
   DEG_THRESHOLD= 0.2000000E-02 threshold for treating states as degnerate
   RTIME   =    0.100 relaxation time in fs

 Orbital magnetization related:
   ORBITALMAG=     F  switch on orbital magnetization
   LCHIMAG   =     F  perturbation theory with respect to B field
   DQ        =  0.001000  dq finite difference perturbation B field



--------------------------------------------------------------------------------------------------------


 conjugate gradient relaxation of ions
   using selective dynamics as specified on POSCAR
 charge density and potential will be updated during run
 non-spin polarized calculation
 Variant of blocked Davidson
 Davidson routine will perform the subspace rotation
 perform sub-space diagonalisation
    after iterative eigenvector-optimisation
 modified Broyden-mixing scheme, WC =      100.0
 initial mixing is a Kerker type mixing with AMIX =  0.4000 and BMIX =      1.0000
 Hartree-type preconditioning will be used
 using additional bands           14
 reciprocal scheme for non local part
 use partial core corrections
 calculate Harris-corrections to forces 
   (improved forces if not selfconsistent)
 use gradient corrections 
 use of overlap-Matrix (Vanderbilt PP)
 Gauss-broadening in eV      SIGMA  =   0.05


--------------------------------------------------------------------------------------------------------


  energy-cutoff  :      520.00
  volume of cell :      327.65
      direct lattice vectors                 reciprocal lattice vectors
     2.591982046 -1.496481076  0.000000000     0.385805142 -0.000000000 -0.000000000
     0.000000000  2.992962152  0.000000000     0.192902571  0.334117155  0.000000000
     0.000000000 -0.000000000 42.235151392     0.000000000  0.000000000  0.023676960

  length of vectors
     2.992962836  2.992962152 42.235151392     0.385805142  0.385805230  0.023676960


 
 k-points in units of 2pi/SCALE and weight: K-Spacing Value to Generate K-Mesh: 0.02
   0.00000000  0.00000000  0.00000000       0.006
   0.02967732 -0.00000000 -0.00000000       0.036
   0.05935464 -0.00000000 -0.00000000       0.036
   0.08903196 -0.00000000 -0.00000000       0.036
   0.11870927 -0.00000000 -0.00000000       0.036
   0.14838659 -0.00000000 -0.00000000       0.036
   0.17806391 -0.00000000 -0.00000000       0.036
   0.04451598  0.02570132  0.00000000       0.036
   0.07419330  0.02570132  0.00000000       0.071
   0.10387062  0.02570132  0.00000000       0.071
   0.13354793  0.02570132  0.00000000       0.071
   0.16322525  0.02570132  0.00000000       0.071
   0.19290257  0.02570132  0.00000000       0.036
   0.08903196  0.05140264  0.00000000       0.036
   0.11870927  0.05140264  0.00000000       0.071
   0.14838659  0.05140264  0.00000000       0.071
   0.17806391  0.05140264  0.00000000       0.071
   0.13354793  0.07710396  0.00000000       0.036
   0.16322525  0.07710396  0.00000000       0.071
   0.19290257  0.07710396  0.00000000       0.036
   0.17806391  0.10280528  0.00000000       0.036
 
 k-points in reciprocal lattice and weights: K-Spacing Value to Generate K-Mesh: 0.02
   0.00000000  0.00000000  0.00000000       0.006
   0.07692308  0.00000000  0.00000000       0.036
   0.15384615  0.00000000  0.00000000       0.036
   0.23076923  0.00000000  0.00000000       0.036
   0.30769231 -0.00000000  0.00000000       0.036
   0.38461538  0.00000000  0.00000000       0.036
   0.46153846  0.00000000  0.00000000       0.036
   0.07692308  0.07692308 -0.00000000       0.036
   0.15384615  0.07692308  0.00000000       0.071
   0.23076923  0.07692308 -0.00000000       0.071
   0.30769231  0.07692308 -0.00000000       0.071
   0.38461538  0.07692308 -0.00000000       0.071
   0.46153846  0.07692308 -0.00000000       0.036
   0.15384615  0.15384615  0.00000000       0.036
   0.23076923  0.15384615  0.00000000       0.071
   0.30769231  0.15384615  0.00000000       0.071
   0.38461538  0.15384615  0.00000000       0.071
   0.23076923  0.23076923  0.00000000       0.036
   0.30769231  0.23076923  0.00000000       0.071
   0.38461538  0.23076923  0.00000000       0.036
   0.30769231  0.30769231 -0.00000000       0.036
 
 position of ions in fractional coordinates (direct lattice) 
   0.00000000  0.00000000  0.34729592
   0.33333300  0.66666700  0.40682664
   0.00000000  0.00000000  0.52581816
   0.33333300  0.66666700  0.58527453
   0.00000000  0.00000000  0.70422849
   0.33333300  0.66666700  0.76373543
   0.66666700  0.33333300  0.28776124
   0.66666700  0.33333300  0.46635087
   0.66666700  0.33333300  0.64475683
   0.00000000  0.00000000  0.25729584
   0.00000000  0.00000000  0.43658570
   0.00000000  0.00000000  0.61501200
   0.00000000  0.00000000  0.79419992
   0.66666700  0.33333300  0.37707808
   0.66666700  0.33333300  0.55554071
   0.66666700  0.33333300  0.73395220
   0.33333300  0.66666700  0.31756522
   0.33333300  0.66666700  0.49609106
   0.33333300  0.66666700  0.67448382
   0.00000000  0.00000000  0.02583726
   0.00000000  0.00000000  0.18990976
   0.66666700  0.33333300  0.13517203
   0.33333300  0.66666700  0.08026898
   0.00000000  0.00000000  0.86164244
   0.66666700  0.33333300  0.97138718
   0.33333300  0.66666700  0.91644469
 
 position of ions in cartesian coordinates  (Angst):
   0.00000000 -0.00000000 14.66809573
   0.86399315  1.49648257 17.18238462
   0.00000000 -0.00000000 22.20800973
   0.86399315  1.49648257 24.71915830
   0.00000000 -0.00000000 29.74319677
   0.86399315  1.49648257 32.25648149
   1.72798889 -0.00000150 12.15363955
   1.72798889 -0.00000150 19.69639955
   1.72798889 -0.00000150 27.23140221
   0.00000000 -0.00000000 10.86692875
   0.00000000 -0.00000000 18.43926324
   0.00000000 -0.00000000 25.97512509
   0.00000000 -0.00000000 33.54315365
   1.72798889 -0.00000150 15.92594992
   1.72798889 -0.00000150 23.46334612
   1.72798889 -0.00000150 30.99858234
   0.86399315  1.49648257 13.41241535
   0.86399315  1.49648257 20.95248085
   0.86399315  1.49648257 28.48692644
   0.00000000 -0.00000000  1.09124077
   0.00000000 -0.00000000  8.02086727
   1.72798889 -0.00000150  5.70901103
   0.86399315  1.49648257  3.39017245
   0.00000000 -0.00000000 36.39159894
   1.72798889 -0.00000150 41.02668443
   0.86399315  1.49648257 38.70618034
 


--------------------------------------------------------------------------------------------------------


 k-point  1 :   0.0000 0.0000 0.0000  plane waves:    8953
 k-point  2 :   0.0769 0.0000 0.0000  plane waves:    8927
 k-point  3 :   0.1538 0.0000 0.0000  plane waves:    8911
 k-point  4 :   0.2308 0.0000 0.0000  plane waves:    8866
 k-point  5 :   0.3077-0.0000 0.0000  plane waves:    8830
 k-point  6 :   0.3846 0.0000 0.0000  plane waves:    8776
 k-point  7 :   0.4615 0.0000 0.0000  plane waves:    8784
 k-point  8 :   0.0769 0.0769-0.0000  plane waves:    8913
 k-point  9 :   0.1538 0.0769 0.0000  plane waves:    8890
 k-point 10 :   0.2308 0.0769-0.0000  plane waves:    8837
 k-point 11 :   0.3077 0.0769-0.0000  plane waves:    8820
 k-point 12 :   0.3846 0.0769-0.0000  plane waves:    8790
 k-point 13 :   0.4615 0.0769-0.0000  plane waves:    8746
 k-point 14 :   0.1538 0.1538 0.0000  plane waves:    8861
 k-point 15 :   0.2308 0.1538 0.0000  plane waves:    8816
 k-point 16 :   0.3077 0.1538 0.0000  plane waves:    8804
 k-point 17 :   0.3846 0.1538 0.0000  plane waves:    8764
 k-point 18 :   0.2308 0.2308 0.0000  plane waves:    8820
 k-point 19 :   0.3077 0.2308 0.0000  plane waves:    8785
 k-point 20 :   0.3846 0.2308 0.0000  plane waves:    8800
 k-point 21 :   0.3077 0.3077-0.0000  plane waves:    8818

 maximum and minimum number of plane-waves per node :      2257     2176

 maximum number of plane-waves:      8953
 maximum index in each direction: 
   IXMAX=    5   IYMAX=    5   IZMAX=   78
   IXMIN=   -6   IYMIN=   -5   IZMIN=  -78

 NGX is ok and might be reduce to  24
 NGY is ok and might be reduce to  22
 NGZ is ok and might be reduce to 314

 parallel 3D FFT for wavefunctions:
    minimum data exchange during FFTs selected (reduces bandwidth)
 parallel 3D FFT for charge:
    minimum data exchange during FFTs selected (reduces bandwidth)


 total amount of memory used by VASP on root node   146895. kBytes
========================================================================

   base      :      30000. kBytes
   nonl-proj :      15552. kBytes
   fftplans  :      55171. kBytes
   grid      :      22118. kBytes
   one-center:         56. kBytes
   wavefun   :      23998. kBytes
 
     INWAV:  cpu time    0.00: real time    0.00
 Broyden mixing: mesh for mixing (old mesh)
   NGX = 11   NGY = 11   NGZ =157
  (NGX  = 48   NGY  = 48   NGZ  =640)
  gives a total of  18997 points

 initial charge density was supplied:
 charge density of overlapping atoms calculated
 number of electron      95.0000000 magnetization 
 keeping initial charge density in first step


--------------------------------------------------------------------------------------------------------


 Maximum index for augmentation-charges        23033 (set IRDMAX)


--------------------------------------------------------------------------------------------------------


 First call to EWALD:  gamma=   0.257
 Maximum number of real-space cells 6x 6x 1
 Maximum number of reciprocal cells 1x 1x14

 FEWALD executed in parallel
    FEWALD:  cpu time    0.00: real time    0.00


----------------------------------------- Iteration    1(   1)  ---------------------------------------


    POTLOK:  cpu time    0.11: real time    0.11
    SETDIJ:  cpu time    0.11: real time    0.11
     EDDAV:  cpu time    3.98: real time    4.01
       DOS:  cpu time    0.00: real time    0.00
    --------------------------------------------
      LOOP:  cpu time    4.21: real time    4.24

 eigenvalue-minimisations  :  2620
 total energy-change (2. order) : 0.4703406E+03  (-0.4133135E+04)
 number of electron      95.0000000 magnetization 
 augmentation part       95.0000000 magnetization 

 Free energy of the ion-electron system (eV)
  ---------------------------------------------------
  alpha Z        PSCENC =       123.40746629
  Ewald energy   TEWEN  =     13564.04646457
  -Hartree energ DENC   =    -18321.39908543
  -exchange      EXHF   =         0.00000000
  -V(xc)+E(xc)   XCENC  =      -419.10378285
  PAW double counting   =      4235.41334458    -3509.29226066
  entropy T*S    EENTRO =        -0.00374101
  eigenvalues    EBANDS =       300.91243219
  atomic energy  EATOM  =      4496.35971583
  ---------------------------------------------------
  free energy    TOTEN  =       470.34055349 eV

  energy without entropy =      470.34429450  energy(sigma->0) =      470.34242400


--------------------------------------------------------------------------------------------------------




----------------------------------------- Iteration    1(   2)  ---------------------------------------


     EDDAV:  cpu time    4.74: real time    4.74
       DOS:  cpu time    0.00: real time    0.00
    --------------------------------------------
      LOOP:  cpu time    4.74: real time    4.74

 eigenvalue-minimisations  :  3384
 total energy-change (2. order) :-0.5642249E+03  (-0.5351303E+03)
 number of electron      95.0000000 magnetization 
 augmentation part       95.0000000 magnetization 

 Free energy of the ion-electron system (eV)
  ---------------------------------------------------
  alpha Z        PSCENC =       123.40746629
  Ewald energy   TEWEN  =     13564.04646457
  -Hartree energ DENC   =    -18321.39908543
  -exchange      EXHF   =         0.00000000
  -V(xc)+E(xc)   XCENC  =      -419.10378285
  PAW double counting   =      4235.41334458    -3509.29226066
  entropy T*S    EENTRO =        -0.00350366
  eigenvalues    EBANDS =      -263.31271756
  atomic energy  EATOM  =      4496.35971583
  ---------------------------------------------------
  free energy    TOTEN  =       -93.88435891 eV

  energy without entropy =      -93.88085525  energy(sigma->0) =      -93.88260708


--------------------------------------------------------------------------------------------------------




----------------------------------------- Iteration    1(   3)  ---------------------------------------


     EDDAV:  cpu time    4.37: real time    4.37
       DOS:  cpu time    0.00: real time    0.00
    --------------------------------------------
      LOOP:  cpu time    4.37: real time    4.37

 eigenvalue-minimisations  :  3034
 total energy-change (2. order) :-0.5359320E+02  (-0.5328540E+02)
 number of electron      95.0000000 magnetization 
 augmentation part       95.0000000 magnetization 

 Free energy of the ion-electron system (eV)
  ---------------------------------------------------
  alpha Z        PSCENC =       123.40746629
  Ewald energy   TEWEN  =     13564.04646457
  -Hartree energ DENC   =    -18321.39908543
  -exchange      EXHF   =         0.00000000
  -V(xc)+E(xc)   XCENC  =      -419.10378285
  PAW double counting   =      4235.41334458    -3509.29226066
  entropy T*S    EENTRO =        -0.00521756
  eigenvalues    EBANDS =      -316.90420184
  atomic energy  EATOM  =      4496.35971583
  ---------------------------------------------------
  free energy    TOTEN  =      -147.47755709 eV

  energy without entropy =     -147.47233953  energy(sigma->0) =     -147.47494831


--------------------------------------------------------------------------------------------------------




----------------------------------------- Iteration    1(   4)  ---------------------------------------


     EDDAV:  cpu time    4.30: real time    4.30
       DOS:  cpu time    0.00: real time    0.00
    --------------------------------------------
      LOOP:  cpu time    4.30: real time    4.30

 eigenvalue-minimisations  :  3072
 total energy-change (2. order) :-0.7002217E+00  (-0.6988179E+00)
 number of electron      95.0000000 magnetization 
 augmentation part       95.0000000 magnetization 

 Free energy of the ion-electron system (eV)
  ---------------------------------------------------
  alpha Z        PSCENC =       123.40746629
  Ewald energy   TEWEN  =     13564.04646457
  -Hartree energ DENC   =    -18321.39908543
  -exchange      EXHF   =         0.00000000
  -V(xc)+E(xc)   XCENC  =      -419.10378285
  PAW double counting   =      4235.41334458    -3509.29226066
  entropy T*S    EENTRO =        -0.00491148
  eigenvalues    EBANDS =      -317.60472964
  atomic energy  EATOM  =      4496.35971583
  ---------------------------------------------------
  free energy    TOTEN  =      -148.17777880 eV

  energy without entropy =     -148.17286732  energy(sigma->0) =     -148.17532306


--------------------------------------------------------------------------------------------------------




----------------------------------------- Iteration    1(   5)  ---------------------------------------


     EDDAV:  cpu time    4.51: real time    4.51
       DOS:  cpu time    0.00: real time    0.00
    CHARGE:  cpu time    0.36: real time    0.36
    MIXING:  cpu time    0.00: real time    0.00
    --------------------------------------------
      LOOP:  cpu time    4.87: real time    4.88

 eigenvalue-minimisations  :  3084
 total energy-change (2. order) :-0.1132157E-01  (-0.1131607E-01)
 number of electron      95.0000001 magnetization 
 augmentation part        6.9231974 magnetization 

 Broyden mixing:
  rms(total) = 0.21937E+01    rms(broyden)= 0.21932E+01
  rms(prec ) = 0.22574E+01
  weight for this iteration     100.00

 Free energy of the ion-electron system (eV)
  ---------------------------------------------------
  alpha Z        PSCENC =       123.40746629
  Ewald energy   TEWEN  =     13564.04646457
  -Hartree energ DENC   =    -18321.39908543
  -exchange      EXHF   =         0.00000000
  -V(xc)+E(xc)   XCENC  =      -419.10378285
  PAW double counting   =      4235.41334458    -3509.29226066
  entropy T*S    EENTRO =        -0.00490802
  eigenvalues    EBANDS =      -317.61605466
  atomic energy  EATOM  =      4496.35971583
  ---------------------------------------------------
  free energy    TOTEN  =      -148.18910037 eV

  energy without entropy =     -148.18419234  energy(sigma->0) =     -148.18664635


--------------------------------------------------------------------------------------------------------




----------------------------------------- Iteration    1(   6)  ---------------------------------------


    POTLOK:  cpu time    0.10: real time    0.10
    SETDIJ:  cpu time    0.11: real time    0.11
     EDDAV:  cpu time    4.36: real time    4.36
       DOS:  cpu time    0.00: real time    0.00
    CHARGE:  cpu time    0.36: real time    0.36
    MIXING:  cpu time    0.01: real time    0.01
    --------------------------------------------
      LOOP:  cpu time    4.93: real time    4.94

 eigenvalue-minimisations  :  2890
 total energy-change (2. order) : 0.1470115E+02  (-0.8370116E+01)
 number of electron      95.0000001 magnetization 
 augmentation part        5.5920020 magnetization 

 Broyden mixing:
  rms(total) = 0.74860E+00    rms(broyden)= 0.74767E+00
  rms(prec ) = 0.75652E+00
  weight for this iteration     100.00

 eigenvalues of (default mixing * dielectric matrix)
  average eigenvalue GAMMA=   0.8381
  0.8381

 Free energy of the ion-electron system (eV)
  ---------------------------------------------------
  alpha Z        PSCENC =       123.40746629
  Ewald energy   TEWEN  =     13564.04646457
  -Hartree energ DENC   =    -18492.94084689
  -exchange      EXHF   =         0.00000000
  -V(xc)+E(xc)   XCENC  =      -406.92844508
  PAW double counting   =      5029.58806033    -4306.60205559
  entropy T*S    EENTRO =        -0.00268497
  eigenvalues    EBANDS =      -140.41562389
  atomic energy  EATOM  =      4496.35971583
  ---------------------------------------------------
  free energy    TOTEN  =      -133.48794941 eV

  energy without entropy =     -133.48526444  energy(sigma->0) =     -133.48660692


--------------------------------------------------------------------------------------------------------




----------------------------------------- Iteration    1(   7)  ---------------------------------------


    POTLOK:  cpu time    0.10: real time    0.10
    SETDIJ:  cpu time    0.10: real time    0.10
     EDDAV:  cpu time    4.32: real time    4.32
       DOS:  cpu time    0.00: real time    0.00
    CHARGE:  cpu time    0.35: real time    0.35
    MIXING:  cpu time    0.00: real time    0.00
    --------------------------------------------
      LOOP:  cpu time    4.88: real time    4.89

 eigenvalue-minimisations  :  2914
 total energy-change (2. order) : 0.1750401E+00  (-0.1481314E+00)
 number of electron      95.0000001 magnetization 
 augmentation part        5.6421069 magnetization 

 Broyden mixing:
  rms(total) = 0.45125E+00    rms(broyden)= 0.45124E+00
  rms(prec ) = 0.45689E+00
  weight for this iteration     100.00

 eigenvalues of (default mixing * dielectric matrix)
  average eigenvalue GAMMA=   1.6416
  0.9660  2.3172

 Free energy of the ion-electron system (eV)
  ---------------------------------------------------
  alpha Z        PSCENC =       123.40746629
  Ewald energy   TEWEN  =     13564.04646457
  -Hartree energ DENC   =    -18489.48063376
  -exchange      EXHF   =         0.00000000
  -V(xc)+E(xc)   XCENC  =      -406.60648111
  PAW double counting   =      5306.52379135    -4583.11173110
  entropy T*S    EENTRO =        -0.00604756
  eigenvalues    EBANDS =      -144.44545378
  atomic energy  EATOM  =      4496.35971583
  ---------------------------------------------------
  free energy    TOTEN  =      -133.31290928 eV

  energy without entropy =     -133.30686172  energy(sigma->0) =     -133.30988550


--------------------------------------------------------------------------------------------------------




----------------------------------------- Iteration    1(   8)  ---------------------------------------


    POTLOK:  cpu time    0.10: real time    0.10
    SETDIJ:  cpu time    0.10: real time    0.10
     EDDAV:  cpu time    4.45: real time    4.46
       DOS:  cpu time    0.00: real time    0.00
    CHARGE:  cpu time    0.35: real time    0.35
    MIXING:  cpu time    0.01: real time    0.01
    --------------------------------------------
      LOOP:  cpu time    5.02: real time    5.02

 eigenvalue-minimisations  :  3036
 total energy-change (2. order) : 0.9755898E-01  (-0.4520335E-01)
 number of electron      95.0000001 magnetization 
 augmentation part        5.6808956 magnetization 

 Broyden mixing:
  rms(total) = 0.76291E-01    rms(broyden)= 0.76257E-01
  rms(prec ) = 0.90436E-01
  weight for this iteration     100.00

 eigenvalues of (default mixing * dielectric matrix)
  average eigenvalue GAMMA=   1.3978
  2.4284  0.8824  0.8824

 Free energy of the ion-electron system (eV)
  ---------------------------------------------------
  alpha Z        PSCENC =       123.40746629
  Ewald energy   TEWEN  =     13564.04646457
  -Hartree energ DENC   =    -18494.44000250
  -exchange      EXHF   =         0.00000000
  -V(xc)+E(xc)   XCENC  =      -405.12021179
  PAW double counting   =      5797.71424608    -5074.01884522
  entropy T*S    EENTRO =        -0.00792941
  eigenvalues    EBANDS =      -141.15625415
  atomic energy  EATOM  =      4496.35971583
  ---------------------------------------------------
  free energy    TOTEN  =      -133.21535030 eV

  energy without entropy =     -133.20742089  energy(sigma->0) =     -133.21138559


--------------------------------------------------------------------------------------------------------




----------------------------------------- Iteration    1(   9)  ---------------------------------------


    POTLOK:  cpu time    0.10: real time    0.10
    SETDIJ:  cpu time    0.10: real time    0.10
     EDDAV:  cpu time    4.36: real time    4.37
       DOS:  cpu time    0.00: real time    0.00
    CHARGE:  cpu time    0.35: real time    0.35
    MIXING:  cpu time    0.01: real time    0.01
    --------------------------------------------
      LOOP:  cpu time    4.93: real time    4.93

 eigenvalue-minimisations  :  2954
 total energy-change (2. order) : 0.1722187E-01  (-0.7623259E-02)
 number of electron      95.0000001 magnetization 
 augmentation part        5.6645033 magnetization 

 Broyden mixing:
  rms(total) = 0.43526E-01    rms(broyden)= 0.43525E-01
  rms(prec ) = 0.45012E-01
  weight for this iteration     100.00

 eigenvalues of (default mixing * dielectric matrix)
  average eigenvalue GAMMA=   1.5067
  2.5065  1.7318  0.8943  0.8943

 Free energy of the ion-electron system (eV)
  ---------------------------------------------------
  alpha Z        PSCENC =       123.40746629
  Ewald energy   TEWEN  =     13564.04646457
  -Hartree energ DENC   =    -18497.59635360
  -exchange      EXHF   =         0.00000000
  -V(xc)+E(xc)   XCENC  =      -404.77486315
  PAW double counting   =      5822.83390270    -5099.17093621
  entropy T*S    EENTRO =        -0.00699753
  eigenvalues    EBANDS =      -138.29652730
  atomic energy  EATOM  =      4496.35971583
  ---------------------------------------------------
  free energy    TOTEN  =      -133.19812842 eV

  energy without entropy =     -133.19113089  energy(sigma->0) =     -133.19462965


--------------------------------------------------------------------------------------------------------




----------------------------------------- Iteration    1(  10)  ---------------------------------------


    POTLOK:  cpu time    0.10: real time    0.10
    SETDIJ:  cpu time    0.10: real time    0.10
     EDDAV:  cpu time    4.41: real time    4.42
       DOS:  cpu time    0.00: real time    0.00
    CHARGE:  cpu time    0.36: real time    0.36
    MIXING:  cpu time    0.01: real time    0.01
    --------------------------------------------
      LOOP:  cpu time    4.99: real time    4.99

 eigenvalue-minimisations  :  2994
 total energy-change (2. order) :-0.7613421E-03  (-0.4320135E-02)
 number of electron      95.0000001 magnetization 
 augmentation part        5.6454486 magnetization 

 Broyden mixing:
  rms(total) = 0.28546E-01    rms(broyden)= 0.28528E-01
  rms(prec ) = 0.29837E-01
  weight for this iteration     100.00

 eigenvalues of (default mixing * dielectric matrix)
  average eigenvalue GAMMA=   1.2797
  2.4924  1.6547  0.9014  0.9014  0.4485

 Free energy of the ion-electron system (eV)
  ---------------------------------------------------
  alpha Z        PSCENC =       123.40746629
  Ewald energy   TEWEN  =     13564.04646457
  -Hartree energ DENC   =    -18499.23344553
  -exchange      EXHF   =         0.00000000
  -V(xc)+E(xc)   XCENC  =      -404.56661940
  PAW double counting   =      5805.14677948    -5081.51773178
  entropy T*S    EENTRO =        -0.00677070
  eigenvalues    EBANDS =      -136.83474852
  atomic energy  EATOM  =      4496.35971583
  ---------------------------------------------------
  free energy    TOTEN  =      -133.19888976 eV

  energy without entropy =     -133.19211906  energy(sigma->0) =     -133.19550441


--------------------------------------------------------------------------------------------------------




----------------------------------------- Iteration    1(  11)  ---------------------------------------


    POTLOK:  cpu time    0.10: real time    0.10
    SETDIJ:  cpu time    0.10: real time    0.10
     EDDAV:  cpu time    4.45: real time    4.46
       DOS:  cpu time    0.00: real time    0.00
    CHARGE:  cpu time    0.36: real time    0.36
    MIXING:  cpu time    0.01: real time    0.01
    --------------------------------------------
      LOOP:  cpu time    5.02: real time    5.02

 eigenvalue-minimisations  :  3076
 total energy-change (2. order) : 0.9142914E-03  (-0.5136604E-03)
 number of electron      95.0000001 magnetization 
 augmentation part        5.6525117 magnetization 

 Broyden mixing:
  rms(total) = 0.15806E-01    rms(broyden)= 0.15805E-01
  rms(prec ) = 0.17074E-01
  weight for this iteration     100.00

 eigenvalues of (default mixing * dielectric matrix)
  average eigenvalue GAMMA=   1.4674
  2.7885  2.3667  0.9589  0.9589  1.0173  0.7140

 Free energy of the ion-electron system (eV)
  ---------------------------------------------------
  alpha Z        PSCENC =       123.40746629
  Ewald energy   TEWEN  =     13564.04646457
  -Hartree energ DENC   =    -18498.32541602
  -exchange      EXHF   =         0.00000000
  -V(xc)+E(xc)   XCENC  =      -404.59796158
  PAW double counting   =      5791.95569471    -5068.31710604
  entropy T*S    EENTRO =        -0.00689730
  eigenvalues    EBANDS =      -137.71993592
  atomic energy  EATOM  =      4496.35971583
  ---------------------------------------------------
  free energy    TOTEN  =      -133.19797547 eV

  energy without entropy =     -133.19107817  energy(sigma->0) =     -133.19452682


--------------------------------------------------------------------------------------------------------




----------------------------------------- Iteration    1(  12)  ---------------------------------------


    POTLOK:  cpu time    0.10: real time    0.10
    SETDIJ:  cpu time    0.10: real time    0.10
     EDDAV:  cpu time    4.43: real time    4.44
       DOS:  cpu time    0.00: real time    0.00
    CHARGE:  cpu time    0.35: real time    0.35
    MIXING:  cpu time    0.01: real time    0.01
    --------------------------------------------
      LOOP:  cpu time    5.00: real time    5.01

 eigenvalue-minimisations  :  3030
 total energy-change (2. order) :-0.7774156E-04  (-0.4798410E-03)
 number of electron      95.0000001 magnetization 
 augmentation part        5.6520306 magnetization 

 Broyden mixing:
  rms(total) = 0.98054E-02    rms(broyden)= 0.98002E-02
  rms(prec ) = 0.11055E-01
  weight for this iteration     100.00

 eigenvalues of (default mixing * dielectric matrix)
  average eigenvalue GAMMA=   1.3836
  2.9346  2.4811  0.9045  0.9045  0.9126  0.9126  0.6352

 Free energy of the ion-electron system (eV)
  ---------------------------------------------------
  alpha Z        PSCENC =       123.40746629
  Ewald energy   TEWEN  =     13564.04646457
  -Hartree energ DENC   =    -18497.89351656
  -exchange      EXHF   =         0.00000000
  -V(xc)+E(xc)   XCENC  =      -404.54676573
  PAW double counting   =      5761.64449421    -5038.02008506
  entropy T*S    EENTRO =        -0.00694179
  eigenvalues    EBANDS =      -138.18888497
  atomic energy  EATOM  =      4496.35971583
  ---------------------------------------------------
  free energy    TOTEN  =      -133.19805321 eV

  energy without entropy =     -133.19111143  energy(sigma->0) =     -133.19458232


--------------------------------------------------------------------------------------------------------




----------------------------------------- Iteration    1(  13)  ---------------------------------------


    POTLOK:  cpu time    0.10: real time    0.10
    SETDIJ:  cpu time    0.10: real time    0.10
     EDDAV:  cpu time    4.53: real time    4.53
       DOS:  cpu time    0.00: real time    0.00
    CHARGE:  cpu time    0.35: real time    0.35
    MIXING:  cpu time    0.01: real time    0.01
    --------------------------------------------
      LOOP:  cpu time    5.09: real time    5.10

 eigenvalue-minimisations  :  3138
 total energy-change (2. order) : 0.2197315E-03  (-0.6697580E-04)
 number of electron      95.0000001 magnetization 
 augmentation part        5.6536590 magnetization 

 Broyden mixing:
  rms(total) = 0.70552E-02    rms(broyden)= 0.70547E-02
  rms(prec ) = 0.82593E-02
  weight for this iteration     100.00

 eigenvalues of (default mixing * dielectric matrix)
  average eigenvalue GAMMA=   1.3709
  2.8723  2.5872  1.0099  1.0099  1.0498  1.0498  0.6940  0.6940

 Free energy of the ion-electron system (eV)
  ---------------------------------------------------
  alpha Z        PSCENC =       123.40746629
  Ewald energy   TEWEN  =     13564.04646457
  -Hartree energ DENC   =    -18497.56626131
  -exchange      EXHF   =         0.00000000
  -V(xc)+E(xc)   XCENC  =      -404.55539027
  PAW double counting   =      5757.12269000    -5033.49560985
  entropy T*S    EENTRO =        -0.00693925
  eigenvalues    EBANDS =      -138.50996949
  atomic energy  EATOM  =      4496.35971583
  ---------------------------------------------------
  free energy    TOTEN  =      -133.19783348 eV

  energy without entropy =     -133.19089424  energy(sigma->0) =     -133.19436386


--------------------------------------------------------------------------------------------------------




----------------------------------------- Iteration    1(  14)  ---------------------------------------


    POTLOK:  cpu time    0.10: real time    0.10
    SETDIJ:  cpu time    0.10: real time    0.10
     EDDAV:  cpu time    4.62: real time    4.63
       DOS:  cpu time    0.00: real time    0.00
    CHARGE:  cpu time    0.35: real time    0.36
    MIXING:  cpu time    0.00: real time    0.00
    --------------------------------------------
      LOOP:  cpu time    5.19: real time    5.20

 eigenvalue-minimisations  :  3220
 total energy-change (2. order) : 0.1586658E-03  (-0.8112825E-04)
 number of electron      95.0000001 magnetization 
 augmentation part        5.6541050 magnetization 

 Broyden mixing:
  rms(total) = 0.24642E-02    rms(broyden)= 0.24603E-02
  rms(prec ) = 0.45429E-02
  weight for this iteration     100.00

 eigenvalues of (default mixing * dielectric matrix)
  average eigenvalue GAMMA=   1.3106
  2.8566  2.5153  1.2595  1.0024  0.9172  0.9172  0.6667  0.8301  0.8301

 Free energy of the ion-electron system (eV)
  ---------------------------------------------------
  alpha Z        PSCENC =       123.40746629
  Ewald energy   TEWEN  =     13564.04646457
  -Hartree energ DENC   =    -18497.27994537
  -exchange      EXHF   =         0.00000000
  -V(xc)+E(xc)   XCENC  =      -404.56298978
  PAW double counting   =      5756.44512336    -5032.81580867
  entropy T*S    EENTRO =        -0.00693265
  eigenvalues    EBANDS =      -138.79076840
  atomic energy  EATOM  =      4496.35971583
  ---------------------------------------------------
  free energy    TOTEN  =      -133.19767482 eV

  energy without entropy =     -133.19074217  energy(sigma->0) =     -133.19420849


--------------------------------------------------------------------------------------------------------




----------------------------------------- Iteration    1(  15)  ---------------------------------------


    POTLOK:  cpu time    0.10: real time    0.10
    SETDIJ:  cpu time    0.10: real time    0.10
     EDDAV:  cpu time    4.43: real time    4.43
       DOS:  cpu time    0.00: real time    0.00
    CHARGE:  cpu time    0.35: real time    0.35
    MIXING:  cpu time    0.00: real time    0.00
    --------------------------------------------
      LOOP:  cpu time    4.99: real time    5.00

 eigenvalue-minimisations  :  3018
 total energy-change (2. order) : 0.7288422E-04  (-0.1380387E-04)
 number of electron      95.0000001 magnetization 
 augmentation part        5.6536724 magnetization 

 Broyden mixing:
  rms(total) = 0.17253E-02    rms(broyden)= 0.17250E-02
  rms(prec ) = 0.37768E-02
  weight for this iteration     100.00

 eigenvalues of (default mixing * dielectric matrix)
  average eigenvalue GAMMA=   1.3465
  2.8806  2.5025  1.9737  0.8874  0.8874  1.1453  0.9368  0.9368  0.6570  0.6570

 Free energy of the ion-electron system (eV)
  ---------------------------------------------------
  alpha Z        PSCENC =       123.40746629
  Ewald energy   TEWEN  =     13564.04646457
  -Hartree energ DENC   =    -18497.16611464
  -exchange      EXHF   =         0.00000000
  -V(xc)+E(xc)   XCENC  =      -404.55884640
  PAW double counting   =      5757.28328189    -5033.65408766
  entropy T*S    EENTRO =        -0.00693254
  eigenvalues    EBANDS =      -138.90854927
  atomic energy  EATOM  =      4496.35971583
  ---------------------------------------------------
  free energy    TOTEN  =      -133.19760193 eV

  energy without entropy =     -133.19066939  energy(sigma->0) =     -133.19413566


--------------------------------------------------------------------------------------------------------




----------------------------------------- Iteration    1(  16)  ---------------------------------------


    POTLOK:  cpu time    0.10: real time    0.10
    SETDIJ:  cpu time    0.10: real time    0.10
     EDDAV:  cpu time    4.35: real time    4.35
       DOS:  cpu time    0.00: real time    0.00
    CHARGE:  cpu time    0.36: real time    0.36
    MIXING:  cpu time    0.01: real time    0.01
    --------------------------------------------
      LOOP:  cpu time    4.91: real time    4.92

 eigenvalue-minimisations  :  2886
 total energy-change (2. order) : 0.1301371E-03  (-0.5641306E-05)
 number of electron      95.0000001 magnetization 
 augmentation part        5.6534175 magnetization 

 Broyden mixing:
  rms(total) = 0.92302E-03    rms(broyden)= 0.92276E-03
  rms(prec ) = 0.29133E-02
  weight for this iteration     100.00

 eigenvalues of (default mixing * dielectric matrix)
  average eigenvalue GAMMA=   1.4572
  3.5582  2.8197  2.4438  1.2991  0.9394  0.9394  0.9732  0.9732  0.8319  0.6860
  0.5647

 Free energy of the ion-electron system (eV)
  ---------------------------------------------------
  alpha Z        PSCENC =       123.40746629
  Ewald energy   TEWEN  =     13564.04646457
  -Hartree energ DENC   =    -18496.90284747
  -exchange      EXHF   =         0.00000000
  -V(xc)+E(xc)   XCENC  =      -404.55366899
  PAW double counting   =      5758.06457121    -5034.43537615
  entropy T*S    EENTRO =        -0.00693027
  eigenvalues    EBANDS =      -139.17686680
  atomic energy  EATOM  =      4496.35971583
  ---------------------------------------------------
  free energy    TOTEN  =      -133.19747180 eV

  energy without entropy =     -133.19054152  energy(sigma->0) =     -133.19400666


--------------------------------------------------------------------------------------------------------




----------------------------------------- Iteration    1(  17)  ---------------------------------------


    POTLOK:  cpu time    0.10: real time    0.10
    SETDIJ:  cpu time    0.10: real time    0.10
     EDDAV:  cpu time    4.64: real time    4.64
       DOS:  cpu time    0.00: real time    0.00
    CHARGE:  cpu time    0.36: real time    0.36
    MIXING:  cpu time    0.01: real time    0.01
    --------------------------------------------
      LOOP:  cpu time    5.21: real time    5.22

 eigenvalue-minimisations  :  3190
 total energy-change (2. order) : 0.1678545E-03  (-0.1676067E-04)
 number of electron      95.0000001 magnetization 
 augmentation part        5.6532850 magnetization 

 Broyden mixing:
  rms(total) = 0.16545E-02    rms(broyden)= 0.16541E-02
  rms(prec ) = 0.24930E-02
  weight for this iteration     100.00

 eigenvalues of (default mixing * dielectric matrix)
  average eigenvalue GAMMA=   1.4788
  4.1315  2.9010  2.4367  1.5206  0.9309  0.9309  0.9972  0.9972  0.9041  0.7245
  0.7245  0.5468

 Free energy of the ion-electron system (eV)
  ---------------------------------------------------
  alpha Z        PSCENC =       123.40746629
  Ewald energy   TEWEN  =     13564.04646457
  -Hartree energ DENC   =    -18496.30627713
  -exchange      EXHF   =         0.00000000
  -V(xc)+E(xc)   XCENC  =      -404.55191070
  PAW double counting   =      5757.52152608    -5033.89206223
  entropy T*S    EENTRO =        -0.00691733
  eigenvalues    EBANDS =      -139.77530932
  atomic energy  EATOM  =      4496.35971583
  ---------------------------------------------------
  free energy    TOTEN  =      -133.19730394 eV

  energy without entropy =     -133.19038661  energy(sigma->0) =     -133.19384528


--------------------------------------------------------------------------------------------------------




----------------------------------------- Iteration    1(  18)  ---------------------------------------


    POTLOK:  cpu time    0.10: real time    0.10
    SETDIJ:  cpu time    0.10: real time    0.10
     EDDAV:  cpu time    4.95: real time    4.95
       DOS:  cpu time    0.00: real time    0.00
    CHARGE:  cpu time    0.36: real time    0.36
    MIXING:  cpu time    0.01: real time    0.01
    --------------------------------------------
      LOOP:  cpu time    5.52: real time    5.53

 eigenvalue-minimisations  :  3468
 total energy-change (2. order) : 0.8441252E-04  (-0.1769123E-04)
 number of electron      95.0000001 magnetization 
 augmentation part        5.6534273 magnetization 

 Broyden mixing:
  rms(total) = 0.13119E-02    rms(broyden)= 0.13116E-02
  rms(prec ) = 0.17302E-02
  weight for this iteration     100.00

 eigenvalues of (default mixing * dielectric matrix)
  average eigenvalue GAMMA=   1.5599
  5.1511  2.8837  2.4364  1.6427  0.9517  0.9517  1.1233  1.0650  1.0650  0.8815
  0.8815  0.6952  0.5498

 Free energy of the ion-electron system (eV)
  ---------------------------------------------------
  alpha Z        PSCENC =       123.40746629
  Ewald energy   TEWEN  =     13564.04646457
  -Hartree energ DENC   =    -18495.79743925
  -exchange      EXHF   =         0.00000000
  -V(xc)+E(xc)   XCENC  =      -404.55378293
  PAW double counting   =      5757.89001298    -5034.25960802
  entropy T*S    EENTRO =        -0.00690719
  eigenvalues    EBANDS =      -140.28314180
  atomic energy  EATOM  =      4496.35971583
  ---------------------------------------------------
  free energy    TOTEN  =      -133.19721953 eV

  energy without entropy =     -133.19031234  energy(sigma->0) =     -133.19376593


--------------------------------------------------------------------------------------------------------




----------------------------------------- Iteration    1(  19)  ---------------------------------------


    POTLOK:  cpu time    0.10: real time    0.10
    SETDIJ:  cpu time    0.10: real time    0.10
     EDDAV:  cpu time    4.55: real time    4.56
       DOS:  cpu time    0.00: real time    0.00
    CHARGE:  cpu time    0.37: real time    0.37
    MIXING:  cpu time    0.01: real time    0.01
    --------------------------------------------
      LOOP:  cpu time    5.13: real time    5.14

 eigenvalue-minimisations  :  3128
 total energy-change (2. order) : 0.3122766E-04  (-0.2015042E-04)
 number of electron      95.0000001 magnetization 
 augmentation part        5.6532643 magnetization 

 Broyden mixing:
  rms(total) = 0.10499E-02    rms(broyden)= 0.10489E-02
  rms(prec ) = 0.12365E-02
  weight for this iteration     100.00

 eigenvalues of (default mixing * dielectric matrix)
  average eigenvalue GAMMA=   1.6898
  6.1557  3.1927  2.4423  2.4423  1.3059  1.3059  0.9501  0.9501  0.9997  0.9997
  0.8316  0.8316  0.7023  0.5467

 Free energy of the ion-electron system (eV)
  ---------------------------------------------------
  alpha Z        PSCENC =       123.40746629
  Ewald energy   TEWEN  =     13564.04646457
  -Hartree energ DENC   =    -18495.52362701
  -exchange      EXHF   =         0.00000000
  -V(xc)+E(xc)   XCENC  =      -404.55236575
  PAW double counting   =      5757.84935858    -5034.21920937
  entropy T*S    EENTRO =        -0.00690148
  eigenvalues    EBANDS =      -140.55808996
  atomic energy  EATOM  =      4496.35971583
  ---------------------------------------------------
  free energy    TOTEN  =      -133.19718830 eV

  energy without entropy =     -133.19028682  energy(sigma->0) =     -133.19373756


--------------------------------------------------------------------------------------------------------




----------------------------------------- Iteration    1(  20)  ---------------------------------------


    POTLOK:  cpu time    0.11: real time    0.11
    SETDIJ:  cpu time    0.10: real time    0.10
     EDDAV:  cpu time    4.31: real time    4.32
       DOS:  cpu time    0.00: real time    0.00
    CHARGE:  cpu time    0.35: real time    0.35
    MIXING:  cpu time    0.01: real time    0.01
    --------------------------------------------
      LOOP:  cpu time    4.88: real time    4.89

 eigenvalue-minimisations  :  2902
 total energy-change (2. order) : 0.1860278E-04  (-0.7668047E-05)
 number of electron      95.0000001 magnetization 
 augmentation part        5.6532432 magnetization 

 Broyden mixing:
  rms(total) = 0.48916E-03    rms(broyden)= 0.48894E-03
  rms(prec ) = 0.58823E-03
  weight for this iteration     100.00

 eigenvalues of (default mixing * dielectric matrix)
  average eigenvalue GAMMA=   1.8029
  8.1055  3.0591  2.7568  2.4639  1.4745  1.4745  0.9528  0.9528  0.9665  0.9665
  0.9091  0.9091  0.8018  0.7039  0.5469

 Free energy of the ion-electron system (eV)
  ---------------------------------------------------
  alpha Z        PSCENC =       123.40746629
  Ewald energy   TEWEN  =     13564.04646457
  -Hartree energ DENC   =    -18495.34855958
  -exchange      EXHF   =         0.00000000
  -V(xc)+E(xc)   XCENC  =      -404.55228235
  PAW double counting   =      5758.30443332    -5034.67427276
  entropy T*S    EENTRO =        -0.00690066
  eigenvalues    EBANDS =      -140.73323435
  atomic energy  EATOM  =      4496.35971583
  ---------------------------------------------------
  free energy    TOTEN  =      -133.19716970 eV

  energy without entropy =     -133.19026904  energy(sigma->0) =     -133.19371937


--------------------------------------------------------------------------------------------------------




----------------------------------------- Iteration    1(  21)  ---------------------------------------


    POTLOK:  cpu time    0.10: real time    0.10
    SETDIJ:  cpu time    0.10: real time    0.10
     EDDAV:  cpu time    4.05: real time    4.06
       DOS:  cpu time    0.00: real time    0.00
    --------------------------------------------
      LOOP:  cpu time    4.25: real time    4.26

 eigenvalue-minimisations  :  2666
 total energy-change (2. order) :-0.2947718E-05  (-0.7251612E-05)
 number of electron      95.0000001 magnetization 
 augmentation part        5.6532432 magnetization 

 Free energy of the ion-electron system (eV)
  ---------------------------------------------------
  alpha Z        PSCENC =       123.40746629
  Ewald energy   TEWEN  =     13564.04646457
  -Hartree energ DENC   =    -18495.28015935
  -exchange      EXHF   =         0.00000000
  -V(xc)+E(xc)   XCENC  =      -404.55166540
  PAW double counting   =      5758.10192710    -5034.47163332
  entropy T*S    EENTRO =        -0.00689824
  eigenvalues    EBANDS =      -140.80239014
  atomic energy  EATOM  =      4496.35971583
  ---------------------------------------------------
  free energy    TOTEN  =      -133.19717265 eV

  energy without entropy =     -133.19027441  energy(sigma->0) =     -133.19372353


--------------------------------------------------------------------------------------------------------




 average (electrostatic) potential at core
  the test charge radii are     0.7215  1.0714  1.0406
  (the norm of the test charge is              1.0000)
       1 -70.1214       2 -70.1071       3 -70.0942       4 -70.0939       5 -70.1190
       6 -70.2362       7 -70.2356       8 -70.0950       9 -70.1008      10 -35.8410
      11 -35.7199      12 -35.7130      13 -35.8425      14 -35.7336      15 -35.7055
      16 -35.7608      17 -35.7632      18 -35.7066      19 -35.7246      20 -74.2220
      21 -74.1502      22 -74.1933      23 -74.1477      24 -74.1521      25 -74.1480
      26 -74.1945
 
 
 
 E-fermi :   6.5245     XC(G=0): -10.2811     alpha+bet :-12.5196


 k-point     1 :       0.0000    0.0000    0.0000
  band No.  band energies     occupation 
      1     -14.3840      2.00000
      2     -14.3306      2.00000
      3     -14.2259      2.00000
      4     -14.0836      2.00000
      5     -13.9183      2.00000
      6     -13.7403      2.00000
      7     -13.5710      2.00000
      8     -13.4264      2.00000
      9     -13.3196      2.00000
     10      -3.9001      2.00000
     11      -3.5163      2.00000
     12      -2.9551      2.00000
     13      -2.1718      2.00000
     14      -1.8238      2.00000
     15      -1.6927      2.00000
     16      -1.3379      2.00000
     17      -1.2215      2.00000
     18      -0.7749      2.00000
     19      -0.4462      2.00000
     20       0.1681      2.00000
     21       0.2860      2.00000
     22       1.0598      2.00000
     23       1.3229      2.00000
     24       1.8809      2.00000
     25       2.1656      2.00000
     26       2.1656      2.00000
     27       2.1882      2.00000
     28       2.1882      2.00000
     29       2.2179      2.00000
     30       2.2437      2.00000
     31       2.2437      2.00000
     32       2.3178      2.00000
     33       2.3178      2.00000
     34       2.4016      2.00000
     35       2.4016      2.00000
     36       2.4918      2.00000
     37       2.4918      2.00000
     38       2.5752      2.00000
     39       2.5752      2.00000
     40       2.6475      2.00000
     41       2.6475      2.00000
     42       2.6552      2.00000
     43       2.7037      2.00000
     44       2.7037      2.00000
     45       3.9569      2.00000
     46       5.0864      2.00000
     47       6.3188      2.00000
     48       7.2206      0.00000
     49       7.3812      0.00000
     50       8.1177      0.00000
     51       8.3043      0.00000
     52       9.2212      0.00000
     53       9.2282      0.00000
     54       9.9897      0.00000
     55      10.0581      0.00000
     56      10.3782      0.00000
     57      10.4214      0.00000
     58      11.1225      0.00000
     59      12.5735      0.00000
     60      14.1439      0.00000
     61      14.3871      0.00000
     62      14.4229      0.00000

 k-point     2 :       0.0769    0.0000    0.0000
  band No.  band energies     occupation 
      1     -14.3312      2.00000
      2     -14.2793      2.00000
      3     -14.1771      2.00000
      4     -14.0383      2.00000
      5     -13.8772      2.00000
      6     -13.7039      2.00000
      7     -13.5392      2.00000
      8     -13.3987      2.00000
      9     -13.2950      2.00000
     10      -3.7699      2.00000
     11      -3.3864      2.00000
     12      -2.8258      2.00000
     13      -2.0455      2.00000
     14      -1.7420      2.00000
     15      -1.6121      2.00000
     16      -1.2709      2.00000
     17      -1.1198      2.00000
     18      -0.7115      2.00000
     19      -0.4029      2.00000
     20       0.2500      2.00000
     21       0.2823      2.00000
     22       1.0103      2.00000
     23       1.3320      2.00000
     24       1.8274      2.00000
     25       1.9349      2.00000
     26       1.9655      2.00000
     27       2.0068      2.00000
     28       2.0550      2.00000
     29       2.1216      2.00000
     30       2.1249      2.00000
     31       2.1445      2.00000
     32       2.2004      2.00000
     33       2.2241      2.00000
     34       2.2752      2.00000
     35       2.3025      2.00000
     36       2.3597      2.00000
     37       2.3697      2.00000
     38       2.4501      2.00000
     39       2.4507      2.00000
     40       2.4947      2.00000
     41       2.5349      2.00000
     42       2.6079      2.00000
     43       2.6645      2.00000
     44       2.7491      2.00000
     45       4.0895      2.00000
     46       5.2323      2.00000
     47       6.4985      1.53822
     48       7.5339      0.00000
     49       7.6333      0.00000
     50       8.3174      0.00000
     51       8.5332      0.00000
     52       9.4209      0.00000
     53       9.4326      0.00000
     54      10.2201      0.00000
     55      10.2829      0.00000
     56      10.6394      0.00000
     57      10.7001      0.00000
     58      11.2704      0.00000
     59      12.6105      0.00000
     60      13.8578      0.00000
     61      13.9704      0.00000
     62      14.2802      0.00000

 k-point     3 :       0.1538    0.0000    0.0000
  band No.  band energies     occupation 
      1     -14.1796      2.00000
      2     -14.1325      2.00000
      3     -14.0379      2.00000
      4     -13.9095      2.00000
      5     -13.7611      2.00000
      6     -13.6016      2.00000
      7     -13.4507      2.00000
      8     -13.3220      2.00000
      9     -13.2266      2.00000
     10      -3.3800      2.00000
     11      -2.9975      2.00000
     12      -2.4389      2.00000
     13      -1.6726      2.00000
     14      -1.5024      2.00000
     15      -1.3859      2.00000
     16      -1.0870      2.00000
     17      -0.8636      2.00000
     18      -0.5032      2.00000
     19      -0.3322      2.00000
     20       0.2094      2.00000
     21       0.4284      2.00000
     22       0.8448      2.00000
     23       1.0342      2.00000
     24       1.3245      2.00000
     25       1.3748      2.00000
     26       1.4140      2.00000
     27       1.4971      2.00000
     28       1.5643      2.00000
     29       1.6811      2.00000
     30       1.8715      2.00000
     31       1.9970      2.00000
     32       2.0031      2.00000
     33       2.0267      2.00000
     34       2.0837      2.00000
     35       2.0890      2.00000
     36       2.1600      2.00000
     37       2.2286      2.00000
     38       2.2463      2.00000
     39       2.3392      2.00000
     40       2.3418      2.00000
     41       2.4251      2.00000
     42       2.4997      2.00000
     43       2.5573      2.00000
     44       3.0424      2.00000
     45       4.4413      2.00000
     46       5.6066      2.00000
     47       6.9228      0.00000
     48       8.2056      0.00000
     49       8.2908      0.00000
     50       8.8321      0.00000
     51       9.1064      0.00000
     52       9.8966      0.00000
     53       9.9243      0.00000
     54      10.7290      0.00000
     55      10.8134      0.00000
     56      11.2094      0.00000
     57      11.3622      0.00000
     58      11.4067      0.00000
     59      11.5049      0.00000
[...]
     58       9.5951      0.00000
     59      10.0719      0.00000
     60      10.6166      0.00000
     61      10.7928      0.00000
     62      11.1967      0.00000

 k-point    19 :       0.3077    0.2308    0.0000
  band No.  band energies     occupation 
      1     -13.2352      2.00000
      2     -13.2276      2.00000
      3     -13.2054      2.00000
      4     -13.1699      2.00000
      5     -13.1314      2.00000
      6     -13.0885      2.00000
      7     -13.0499      2.00000
      8     -13.0152      2.00000
      9     -12.9928      2.00000
     10      -1.1889      2.00000
     11      -1.0947      2.00000
     12      -0.9634      2.00000
     13      -0.9449      2.00000
     14      -0.8916      2.00000
     15      -0.8329      2.00000
     16      -0.7835      2.00000
     17      -0.6337      2.00000
     18      -0.4795      2.00000
     19      -0.0656      2.00000
     20       0.0856      2.00000
     21       0.2315      2.00000
     22       0.4096      2.00000
     23       0.5281      2.00000
     24       0.5980      2.00000
     25       0.6339      2.00000
     26       0.7268      2.00000
     27       0.8638      2.00000
     28       0.8867      2.00000
     29       0.9634      2.00000
     30       1.0267      2.00000
     31       1.1690      2.00000
     32       1.2809      2.00000
     33       1.3371      2.00000
     34       1.4466      2.00000
     35       1.5177      2.00000
     36       1.6209      2.00000
     37       1.7117      2.00000
     38       1.8215      2.00000
     39       1.8291      2.00000
     40       2.6034      2.00000
     41       3.5354      2.00000
     42       4.1345      2.00000
     43       4.4863      2.00000
     44       4.5843      2.00000
     45       5.0484      2.00000
     46       5.6062      2.00000
     47       5.7233      2.00000
     48       5.9202      2.00000
     49       6.0772      2.00000
     50       6.5256      0.94702
     51       6.8239      0.00000
     52       6.9735      0.00000
     53       7.4650      0.00000
     54       7.8762      0.00000
     55       8.1981      0.00000
     56       8.4373      0.00000
     57       8.8997      0.00000
     58       9.1957      0.00000
     59       9.4887      0.00000
     60       9.8420      0.00000
     61      10.3935      0.00000
     62      10.6114      0.00000

 k-point    20 :       0.3846    0.2308    0.0000
  band No.  band energies     occupation 
      1     -13.1529      2.00000
      2     -13.1495      2.00000
      3     -13.1288      2.00000
      4     -13.1111      2.00000
      5     -13.0919      2.00000
      6     -13.0675      2.00000
      7     -13.0455      2.00000
      8     -13.0236      2.00000
      9     -13.0099      2.00000
     10      -1.2706      2.00000
     11      -1.1678      2.00000
     12      -1.0119      2.00000
     13      -0.8336      2.00000
     14      -0.8249      2.00000
     15      -0.7989      2.00000
     16      -0.7548      2.00000
     17      -0.7097      2.00000
     18      -0.7006      2.00000
     19       0.1195      2.00000
     20       0.1402      2.00000
     21       0.1950      2.00000
     22       0.2474      2.00000
     23       0.2481      2.00000
     24       0.3054      2.00000
     25       0.4372      2.00000
     26       0.6132      2.00000
     27       0.7914      2.00000
     28       1.0689      2.00000
     29       1.0928      2.00000
     30       1.2580      2.00000
     31       1.3098      2.00000
     32       1.3727      2.00000
     33       1.4783      2.00000
     34       1.6100      2.00000
     35       1.6934      2.00000
     36       1.6967      2.00000
     37       2.3935      2.00000
     38       2.3970      2.00000
     39       2.7736      2.00000
     40       2.7742      2.00000
     41       3.2761      2.00000
     42       3.3547      2.00000
     43       4.0128      2.00000
     44       4.1191      2.00000
     45       4.8768      2.00000
     46       5.1556      2.00000
     47       5.6057      2.00000
     48       5.8891      2.00000
     49       5.9770      2.00000
     50       6.2079      2.00000
     51       6.6088      0.01555
     52       7.1194      0.00000
     53       7.1272      0.00000
     54       7.6257      0.00000
     55       8.2083      0.00000
     56       8.3064      0.00000
     57       8.4167      0.00000
     58       9.1183      0.00000
     59       9.4757      0.00000
     60       9.6249      0.00000
     61      10.1479      0.00000
     62      10.6319      0.00000

 k-point    21 :       0.3077    0.3077   -0.0000
  band No.  band energies     occupation 
      1     -13.1270      2.00000
      2     -13.1232      2.00000
      3     -13.0964      2.00000
      4     -13.0839      2.00000
      5     -13.0707      2.00000
      6     -13.0530      2.00000
      7     -13.0382      2.00000
      8     -13.0228      2.00000
      9     -13.0139      2.00000
     10      -0.9174      2.00000
     11      -0.9155      2.00000
     12      -0.8286      2.00000
     13      -0.8218      2.00000
     14      -0.7226      2.00000
     15      -0.6729      2.00000
     16      -0.5215      2.00000
     17      -0.5096      2.00000
     18      -0.4086      2.00000
     19      -0.3041      2.00000
     20      -0.2465      2.00000
     21      -0.1039      2.00000
     22      -0.0441      2.00000
     23       0.0407      2.00000
     24       0.1727      2.00000
     25       0.1922      2.00000
     26       0.3459      2.00000
     27       0.3509      2.00000
     28       1.0772      2.00000
     29       1.0957      2.00000
     30       1.2856      2.00000
     31       1.4082      2.00000
     32       1.4631      2.00000
     33       1.5144      2.00000
     34       1.5181      2.00000
     35       1.5480      2.00000
     36       1.6568      2.00000
     37       2.2710      2.00000
     38       2.6529      2.00000
     39       3.1893      2.00000
     40       3.8717      2.00000
     41       3.8850      2.00000
     42       3.9596      2.00000
     43       4.2589      2.00000
     44       4.2633      2.00000
     45       4.7321      2.00000
     46       4.7939      2.00000
     47       4.8493      2.00000
     48       5.4345      2.00000
     49       5.6405      2.00000
     50       5.9202      2.00000
     51       6.5082      1.32937
     52       6.5705      0.18129
     53       7.3408      0.00000
     54       7.5041      0.00000
     55       7.9091      0.00000
     56       8.1392      0.00000
     57       8.6016      0.00000
     58       8.8493      0.00000
     59       9.1350      0.00000
     60       9.5281      0.00000
     61       9.8371      0.00000
     62      10.2682      0.00000


--------------------------------------------------------------------------------------------------------


 soft charge-density along one line, spin component           1
         0         1         2         3         4         5         6         7         8         9
 total charge-density along one line
 
 pseudopotential strength for first ion, spin component:           1
 12.182   0.000 -14.823   0.000   0.000   0.000  -0.000   0.000  -0.000   0.000  -0.000   0.000   0.000   0.000   0.000   0.000
-14.823   0.000  18.055   0.000  -0.000   0.000   0.000   0.000   0.000   0.000   0.000   0.000  -0.000   0.000  -0.000   0.000
  0.000   0.000  -0.000   0.000  -8.317   0.000  -0.000   0.000   0.000   0.000   9.958   0.000   0.000   0.000  -0.000   0.000
 -0.000   0.000   0.000   0.000  -0.000   0.000  -8.321   0.000   0.000   0.000   0.000   0.000   9.963   0.000  -0.000   0.000
 -0.000   0.000   0.000   0.000   0.000   0.000   0.000   0.000  -8.317   0.000  -0.000   0.000  -0.000   0.000   9.958   0.000
 -0.000   0.000   0.000   0.000   9.958   0.000   0.000   0.000  -0.000   0.000 -11.761   0.000  -0.000   0.000   0.000   0.000
  0.000   0.000  -0.000   0.000   0.000   0.000   9.963   0.000  -0.000   0.000  -0.000   0.000 -11.768   0.000   0.000   0.000
  0.000   0.000  -0.000   0.000  -0.000   0.000  -0.000   0.000   9.958   0.000   0.000   0.000   0.000   0.000 -11.761   0.000
 total augmentation occupancy for first ion, spin component:           1
  2.599   0.362   0.000   0.000  -0.000   0.000  -0.000   0.000
  0.362   0.068   0.000   0.000  -0.000   0.000  -0.000   0.000
  0.000   0.000   2.159  -0.000   0.000   0.258  -0.000   0.000
  0.000   0.000  -0.000   2.156   0.000  -0.000   0.262   0.000
 -0.000  -0.000   0.000   0.000   2.159   0.000   0.000   0.258
  0.000   0.000   0.258  -0.000   0.000   0.034  -0.000   0.000
 -0.000  -0.000  -0.000   0.262   0.000  -0.000   0.034  -0.000
  0.000   0.000   0.000   0.000   0.258   0.000  -0.000   0.034


------------------------ aborting loop because EDIFF is reached ----------------------------------------


    CHARGE:  cpu time    0.35: real time    0.35
    FORLOC:  cpu time    0.03: real time    0.03
    FORNL :  cpu time    2.99: real time    2.99
    STRESS:  cpu time    4.04: real time    4.05
    FORCOR:  cpu time    0.13: real time    0.13
    FORHAR:  cpu time    0.05: real time    0.05
    MIXING:  cpu time    0.00: real time    0.00
    OFIELD:  cpu time    0.00: real time    0.00

  FORCE on cell =-STRESS in cart. coord.  units (eV):
  Direction    XX          YY          ZZ          XY          YZ          ZX
  --------------------------------------------------------------------------------------
  Alpha Z   123.40747   123.40747   123.40747
  Ewald   16709.80560 16709.80590-19176.72318    -0.00002    -0.00003    -0.00013
  Hartree 18318.53301 18318.53293-17462.76616    -0.00000    -0.00000     0.00004
  E(xc)    -388.90116  -388.90117  -389.21882    -0.00000     0.00000    -0.00000
  Local  -36166.52809-36166.52762 35498.80727    -0.00016     0.00003     0.00004
  n-local   -26.02136   -38.00213   -27.43527     2.67619    -1.54957     4.91726
  augment    53.70406    53.70383    53.03983     0.00016     0.00000     0.00000
  Kinetic  1402.80065  1355.27947  1371.21536     1.24626    -0.32439     0.45082
  Fock        0.00000     0.00000     0.00000     0.00000     0.00000     0.00000
  -------------------------------------------------------------------------------------
  Total      -2.95058    -2.95058    -9.67350    -0.00000     0.00000    -0.00000
  in kB     -14.42817   -14.42816   -47.30280    -0.00000     0.00000    -0.00000
  external pressure =      -25.39 kB  Pullay stress =        0.00 kB


 VOLUME and BASIS-vectors are now :
 -----------------------------------------------------------------------------
  energy-cutoff  :      520.00
  volume of cell :      327.65
      direct lattice vectors                 reciprocal lattice vectors
     2.591982046 -1.496481076  0.000000000     0.385805142 -0.000000000 -0.000000000
     0.000000000  2.992962152  0.000000000     0.192902571  0.334117155  0.000000000
     0.000000000 -0.000000000 42.235151392     0.000000000  0.000000000  0.023676960

  length of vectors
     2.992962836  2.992962152 42.235151392     0.385805142  0.385805230  0.023676960


 FORCES acting on ions
    electron-ion (+dipol)            ewald-force                    non-local-force                 convergence-correction
 -----------------------------------------------------------------------------------------------
   -.677E-08 -.419E-08 0.101E+04   0.756E-08 -.262E-09 -.101E+04   0.394E-18 -.456E-18 0.563E-01   -.116E-08 0.135E-08 -.952E-01
   0.106E-02 -.184E-02 0.671E+03   0.567E-04 -.983E-04 -.671E+03   -.157E-20 -.567E-19 0.235E-01   -.546E-08 0.950E-08 -.363E-01
   -.259E-08 0.482E-09 -.478E+00   -.478E-07 0.547E-07 0.408E+00   -.707E-21 -.344E-20 0.124E-03   0.306E-09 -.233E-09 0.742E-01
   0.106E-02 -.184E-02 -.336E+03   0.567E-04 -.982E-04 0.336E+03   -.934E-20 -.316E-19 0.113E-01   0.738E-08 -.121E-07 0.115E+00
   0.984E-08 0.363E-08 -.101E+04   0.435E-07 -.582E-07 0.101E+04   0.434E-18 -.193E-18 -.607E-01   0.798E-09 -.109E-08 0.101E+00
   0.106E-02 -.185E-02 -.134E+04   0.519E-04 -.859E-04 0.134E+04   -.614E-17 0.108E-16 -.109E+01   0.115E-07 -.201E-07 0.694E-01
   -.106E-02 0.185E-02 0.134E+04   -.520E-04 0.861E-04 -.134E+04   0.267E-17 -.390E-17 0.109E+01   0.411E-08 -.742E-08 -.970E-01
   -.106E-02 0.184E-02 0.335E+03   -.568E-04 0.983E-04 -.335E+03   0.829E-20 0.244E-19 -.103E-01   -.302E-08 0.504E-08 0.104E-01
   -.106E-02 0.184E-02 -.671E+03   -.566E-04 0.981E-04 0.671E+03   -.545E-20 0.490E-19 -.210E-01   -.123E-07 0.215E-07 0.107E+00
   -.990E-05 0.271E-05 0.483E+03   0.239E-04 -.253E-04 -.483E+03   -.235E-16 0.276E-16 0.291E+00   -.211E-10 0.947E-10 -.338E-01
   0.211E-07 -.342E-07 0.168E+03   -.306E-08 0.343E-08 -.168E+03   0.278E-20 0.640E-20 0.946E-03   0.120E-10 -.570E-10 -.504E-02
   -.393E-07 0.396E-07 -.168E+03   0.559E-07 -.624E-07 0.168E+03   0.521E-19 0.289E-20 -.732E-02   0.553E-09 -.103E-08 0.400E-01
   0.991E-05 -.272E-05 -.483E+03   -.239E-04 0.253E-04 0.483E+03   -.251E-16 0.114E-18 -.288E+00   -.768E-10 0.220E-09 0.187E-01
   0.433E-04 -.749E-04 0.280E+03   -.487E-04 0.843E-04 -.280E+03   -.259E-20 -.544E-19 0.568E-03   -.100E-09 0.156E-09 -.237E-01
   0.433E-04 -.750E-04 -.561E+02   -.487E-04 0.844E-04 0.561E+02   0.841E-20 0.149E-20 -.378E-02   0.611E-10 -.291E-09 0.334E-01
   0.433E-04 -.749E-04 -.391E+03   -.485E-04 0.840E-04 0.391E+03   -.288E-18 -.349E-17 0.558E-01   -.189E-09 0.227E-09 0.290E-01
   -.433E-04 0.750E-04 0.392E+03   0.486E-04 -.842E-04 -.391E+03   -.163E-18 0.182E-19 -.461E-01   -.797E-10 0.225E-09 -.349E-01
   -.433E-04 0.750E-04 0.558E+02   0.487E-04 -.844E-04 -.559E+02   0.377E-19 0.111E-18 -.625E-02   0.109E-09 -.747E-10 0.146E-01
   -.432E-04 0.748E-04 -.280E+03   0.486E-04 -.841E-04 0.279E+03   0.422E-19 -.541E-19 -.283E-03   -.241E-09 0.468E-09 0.368E-01
   -.366E-09 -.758E-10 -.841E-01   0.110E-08 -.109E-08 0.102E+00   0.453E-20 -.782E-21 0.198E-02   -.694E-10 0.267E-11 -.183E-01
   -.129E-05 -.347E-07 0.471E+03   0.206E-05 -.189E-05 -.471E+03   -.486E-17 0.139E-16 -.399E-01   0.564E-10 -.399E-11 -.422E-01
   0.148E-04 -.264E-04 0.311E+03   -.326E-05 0.569E-05 -.311E+03   -.215E-16 0.555E-16 0.447E-01   -.510E-10 0.341E-10 -.363E-01
   -.148E-04 0.256E-04 0.154E+03   0.342E-05 -.585E-05 -.154E+03   0.248E-18 0.846E-18 0.551E-01   -.597E-10 -.282E-10 -.286E-01
   0.129E-05 0.348E-07 -.471E+03   -.207E-05 0.190E-05 0.471E+03   0.137E-17 -.124E-19 0.313E-01   0.290E-10 0.329E-12 0.148E-01
   0.148E-04 -.256E-04 -.154E+03   -.342E-05 0.587E-05 0.154E+03   -.228E-18 0.349E-17 -.484E-01   -.495E-10 0.422E-10 -.778E-02
   -.148E-04 0.264E-04 -.311E+03   0.327E-05 -.571E-05 0.311E+03   -.277E-17 0.170E-19 -.432E-01   0.198E-10 -.307E-10 0.308E-02
 -----------------------------------------------------------------------------------------------
   -.948E-08 0.310E-08 -.209E+00   -.130E-13 -.483E-14 -.227E-12   -.793E-16 0.104E-15 -.178E-02   0.209E-08 -.362E-08 0.209E+00
 
 
 POSITION                                       TOTAL-FORCE (eV/Angst)
 -----------------------------------------------------------------------------------
     -0.00000     -0.00000     14.73339         0.000000     -0.000000     -0.003180
      0.86399      1.49648     17.22411         0.000000     -0.000000      0.006831
     -0.00000     -0.00000     22.20530         0.000000     -0.000000      0.004071
      0.86399      1.49648     24.69526         0.000000     -0.000000      0.014909
     -0.00000     -0.00000     29.68141         0.000000     -0.000000     -0.003173
      0.86399      1.49648     32.17383        -0.000000      0.000000     -0.002807
      1.72799     -0.00000     12.24227        -0.000000      0.000000     -0.004956
      1.72799     -0.00000     19.71597        -0.000000      0.000000     -0.008195
      1.72799     -0.00000     27.18868        -0.000000     -0.000000     -0.003066
     -0.00000     -0.00000     10.96405         0.000000     -0.000000      0.003076
     -0.00000     -0.00000     18.47001         0.000000     -0.000000      0.001007
     -0.00000     -0.00000     25.94255         0.000000     -0.000000     -0.002889
     -0.00000     -0.00000     33.45156         0.000000      0.000000     -0.006537
      1.72799     -0.00000     15.97887         0.000000     -0.000000      0.004835
      1.72799     -0.00000     23.45065         0.000000     -0.000000      0.006065
      1.72799     -0.00000     30.92652         0.000000     -0.000000     -0.004940
      0.86399      1.49648     13.48805         0.000000     -0.000000      0.012636
      0.86399      1.49648     20.96113         0.000000      0.000000     -0.008230
      0.86399      1.49648     28.43489         0.000000      0.000000     -0.005944
     -0.00000     -0.00000      1.08852         0.000000     -0.000000      0.001242
     -0.00000     -0.00000      8.07538         0.000000     -0.000000     -0.001605
      1.72799     -0.00000      5.73029         0.000000     -0.000000      0.008515
      0.86399      1.49648      3.39987         0.000000     -0.000000      0.013305
     -0.00000     -0.00000     36.34012         0.000000     -0.000000     -0.001527
      1.72799     -0.00000     41.01257         0.000000      0.000000     -0.011289
      0.86399      1.49648     38.68344         0.000000      0.000000     -0.008155
 -----------------------------------------------------------------------------------
    total drift:                               -0.000000     -0.000000     -0.002122


--------------------------------------------------------------------------------------------------------



  FREE ENERGIE OF THE ION-ELECTRON SYSTEM (eV)
  ---------------------------------------------------
  free  energy   TOTEN  =      -133.21485622 eV

  energy  without entropy=     -133.20851268  energy(sigma->0) =     -133.21168445
 
 d Force = 0.1010308E-03[ 0.512E-04, 0.151E-03]  d Energy = 0.7323521E-04 0.278E-04
 d Force =-0.4712001E+01[-0.471E+01,-0.471E+01]  d Ewald  =-0.4711999E+01-0.201E-05


--------------------------------------------------------------------------------------------------------


    POTLOK:  cpu time    0.21: real time    0.21


--------------------------------------------------------------------------------------------------------


 Conjugate gradient step on ions:
 trial-energy change:   -0.000073  1 .order   -0.000101   -0.000151   -0.000051
  (g-gl).g = 0.942E-04      g.g   = 0.140E-03  gl.gl    = 0.957E-03
 g(Force)  = 0.140E-03   g(Stress)= 0.000E+00 ortho     = 0.407E-05
 gamma     =   0.09837
 trial     =   1.07290
 opt step  =   1.62447  (harmonic =   1.62447) maximal distance =0.00172634
 next E    =  -133.214897   (d E  =  -0.00011)


--------------------------------------------------------------------------------------------------------


  
 reached required accuracy - stopping structural energy minimisation
     LOOP+:  cpu time   30.64: real time   30.67
    4ORBIT:  cpu time    0.00: real time    0.00

 total amount of memory used by VASP on root node   146895. kBytes
========================================================================

   base      :      30000. kBytes
   nonl-proj :      15552. kBytes
   fftplans  :      55171. kBytes
   grid      :      22118. kBytes
   one-center:         56. kBytes
   wavefun   :      23998. kBytes
 
  
  
 General timing and accounting informations for this job:
 ========================================================
  
                  Total CPU time used (sec):      929.950
                            User time (sec):      918.615
                          System time (sec):       11.335
                         Elapsed time (sec):      931.016
  
                   Maximum memory used (kb):      251132.
                   Average memory used (kb):           0.
  
                          Minor page faults:       231220
                          Major page faults:            0
                 Voluntary context switches:          193
